<event>
 7    1  0.6414246E-006  0.1317969E+03  0.7546771E-02  0.1225134E+00
          2   -1    0    0  501    0  0.00000000000E+00  0.00000000000E+00  0.17606660815E+03  0.17606660815E+03  0.00000000000E+00 0. -1.
         -2   -1    0    0    0  501 -0.00000000000E+00 -0.00000000000E+00 -0.10725920574E+03  0.10725920574E+03  0.00000000000E+00 0.  1.
         23    2    1    2    0    0 -0.38526193469E+02 -0.16965266782E+02 -0.73142238498E+01  0.13112551498E+03  0.12396900802E+03 0.  0.
          5    1    3    3  502    0 -0.29560849885E+02  0.41081902330E+02  0.32208324885E+02  0.60175017548E+02  0.47000000000E+01 0. -1.
         -5    1    1    2    0  503  0.13568515142E+02  0.53797687200E+02 -0.86482038020E+01  0.56348710546E+02  0.47000000000E+01 0. -1.
          5    1    1    2  503    0  0.24957678326E+02 -0.36832420417E+02  0.84769830062E+02  0.95851588354E+02  0.47000000000E+01 0. -1.
         -5    1    3    3    0  502 -0.89653435837E+01 -0.58047169113E+02 -0.39522548735E+02  0.70950497434E+02  0.47000000000E+01 0.  1.
<mgrwt>
<rscale>  0 0.13157749E+03</rscale>
<asrwt>0</asrwt>
<pdfrwt beam="1">  1        2 0.27087170E-01 0.13179692E+03</pdfrwt>
<pdfrwt beam="2">  1       -2 0.16501416E-01 0.13179692E+03</pdfrwt>
<totfact> 0.54582566E+03</totfact>
</mgrwt>
</event>
<event>
 8    1  0.7584600E-006  0.1501627E+03  0.7546771E-02  0.1205201E+00
         -1   -1    0    0    0  501 -0.00000000000E+00  0.00000000000E+00  0.14843261731E+03  0.14843261731E+03  0.00000000000E+00 0.  1.
          1   -1    0    0  501    0  0.00000000000E+00 -0.00000000000E+00 -0.16146381347E+03  0.16146381347E+03  0.00000000000E+00 0. -1.
         25    2    1    2    0    0  0.51958698123E+02 -0.65055990318E+02  0.53491167798E+02  0.15940560461E+03  0.12496741000E+03 0.  0.
         23    2    1    2    0    0 -0.51958698123E+02  0.65055990318E+02 -0.66522363959E+02  0.15049082616E+03  0.10625570886E+03 0.  0.
          5    1    3    3  502    0  0.66427625038E+02  0.13825007462E+02  0.36888847558E+02  0.77373362817E+02  0.47000000000E+01 0.  1.
         -5    1    3    3    0  502 -0.14468926916E+02 -0.78880997779E+02  0.16602320240E+02  0.82032241796E+02  0.47000000000E+01 0.  1.
          5    1    4    4  503    0 -0.33877293090E+02  0.94164796368E+02 -0.53132754564E+02  0.11340132041E+03  0.47000000000E+01 0. -1.
         -5    1    4    4    0  503 -0.18081405033E+02 -0.29108806050E+02 -0.13389609394E+02  0.37089505758E+02  0.47000000000E+01 0.  1.
<mgrwt>
<rscale>  0 0.14621667E+03</rscale>
<asrwt>0</asrwt>
<pdfrwt beam="1">  1        1 0.24840587E-01 0.15016272E+03</pdfrwt>
<pdfrwt beam="2">  1       -1 0.22835787E-01 0.15016272E+03</pdfrwt>
<totfact> 0.30337950E+03</totfact>
</mgrwt>
</event>
<event>
 7    1  0.6414246E-006  0.1379984E+03  0.7546771E-02  0.1220510E+00
          1   -1    0    0  501    0  0.00000000000E+00  0.00000000000E+00  0.86079568056E+02  0.86079568056E+02  0.00000000000E+00 0. -1.
         -1   -1    0    0    0  501 -0.00000000000E+00 -0.00000000000E+00 -0.20184864230E+03  0.20184864230E+03  0.00000000000E+00 0.  1.
         25    2    1    2    0    0  0.98213161231E+01 -0.71650011191E+01 -0.54003592020E+02  0.13673782691E+03  0.12503219531E+03 0.  0.
          5    1    3    3  502    0  0.82535512254E+01 -0.63061491447E+02 -0.48953650219E+02  0.80395414553E+02  0.47000000000E+01 0.  1.
         -5    1    1    2    0  503  0.23881449529E+02  0.62425413193E+02 -0.53554681316E+02  0.85775577729E+02  0.47000000000E+01 0.  1.
          5    1    1    2  503    0 -0.33702765652E+02 -0.55260412074E+02 -0.82108009024E+01  0.65414805714E+02  0.47000000000E+01 0. -1.
         -5    1    3    3    0  502  0.15677648977E+01  0.55896490328E+02 -0.50499418011E+01  0.56342412355E+02  0.47000000000E+01 0.  1.
<mgrwt>
<rscale>  0 0.13479439E+03</rscale>
<asrwt>0</asrwt>
<pdfrwt beam="1">  1        1 0.13243011E-01 0.13799840E+03</pdfrwt>
<pdfrwt beam="2">  1       -1 0.31053637E-01 0.13799840E+03</pdfrwt>
<totfact> 0.40623313E+03</totfact>
</mgrwt>
</event>
<event>
 8    1  0.6414246E-006  0.1824737E+03  0.7546771E-02  0.1175431E+00
          1   -1    0    0  501    0  0.00000000000E+00  0.00000000000E+00  0.33451261059E+03  0.33451261059E+03  0.00000000000E+00 0. -1.
         -1   -1    0    0    0  501 -0.00000000000E+00 -0.00000000000E+00 -0.80240705788E+02  0.80240705788E+02  0.00000000000E+00 0.  1.
         25    2    1    2    0    0  0.10350198568E+03 -0.83286243523E+02  0.14281881108E+03  0.23171940007E+03  0.12508960057E+03 0.  0.
         23    2    1    2    0    0 -0.10350198568E+03  0.83286243523E+02  0.11145309372E+03  0.18303391631E+03  0.58569300999E+02 0.  0.
          5    1    4    4  502    0 -0.42174568544E+02  0.20346003705E+01  0.41782212261E+02  0.59587558197E+02  0.47000000000E+01 0. -1.
         -5    1    4    4    0  502 -0.61327417136E+02  0.81251643152E+02  0.69670881462E+02  0.12344635811E+03  0.47000000000E+01 0.  1.
          5    1    3    3  503    0  0.54116187292E+02 -0.80409475219E+02  0.15282482140E+03  0.18102972537E+03  0.47000000000E+01 0. -1.
         -5    1    3    3    0  503  0.49385798387E+02 -0.28767683035E+01 -0.10006010322E+02  0.50689674696E+02  0.47000000000E+01 0. -1.
<mgrwt>
<rscale>  0 0.17233883E+03</rscale>
<asrwt>0</asrwt>
<pdfrwt beam="1">  1        1 0.51463478E-01 0.18247374E+03</pdfrwt>
<pdfrwt beam="2">  1       -1 0.12344724E-01 0.18247374E+03</pdfrwt>
<totfact> 0.32770603E+03</totfact>
</mgrwt>
</event>
<event>
 8    1  0.6414246E-006  0.1414006E+03  0.7546771E-02  0.1213987E+00
          1   -1    0    0  501    0  0.00000000000E+00  0.00000000000E+00  0.12227701722E+03  0.12227701722E+03  0.00000000000E+00 0. -1.
         -1   -1    0    0    0  501 -0.00000000000E+00 -0.00000000000E+00 -0.16506354140E+03  0.16506354140E+03  0.00000000000E+00 0.  1.
         25    2    1    2    0    0 -0.53057972793E+02 -0.39285017394E+02  0.13413514801E+02  0.14203543749E+03  0.12504272091E+03 0.  0.
         23    2    1    2    0    0  0.53057972793E+02  0.39285017394E+02 -0.56200038973E+02  0.14530512114E+03  0.11660477168E+03 0.  0.
          5    1    3    3  502    0  0.37449681390E+02 -0.16877483418E+02  0.24439217795E+02  0.48028048567E+02  0.47000000000E+01 0. -1.
         -5    1    4    4    0  503  0.31265041196E+02  0.74109596833E+02 -0.64404968060E+02  0.10314952765E+03  0.47000000000E+01 0.  1.
          5    1    4    4  503    0  0.21792931598E+02 -0.34824579439E+02  0.82049290874E+01  0.42155593485E+02  0.47000000000E+01 0. -1.
         -5    1    3    3    0  502 -0.90507654184E+02 -0.22407533976E+02 -0.11025702994E+02  0.94007388918E+02  0.47000000000E+01 0. -1.
<mgrwt>
<rscale>  0 0.13951218E+03</rscale>
<asrwt>0</asrwt>
<pdfrwt beam="1">  1        1 0.18811849E-01 0.14140065E+03</pdfrwt>
<pdfrwt beam="2">  1       -1 0.25394391E-01 0.14140065E+03</pdfrwt>
<totfact> 0.36155277E+03</totfact>
</mgrwt>
</event>
<event>
 6    1  0.6414246E-006  0.2087090E+03  0.7546771E-02  0.1189468E+00
         -1   -1    0    0    0  501 -0.00000000000E+00  0.00000000000E+00  0.16555325733E+02  0.16555325733E+02  0.00000000000E+00 0.  1.
          1   -1    0    0  501    0  0.00000000000E+00 -0.00000000000E+00 -0.11949898799E+04  0.11949898799E+04  0.00000000000E+00 0. -1.
          5    1    1    2  502    0  0.49133970507E+02 -0.71253871157E+02 -0.50921009324E+03  0.51653486840E+03  0.47000000000E+01 0. -1.
         -5    1    1    2    0  503 -0.33431690569E+01  0.11647808420E+03 -0.42545213757E+03  0.44114615745E+03  0.47000000000E+01 0.  1.
          5    1    1    2  503    0 -0.35071830762E+02 -0.23224258897E+02 -0.11146585819E+03  0.11923140130E+03  0.47000000000E+01 0.  1.
         -5    1    1    2    0  502 -0.10718970687E+02 -0.21999954143E+02 -0.13230646516E+03  0.13463277846E+03  0.47000000000E+01 0.  1.
<mgrwt>
<rscale>  0 0.15931855E+03</rscale>
<asrwt>0</asrwt>
<pdfrwt beam="1">  1        1 0.18384470E+00 0.20870904E+03</pdfrwt>
<pdfrwt beam="2">  1       -1 0.25469718E-02 0.20870904E+03</pdfrwt>
<totfact> 0.55035877E+03</totfact>
</mgrwt>
</event>
<event>
 7    1  0.6414246E-006  0.2563652E+03  0.7546771E-02  0.1112946E+00
         -2   -1    0    0    0  501 -0.00000000000E+00  0.00000000000E+00  0.16546367860E+03  0.16546367860E+03  0.00000000000E+00 0.  1.
          2   -1    0    0  501    0  0.00000000000E+00 -0.00000000000E+00 -0.36467725120E+03  0.36467725120E+03  0.00000000000E+00 0. -1.
         25    2    1    2    0    0  0.14272152354E+03  0.13685736421E+03 -0.11170964659E+03  0.25925341503E+03  0.12503566149E+03 0.  0.
          5    1    1    2  502    0 -0.47667859505E+02 -0.61434841177E+02 -0.12191069491E+03  0.14467471124E+03  0.47000000000E+01 0. -1.
         -5    1    1    2    0  502 -0.95053664039E+02 -0.75422523035E+02  0.34406768898E+02  0.12621280353E+03  0.47000000000E+01 0.  1.
          5    1    3    3  503    0  0.64583315108E+02  0.17641992663E+02 -0.94057062122E+02  0.11554681056E+03  0.47000000000E+01 0.  1.
         -5    1    3    3    0  503  0.78138208436E+02  0.11921537155E+03 -0.17652584471E+02  0.14370660447E+03  0.47000000000E+01 0.  1.
<mgrwt>
<rscale>  0 0.25056807E+03</rscale>
<asrwt>0</asrwt>
<pdfrwt beam="1">  1        2 0.56104192E-01 0.25636519E+03</pdfrwt>
<pdfrwt beam="2">  1       -2 0.25455951E-01 0.25636519E+03</pdfrwt>
<totfact> 0.12156915E+03</totfact>
</mgrwt>
</event>
<event>
 7    1  0.6414246E-006  0.1732634E+03  0.7546771E-02  0.1177818E+00
          2   -1    0    0  501    0  0.00000000000E+00  0.00000000000E+00  0.60623983955E+03  0.60623983955E+03  0.00000000000E+00 0. -1.
         -2   -1    0    0    0  501 -0.00000000000E+00 -0.00000000000E+00 -0.49555912959E+02  0.49555912959E+02  0.00000000000E+00 0.  1.
         23    2    1    2    0    0 -0.89875712734E+01  0.11922977309E+03  0.35653204077E+03  0.39106760051E+03  0.10734177586E+03 0.  0.
          5    1    3    3  502    0  0.42114807455E+02  0.58451367506E+02  0.23481072588E+03  0.24565908565E+03  0.47000000000E+01 0. -1.
         -5    1    1    2    0  503 -0.56575832642E+02 -0.65509730208E+02  0.11952474741E+03  0.14765027882E+03  0.47000000000E+01 0. -1.
          5    1    1    2  503    0  0.65563403916E+02 -0.53720042883E+02  0.80627138405E+02  0.11707787318E+03  0.47000000000E+01 0. -1.
         -5    1    3    3    0  502 -0.51102378728E+02  0.60778405585E+02  0.12172131489E+03  0.14540851486E+03  0.47000000000E+01 0.  1.
<mgrwt>
<rscale>  0 0.17002866E+03</rscale>
<asrwt>0</asrwt>
<pdfrwt beam="1">  1        2 0.93267662E-01 0.17326343E+03</pdfrwt>
<pdfrwt beam="2">  1       -2 0.76239871E-02 0.17326343E+03</pdfrwt>
<totfact> 0.49722406E+03</totfact>
</mgrwt>
</event>
<event>
 8    1  0.6414246E-006  0.1349818E+03  0.7546771E-02  0.1225501E+00
          2   -1    0    0  501    0  0.00000000000E+00  0.00000000000E+00  0.16509146976E+03  0.16509146976E+03  0.00000000000E+00 0. -1.
         -2   -1    0    0    0  501 -0.00000000000E+00 -0.00000000000E+00 -0.13830594559E+03  0.13830594559E+03  0.00000000000E+00 0.  1.
         25    2    1    2    0    0 -0.37645605969E+02  0.34634099129E+02  0.94514284682E+02  0.16478176600E+03  0.12491344173E+03 0.  0.
         23    2    1    2    0    0  0.37645605969E+02 -0.34634099129E+02 -0.67728760512E+02  0.13861564935E+03  0.10959197403E+03 0.  0.
          5    1    4    4  502    0 -0.15432878304E+02 -0.13368074045E+02  0.23098718640E+02  0.31185251950E+02  0.47000000000E+01 0. -1.
         -5    1    4    4    0  502  0.53078484273E+02 -0.21266025084E+02 -0.90827479152E+02  0.10743039740E+03  0.47000000000E+01 0.  1.
          5    1    3    3  503    0  0.35787494132E+02  0.44655145878E+02  0.59470727599E+02  0.82666100857E+02  0.47000000000E+01 0.  1.
         -5    1    3    3    0  503 -0.73433100102E+02 -0.10021046749E+02  0.35043557083E+02  0.82115665141E+02  0.47000000000E+01 0.  1.
<mgrwt>
<rscale>  0 0.13132614E+03</rscale>
<asrwt>0</asrwt>
<pdfrwt beam="1">  1        2 0.25398687E-01 0.13498178E+03</pdfrwt>
<pdfrwt beam="2">  1       -2 0.21277838E-01 0.13498178E+03</pdfrwt>
<totfact> 0.38295594E+03</totfact>
</mgrwt>
</event>
<event>
 7    1  0.6414246E-006  0.1549665E+03  0.7546771E-02  0.1199041E+00
         -1   -1    0    0    0  501 -0.00000000000E+00  0.00000000000E+00  0.52603681711E+03  0.52603681711E+03  0.00000000000E+00 0.  1.
          1   -1    0    0  501    0  0.00000000000E+00 -0.00000000000E+00 -0.41702174400E+02  0.41702174400E+02  0.00000000000E+00 0. -1.
         25    2    1    2    0    0  0.21955314175E+02  0.59970273907E+02  0.20791085210E+03  0.25084036777E+03  0.12496198667E+03 0.  0.
          5    1    3    3  502    0 -0.33608783513E+02  0.73548441179E+02  0.14170459510E+03  0.16322133991E+03  0.47000000000E+01 0.  1.
         -5    1    1    2    0  503 -0.79910227665E+02 -0.15034357868E+02  0.14858895015E+03  0.16944746238E+03  0.47000000000E+01 0.  1.
          5    1    1    2  503    0  0.57954913490E+02 -0.44935916040E+02  0.12783484047E+03  0.14745116136E+03  0.47000000000E+01 0. -1.
         -5    1    3    3    0  502  0.55564097689E+02 -0.13578167272E+02  0.66206256994E+02  0.87619027862E+02  0.47000000000E+01 0.  1.
<mgrwt>
<rscale>  0 0.15117156E+03</rscale>
<asrwt>0</asrwt>
<pdfrwt beam="1">  1        1 0.64157195E-02 0.15496653E+03</pdfrwt>
<pdfrwt beam="2">  1       -1 0.80928736E-01 0.15496653E+03</pdfrwt>
<totfact> 0.18352849E+03</totfact>
</mgrwt>
</event>
<event>
 8    1  0.6414246E-006  0.1610323E+03  0.7546771E-02  0.1198289E+00
          1   -1    0    0  501    0  0.00000000000E+00  0.00000000000E+00  0.24336396579E+03  0.24336396579E+03  0.00000000000E+00 0. -1.
         -1   -1    0    0    0  501 -0.00000000000E+00 -0.00000000000E+00 -0.90798527552E+02  0.90798527552E+02  0.00000000000E+00 0.  1.
         25    2    1    2    0    0  0.10023369521E+03  0.16403368547E+02  0.12555840473E+03  0.20419677854E+03  0.12496218313E+03 0.  0.
         23    2    1    2    0    0 -0.10023369521E+03 -0.16403368547E+02  0.27007033508E+02  0.12996571480E+03  0.76458112782E+02 0.  0.
          5    1    3    3  502    0  0.29631591561E+02  0.66020810719E+02  0.73775762129E+02  0.10344917469E+03  0.47000000000E+01 0. -1.
         -5    1    4    4    0  503 -0.55951097536E+02 -0.25163300123E+02 -0.19928953984E+02  0.64675885734E+02  0.47000000000E+01 0.  1.
          5    1    4    4  503    0 -0.44282597673E+02  0.87599315758E+01  0.46935987492E+02  0.65289829068E+02  0.47000000000E+01 0. -1.
         -5    1    3    3    0  502  0.70602103648E+02 -0.49617442172E+02  0.51782642605E+02  0.10074760385E+03  0.47000000000E+01 0. -1.
<mgrwt>
<rscale>  0 0.15179089E+03</rscale>
<asrwt>0</asrwt>
<pdfrwt beam="1">  1        1 0.37440610E-01 0.16103233E+03</pdfrwt>
<pdfrwt beam="2">  1       -1 0.13969004E-01 0.16103233E+03</pdfrwt>
<totfact> 0.39949494E+03</totfact>
</mgrwt>
</event>
<event>
 7    1  0.6414246E-006  0.2174515E+03  0.7546771E-02  0.1146630E+00
          1   -1    0    0  501    0  0.00000000000E+00  0.00000000000E+00  0.32085541222E+03  0.32085541222E+03  0.00000000000E+00 0. -1.
         -1   -1    0    0    0  501 -0.00000000000E+00 -0.00000000000E+00 -0.11920242937E+03  0.11920242937E+03  0.00000000000E+00 0.  1.
         25    2    1    2    0    0 -0.11010759595E+03  0.17724603158E+02  0.12667821321E+03  0.21004400643E+03  0.12503307838E+03 0.  0.
          5    1    3    3  502    0 -0.25366066352E+02  0.17748676613E+02  0.12099592985E+03  0.12498223027E+03  0.47000000000E+01 0.  1.
         -5    1    3    3    0  502 -0.84741529603E+02 -0.24073455089E-01  0.56822833616E+01  0.85061776158E+02  0.47000000000E+01 0.  1.
          5    1    1    2  503    0 -0.36384901105E+02 -0.21022122916E+01  0.73989490926E+02  0.82612439090E+02  0.47000000000E+01 0. -1.
         -5    1    1    2    0  503  0.14649249706E+03 -0.15622390866E+02  0.98527871839E+00  0.14740139608E+03  0.47000000000E+01 0.  1.
<mgrwt>
<rscale>  0 0.20372965E+03</rscale>
<asrwt>0</asrwt>
<pdfrwt beam="1">  1        1 0.49362371E-01 0.21745148E+03</pdfrwt>
<pdfrwt beam="2">  1       -1 0.18338835E-01 0.21745148E+03</pdfrwt>
<totfact> 0.18560014E+03</totfact>
</mgrwt>
</event>
<event>
 7    1  0.6414246E-006  0.1475480E+03  0.7546771E-02  0.1227835E+00
         -2   -1    0    0    0  501 -0.00000000000E+00  0.00000000000E+00  0.16794288468E+03  0.16794288468E+03  0.00000000000E+00 0.  1.
          2   -1    0    0  501    0  0.00000000000E+00 -0.00000000000E+00 -0.10069010457E+03  0.10069010457E+03  0.00000000000E+00 0. -1.
         25    2    1    2    0    0 -0.78060495545E+02  0.85722664146E+01  0.95788415802E+02  0.17591429891E+03  0.12491395135E+03 0.  0.
          5    1    1    2  502    0  0.53522342795E+02  0.11016609793E+02 -0.26480809525E+02  0.60904270316E+02  0.47000000000E+01 0. -1.
         -5    1    1    2    0  502  0.24538152750E+02 -0.19588876208E+02 -0.20548261679E+01  0.31814420034E+02  0.47000000000E+01 0.  1.
          5    1    3    3  503    0 -0.58703520016E+02  0.30974640213E+02 -0.87952336254E+01  0.67119130903E+02  0.47000000000E+01 0. -1.
         -5    1    3    3    0  503 -0.19356975529E+02 -0.22402373799E+02  0.10458364943E+03  0.10879516800E+03  0.47000000000E+01 0.  1.
<mgrwt>
<rscale>  0 0.12974474E+03</rscale>
<asrwt>0</asrwt>
<pdfrwt beam="1">  1        2 0.15490785E-01 0.14754803E+03</pdfrwt>
<pdfrwt beam="2">  1       -2 0.25837367E-01 0.14754803E+03</pdfrwt>
<totfact> 0.48183991E+03</totfact>
</mgrwt>
</event>
<event>
 8    1  0.6414246E-006  0.1290772E+03  0.7546771E-02  0.1250423E+00
         -2   -1    0    0    0  501 -0.00000000000E+00  0.00000000000E+00  0.30790454631E+03  0.30790454631E+03  0.00000000000E+00 0.  1.
          2   -1    0    0  501    0  0.00000000000E+00 -0.00000000000E+00 -0.37452307878E+02  0.37452307878E+02  0.00000000000E+00 0. -1.
         25    2    1    2    0    0 -0.31517063697E+02 -0.58602130752E+01  0.13827225349E+03  0.18915638671E+03  0.12503301622E+03 0.  0.
         23    2    1    2    0    0  0.31517063697E+02  0.58602130752E+01  0.13217998494E+03  0.15620046749E+03  0.76807357862E+02 0.  0.
          5    1    4    4  502    0  0.11412708276E+02  0.37330817403E+02  0.37586168884E+02  0.54393473225E+02  0.47000000000E+01 0. -1.
         -5    1    4    4    0  502  0.20104355421E+02 -0.31470604327E+02  0.94593816059E+02  0.10180699426E+03  0.47000000000E+01 0.  1.
          5    1    3    3  503    0 -0.45228124869E+02  0.23700383496E+02  0.45931406735E+01  0.51482797110E+02  0.47000000000E+01 0.  1.
         -5    1    3    3    0  503  0.13711061172E+02 -0.29560596571E+02  0.13367911282E+03  0.13767358960E+03  0.47000000000E+01 0.  1.
<mgrwt>
<rscale>  0 0.11566596E+03</rscale>
<asrwt>0</asrwt>
<pdfrwt beam="1">  1        2 0.57618937E-02 0.12907720E+03</pdfrwt>
<pdfrwt beam="2">  1       -2 0.47369929E-01 0.12907720E+03</pdfrwt>
<totfact> 0.52644239E+03</totfact>
</mgrwt>
</event>
<event>
 7    1  0.6414246E-006  0.2014845E+03  0.7546771E-02  0.1152259E+00
         -1   -1    0    0    0  501 -0.00000000000E+00  0.00000000000E+00  0.12116202532E+04  0.12116202532E+04  0.00000000000E+00 0.  1.
          1   -1    0    0  501    0  0.00000000000E+00 -0.00000000000E+00 -0.33301438168E+02  0.33301438168E+02  0.00000000000E+00 0. -1.
         25    2    1    2    0    0 -0.13331755157E+03 -0.23603644507E+02  0.73850377247E+03  0.76115181416E+03  0.12503423794E+03 0.  0.
          5    1    1    2  502    0  0.18910702261E+02 -0.42815109115E+02  0.37260765638E+02  0.60010023200E+02  0.47000000000E+01 0. -1.
         -5    1    1    2    0  502  0.11440684931E+03  0.66418753622E+02  0.40255427697E+03  0.42375985405E+03  0.47000000000E+01 0.  1.
          5    1    3    3  503    0 -0.84634960436E+01 -0.53593825869E+02  0.26397795046E+03  0.26953733928E+03  0.47000000000E+01 0. -1.
         -5    1    3    3    0  503 -0.12485405552E+03  0.29990181362E+02  0.47452582201E+03  0.49161447489E+03  0.47000000000E+01 0. -1.
<mgrwt>
<rscale>  0 0.19704212E+03</rscale>
<asrwt>0</asrwt>
<pdfrwt beam="1">  1        1 0.51232991E-02 0.20148455E+03</pdfrwt>
<pdfrwt beam="2">  1       -1 0.18640308E+00 0.20148455E+03</pdfrwt>
<totfact> 0.33273012E+02</totfact>
</mgrwt>
</event>
<event>
 8    1  0.6414246E-006  0.1313950E+03  0.7546771E-02  0.1231111E+00
         -1   -1    0    0    0  501 -0.00000000000E+00  0.00000000000E+00  0.10745183257E+02  0.10745183257E+02  0.00000000000E+00 0. -1.
          1   -1    0    0  501    0  0.00000000000E+00 -0.00000000000E+00 -0.14461186363E+04  0.14461186363E+04  0.00000000000E+00 0.  1.
         25    2    1    2    0    0  0.38409770749E+02  0.13651912216E+02 -0.83017239092E+03  0.84050629989E+03  0.12491179414E+03 0.  0.
         23    2    1    2    0    0 -0.38409770749E+02 -0.13651912216E+02 -0.60520106211E+03  0.61635751965E+03  0.10939187016E+03 0.  0.
          5    1    3    3  502    0  0.13592370059E+02 -0.54111897624E+02 -0.45456460944E+03  0.45799991718E+03  0.47000000000E+01 0.  1.
         -5    1    4    4    0  503 -0.19663327148E+02  0.46776691150E+02 -0.33189511981E+03  0.33578440378E+03  0.47000000000E+01 0.  1.
          5    1    4    4  503    0 -0.18746443600E+02 -0.60428603366E+02 -0.27330594230E+03  0.28057311587E+03  0.47000000000E+01 0. -1.
         -5    1    3    3    0  502  0.24817400689E+02  0.67763809840E+02 -0.37560778148E+03  0.38250638271E+03  0.47000000000E+01 0.  1.
<mgrwt>
<rscale>  0 0.12756724E+03</rscale>
<asrwt>0</asrwt>
<pdfrwt beam="1">  1        1 0.22247977E+00 0.13139498E+03</pdfrwt>
<pdfrwt beam="2">  1       -1 0.16531053E-02 0.13139498E+03</pdfrwt>
<totfact> 0.68760126E+03</totfact>
</mgrwt>
</event>
<event>
 8    1  0.6414246E-006  0.1360897E+03  0.7546771E-02  0.1222431E+00
          2   -1    0    0  501    0  0.00000000000E+00  0.00000000000E+00  0.20627884039E+03  0.20627884039E+03  0.00000000000E+00 0. -1.
         -2   -1    0    0    0  501 -0.00000000000E+00 -0.00000000000E+00 -0.83483410735E+02  0.83483410735E+02  0.00000000000E+00 0.  1.
         25    2    1    2    0    0  0.22083619254E+02 -0.48888654483E+02  0.54432876389E+02  0.14657199237E+03  0.12507047669E+03 0.  0.
         23    2    1    2    0    0 -0.22083619254E+02  0.48888654483E+02  0.68362553270E+02  0.14319025876E+03  0.11380784128E+03 0.  0.
          5    1    4    4  502    0  0.21750030299E+02  0.34785065424E+02  0.84599139377E+02  0.94139093780E+02  0.47000000000E+01 0. -1.
         -5    1    4    4    0  502 -0.43833649552E+02  0.14103589059E+02 -0.16236586106E+02  0.49051164979E+02  0.47000000000E+01 0.  1.
          5    1    3    3  503    0 -0.26336189128E+02 -0.24910884189E+02  0.78988172368E+02  0.87036592206E+02  0.47000000000E+01 0.  1.
         -5    1    3    3    0  503  0.48419808382E+02 -0.23977770294E+02 -0.24555295979E+02  0.59535400163E+02  0.47000000000E+01 0.  1.
<mgrwt>
<rscale>  0 0.13344556E+03</rscale>
<asrwt>0</asrwt>
<pdfrwt beam="1">  1        2 0.31735206E-01 0.13608972E+03</pdfrwt>
<pdfrwt beam="2">  1       -2 0.12843602E-01 0.13608972E+03</pdfrwt>
<totfact> 0.69275452E+03</totfact>
</mgrwt>
</event>
<event>
 6    1  0.6414246E-006  0.1585662E+03  0.7546771E-02  0.1191344E+00
         -1   -1    0    0    0  501 -0.00000000000E+00  0.00000000000E+00  0.93945103834E+02  0.93945103834E+02  0.00000000000E+00 0.  1.
          1   -1    0    0  501    0  0.00000000000E+00 -0.00000000000E+00 -0.92495405358E+03  0.92495405358E+03  0.00000000000E+00 0. -1.
          5    1    1    2  502    0  0.48464318885E+02  0.64928258602E+01 -0.58140342821E+01  0.49465543435E+02  0.47000000000E+01 0. -1.
         -5    1    1    2    0  502 -0.44051256243E+02 -0.98342456454E+02  0.20374678257E+02  0.10976779779E+03  0.47000000000E+01 0.  1.
          5    1    1    2  503    0  0.52632451525E+01  0.12228607213E+03 -0.64776989470E+03  0.65924920301E+03  0.47000000000E+01 0. -1.
         -5    1    1    2    0  503 -0.96763077946E+01 -0.30436441538E+02 -0.19779969902E+03  0.20041661318E+03  0.47000000000E+01 0.  1.
<mgrwt>
<rscale>  0 0.15767719E+03</rscale>
<asrwt>0</asrwt>
<pdfrwt beam="1">  1        1 0.14230063E+00 0.15856622E+03</pdfrwt>
<pdfrwt beam="2">  1       -1 0.14453093E-01 0.15856622E+03</pdfrwt>
<totfact> 0.63034477E+02</totfact>
</mgrwt>
</event>
<event>
 7    1  0.6414246E-006  0.1261542E+03  0.7546771E-02  0.1260425E+00
          1   -1    0    0  501    0  0.00000000000E+00  0.00000000000E+00  0.14022653403E+04  0.14022653403E+04  0.00000000000E+00 0. -1.
         -1   -1    0    0    0  501 -0.00000000000E+00 -0.00000000000E+00 -0.79754625519E+01  0.79754625519E+01  0.00000000000E+00 0.  1.
         23    2    1    2    0    0  0.17024204994E+02  0.62036178621E+01  0.30380461749E+03  0.31248263699E+03  0.70850860119E+02 0.  0.
          5    1    1    2  502    0 -0.59912456009E+01 -0.65339149480E+02  0.58140862529E+03  0.58511808982E+03  0.47000000000E+01 0. -1.
         -5    1    3    3    0  503 -0.10846092629E+02 -0.21805063553E+02  0.52701804181E+02  0.58246619523E+02  0.47000000000E+01 0.  1.
          5    1    3    3  503    0  0.27870297624E+02  0.28008681415E+02  0.25110281331E+03  0.25423601747E+03  0.47000000000E+01 0. -1.
         -5    1    1    2    0  502 -0.11032959393E+02  0.59135531618E+02  0.50907663501E+03  0.51264007608E+03  0.47000000000E+01 0. -1.
<mgrwt>
<rscale>  0 0.11007833E+03</rscale>
<asrwt>0</asrwt>
<pdfrwt beam="1">  1        1 0.21573293E+00 0.12615422E+03</pdfrwt>
<pdfrwt beam="2">  1       -1 0.12269953E-02 0.12615422E+03</pdfrwt>
<totfact> 0.11232447E+04</totfact>
</mgrwt>
</event>
<event>
 8    1  0.6414246E-006  0.1277122E+03  0.7546771E-02  0.1253620E+00
          1   -1    0    0  501    0  0.00000000000E+00  0.00000000000E+00  0.73930849632E+03  0.73930849632E+03  0.00000000000E+00 0. -1.
         -1   -1    0    0    0  501 -0.00000000000E+00 -0.00000000000E+00 -0.14686732373E+02  0.14686732373E+02  0.00000000000E+00 0.  1.
         25    2    1    2    0    0  0.25983858253E+02 -0.14262740278E+01  0.43498367340E+03  0.45334444912E+03  0.12503278877E+03 0.  0.
         23    2    1    2    0    0 -0.25983858253E+02  0.14262740278E+01  0.28963809054E+03  0.30065077957E+03  0.76311680756E+02 0.  0.
          5    1    4    4  502    0 -0.20266714017E+02 -0.32158513325E+02  0.21610600089E+03  0.21947392395E+03  0.47000000000E+01 0. -1.
         -5    1    4    4    0  502 -0.57171442360E+01  0.33584787352E+02  0.73532089653E+02  0.81176855621E+02  0.47000000000E+01 0.  1.
          5    1    3    3  503    0  0.52187119999E+02 -0.11730384802E+01  0.41905628382E+03  0.42232112252E+03  0.47000000000E+01 0.  1.
         -5    1    3    3    0  503 -0.26203261746E+02 -0.25323554763E+00  0.15927389583E+02  0.31023326600E+02  0.47000000000E+01 0.  1.
<mgrwt>
<rscale>  0 0.11383974E+03</rscale>
<asrwt>0</asrwt>
<pdfrwt beam="1">  1        1 0.11373974E+00 0.12771215E+03</pdfrwt>
<pdfrwt beam="2">  1       -1 0.22594979E-02 0.12771215E+03</pdfrwt>
<totfact> 0.14135687E+04</totfact>
</mgrwt>
</event>
<event>
 8    1  0.6414246E-006  0.1362925E+03  0.7546771E-02  0.1222627E+00
         -1   -1    0    0    0  501 -0.00000000000E+00  0.00000000000E+00  0.12435961288E+03  0.12435961288E+03  0.00000000000E+00 0.  1.
          1   -1    0    0  501    0  0.00000000000E+00 -0.00000000000E+00 -0.19985801498E+03  0.19985801498E+03  0.00000000000E+00 0. -1.
         25    2    1    2    0    0 -0.14895022698E+02  0.52450750596E+02 -0.12975927977E+03  0.18818376156E+03  0.12491082616E+03 0.  0.
         23    2    1    2    0    0  0.14895022698E+02 -0.52450750596E+02  0.54260877669E+02  0.13603386630E+03  0.11219637693E+03 0.  0.
          5    1    4    4  502    0 -0.12666838740E+02  0.21066415715E+02  0.51583331933E+02  0.57333871385E+02  0.47000000000E+01 0. -1.
         -5    1    4    4    0  502  0.27561861438E+02 -0.73517166311E+02  0.26775457362E+01  0.78699994914E+02  0.47000000000E+01 0.  1.
          5    1    3    3  503    0 -0.43559448159E+02 -0.26912505447E+02 -0.55822637179E+02  0.75894435205E+02  0.47000000000E+01 0.  1.
         -5    1    3    3    0  503  0.28664425462E+02  0.79363256042E+02 -0.73936642592E+02  0.11228932636E+03  0.47000000000E+01 0.  1.
<mgrwt>
<rscale>  0 0.13330875E+03</rscale>
<asrwt>0</asrwt>
<pdfrwt beam="1">  1        1 0.30747387E-01 0.13629254E+03</pdfrwt>
<pdfrwt beam="2">  1       -1 0.19132248E-01 0.13629254E+03</pdfrwt>
<totfact> 0.30778240E+03</totfact>
</mgrwt>
</event>
<event>
 7    1  0.6414246E-006  0.1661493E+03  0.7546771E-02  0.1191855E+00
          2   -1    0    0  501    0  0.00000000000E+00  0.00000000000E+00  0.16707552944E+03  0.16707552944E+03  0.00000000000E+00 0. -1.
         -2   -1    0    0    0  501 -0.00000000000E+00 -0.00000000000E+00 -0.13481120816E+03  0.13481120816E+03  0.00000000000E+00 0.  1.
         23    2    1    2    0    0 -0.83722634946E+02  0.70733834919E+02  0.37672900077E+01  0.13331136325E+03  0.75795594146E+02 0.  0.
          5    1    3    3  502    0 -0.59508382121E+02  0.76948044280E+01  0.20496455248E+02  0.63581854610E+02  0.47000000000E+01 0. -1.
         -5    1    1    2    0  503  0.10274152160E+03 -0.91441021792E+02  0.24657789148E+02  0.13981193545E+03  0.47000000000E+01 0.  1.
          5    1    1    2  503    0 -0.19018886656E+02  0.20707186873E+02  0.38392421250E+01  0.28763438910E+02  0.47000000000E+01 0.  1.
         -5    1    3    3    0  502 -0.24214252825E+02  0.63039030491E+02 -0.16729165241E+02  0.69729508637E+02  0.47000000000E+01 0.  1.
<mgrwt>
<rscale>  0 0.15723428E+03</rscale>
<asrwt>0</asrwt>
<pdfrwt beam="1">  1        2 0.25703928E-01 0.16614926E+03</pdfrwt>
<pdfrwt beam="2">  1       -2 0.20740186E-01 0.16614926E+03</pdfrwt>
<totfact> 0.39931340E+03</totfact>
</mgrwt>
</event>
<event>
 8    1  0.6414246E-006  0.1275130E+03  0.7546771E-02  0.1257052E+00
          1   -1    0    0  501    0  0.00000000000E+00  0.00000000000E+00  0.35789820887E+03  0.35789820887E+03  0.00000000000E+00 0. -1.
         -1   -1    0    0    0  501 -0.00000000000E+00 -0.00000000000E+00 -0.33173843469E+02  0.33173843469E+02  0.00000000000E+00 0.  1.
         25    2    1    2    0    0 -0.25012607603E+02  0.51920532161E+01  0.26701025772E+03  0.29589532120E+03  0.12492788090E+03 0.  0.
         23    2    1    2    0    0  0.25012607603E+02 -0.51920532161E+01  0.57714107677E+02  0.95176731133E+02  0.71239763956E+02 0.  0.
          5    1    3    3  502    0 -0.16770468811E+02  0.24101991545E+02  0.27243589160E+03  0.27405393566E+03  0.47000000000E+01 0.  1.
         -5    1    4    4    0  503  0.29301035764E+02  0.14953868191E+02 -0.51404511500E+00  0.33234366446E+02  0.47000000000E+01 0.  1.
          5    1    4    4  503    0 -0.42884281607E+01 -0.20145921407E+02  0.58228152792E+02  0.61942364687E+02  0.47000000000E+01 0. -1.
         -5    1    3    3    0  502 -0.82421387921E+01 -0.18909938329E+02 -0.54256338771E+01  0.21841385543E+02  0.47000000000E+01 0.  1.
<mgrwt>
<rscale>  0 0.11192144E+03</rscale>
<asrwt>0</asrwt>
<pdfrwt beam="1">  1        1 0.55061260E-01 0.12751299E+03</pdfrwt>
<pdfrwt beam="2">  1       -1 0.51036685E-02 0.12751299E+03</pdfrwt>
<totfact> 0.11231477E+04</totfact>
</mgrwt>
</event>
<event>
 8    1  0.6414246E-006  0.1533155E+03  0.7546771E-02  0.1208313E+00
         -2   -1    0    0    0  501 -0.00000000000E+00  0.00000000000E+00  0.40519565239E+02  0.40519565239E+02  0.00000000000E+00 0.  1.
          2   -1    0    0  501    0  0.00000000000E+00 -0.00000000000E+00 -0.51112237255E+03  0.51112237255E+03  0.00000000000E+00 0. -1.
         25    2    1    2    0    0  0.53553508736E+02  0.70666513890E+02 -0.35177057096E+03  0.38372932065E+03  0.12507566691E+03 0.  0.
         23    2    1    2    0    0 -0.53553508736E+02 -0.70666513890E+02 -0.11883223636E+03  0.16791261714E+03  0.78815050048E+02 0.  0.
          5    1    4    4  502    0 -0.52270312065E+02 -0.89003677107E+01 -0.75198629451E+02  0.92132111341E+02  0.47000000000E+01 0. -1.
         -5    1    4    4    0  502 -0.12831966703E+01 -0.61766146180E+02 -0.43633606905E+02  0.75780505799E+02  0.47000000000E+01 0.  1.
          5    1    3    3  503    0  0.83041014916E+01  0.18202939035E+02  0.42607776437E+01  0.20989266715E+02  0.47000000000E+01 0. -1.
         -5    1    3    3    0  503  0.45249407244E+02  0.52463574855E+02 -0.35603134860E+03  0.36274005393E+03  0.47000000000E+01 0. -1.
<mgrwt>
<rscale>  0 0.14379378E+03</rscale>
<asrwt>0</asrwt>
<pdfrwt beam="1">  1        2 0.78634208E-01 0.15331555E+03</pdfrwt>
<pdfrwt beam="2">  1       -2 0.62337795E-02 0.15331555E+03</pdfrwt>
<totfact> 0.81602485E+03</totfact>
</mgrwt>
</event>
<event>
 8    1  0.6414246E-006  0.1396791E+03  0.7546771E-02  0.1220310E+00
         -1   -1    0    0    0  501 -0.00000000000E+00  0.00000000000E+00  0.28530212489E+02  0.28530212489E+02  0.00000000000E+00 0.  1.
          1   -1    0    0  501    0  0.00000000000E+00 -0.00000000000E+00 -0.63689682211E+03  0.63689682211E+03  0.00000000000E+00 0. -1.
         25    2    1    2    0    0 -0.57019062873E+02 -0.25470045452E+02 -0.24232382290E+03  0.27969820959E+03  0.12494141249E+03 0.  0.
         23    2    1    2    0    0  0.57019062873E+02  0.25470045452E+02 -0.36604278671E+03  0.38572882501E+03  0.10440070875E+03 0.  0.
          5    1    3    3  502    0 -0.55579709976E+02  0.43354557153E+02 -0.12565256366E+03  0.14415054124E+03  0.47000000000E+01 0. -1.
         -5    1    4    4    0  503  0.29480418911E+02 -0.40199088718E+02 -0.13971337755E+03  0.14841489042E+03  0.47000000000E+01 0.  1.
          5    1    4    4  503    0  0.27538643962E+02  0.65669134170E+02 -0.22632940916E+03  0.23731393458E+03  0.47000000000E+01 0. -1.
         -5    1    3    3    0  502 -0.14393528970E+01 -0.68824602605E+02 -0.11667125924E+03  0.13554766835E+03  0.47000000000E+01 0. -1.
<mgrwt>
<rscale>  0 0.13493640E+03</rscale>
<asrwt>0</asrwt>
<pdfrwt beam="1">  1        1 0.97984130E-01 0.13967911E+03</pdfrwt>
<pdfrwt beam="2">  1       -1 0.43892633E-02 0.13967911E+03</pdfrwt>
<totfact> 0.66730032E+03</totfact>
</mgrwt>
</event>
<event>
 8    1  0.6414246E-006  0.1593558E+03  0.7546771E-02  0.1200697E+00
          2   -1    0    0  501    0  0.00000000000E+00  0.00000000000E+00  0.72350317863E+03  0.72350317863E+03  0.00000000000E+00 0. -1.
         -2   -1    0    0    0  501 -0.00000000000E+00 -0.00000000000E+00 -0.34885799702E+02  0.34885799702E+02  0.00000000000E+00 0.  1.
         25    2    1    2    0    0 -0.72069537036E+02  0.67568431152E+02  0.20867957933E+03  0.26256703262E+03  0.12503906882E+03 0.  0.
         23    2    1    2    0    0  0.72069537036E+02 -0.67568431152E+02  0.47993779959E+03  0.49582194571E+03  0.75760143300E+02 0.  0.
          5    1    4    4  502    0  0.32236011644E+02 -0.76594798112E+02  0.30970001596E+03  0.32069005820E+03  0.47000000000E+01 0. -1.
         -5    1    3    3    0  503 -0.39401057896E+02  0.17402873428E+02  0.19659602072E+03  0.20131415432E+03  0.47000000000E+01 0. -1.
          5    1    3    3  503    0 -0.32668479139E+02  0.50165557723E+02  0.12083558611E+02  0.61252878297E+02  0.47000000000E+01 0. -1.
         -5    1    4    4    0  502  0.39833525391E+02  0.90263669600E+01  0.17023778363E+03  0.17513188751E+03  0.47000000000E+01 0.  1.
<mgrwt>
<rscale>  0 0.14981811E+03</rscale>
<asrwt>0</asrwt>
<pdfrwt beam="1">  1        2 0.11130817E+00 0.15935583E+03</pdfrwt>
<pdfrwt beam="2">  1       -2 0.53670467E-02 0.15935583E+03</pdfrwt>
<totfact> 0.68808008E+03</totfact>
</mgrwt>
</event>
<event>
 8    1  0.6414246E-006  0.2865599E+03  0.7546771E-02  0.1095136E+00
         -2   -1    0    0    0  501 -0.00000000000E+00  0.00000000000E+00  0.10871677538E+03  0.10871677538E+03  0.00000000000E+00 0.  1.
          2   -1    0    0  501    0  0.00000000000E+00 -0.00000000000E+00 -0.80967672825E+03  0.80967672825E+03  0.00000000000E+00 0. -1.
         25    2    1    2    0    0  0.80990029824E+02 -0.24479337870E+03 -0.19310676317E+03  0.34555292382E+03  0.12503366744E+03 0.  0.
         23    2    1    2    0    0 -0.80990029824E+02  0.24479337870E+03 -0.50785318970E+03  0.57284057982E+03  0.61223234276E+02 0.  0.
          5    1    3    3  502    0  0.77456649412E+02 -0.13133947483E+03 -0.17217488216E+03  0.23003449792E+03  0.47000000000E+01 0. -1.
         -5    1    4    4    0  503 -0.35840236722E+02  0.10074904118E+03 -0.27712918671E+03  0.29708175304E+03  0.47000000000E+01 0.  1.
          5    1    4    4  503    0 -0.45149793102E+02  0.14404433751E+03 -0.23072400299E+03  0.27575882677E+03  0.47000000000E+01 0. -1.
         -5    1    3    3    0  502  0.35333804121E+01 -0.11345390386E+03 -0.20931881009E+02  0.11551842590E+03  0.47000000000E+01 0. -1.
<mgrwt>
<rscale>  0 0.28101408E+03</rscale>
<asrwt>0</asrwt>
<pdfrwt beam="1">  1        2 0.12456565E+00 0.28655994E+03</pdfrwt>
<pdfrwt beam="2">  1       -2 0.16725657E-01 0.28655994E+03</pdfrwt>
<totfact> 0.99783149E+02</totfact>
</mgrwt>
</event>
<event>
 7    1  0.6414246E-006  0.1481101E+03  0.7546771E-02  0.1223220E+00
          2   -1    0    0  501    0  0.00000000000E+00  0.00000000000E+00  0.73158551499E+03  0.73158551499E+03  0.00000000000E+00 0. -1.
         -2   -1    0    0    0  501 -0.00000000000E+00 -0.00000000000E+00 -0.24269226569E+02  0.24269226569E+02  0.00000000000E+00 0.  1.
         25    2    1    2    0    0 -0.51522521239E+02  0.60542361630E+02  0.26832785015E+03  0.30649052779E+03  0.12496663840E+03 0.  0.
          5    1    3    3  502    0 -0.29447340724E+02  0.31420695739E+02  0.86019333812E+01  0.44164343698E+02  0.47000000000E+01 0. -1.
         -5    1    3    3    0  502 -0.22075180516E+02  0.29121665891E+02  0.25972591677E+03  0.26232618409E+03  0.47000000000E+01 0. -1.
          5    1    1    2  503    0  0.22758333984E+02 -0.46311369108E+02  0.36389728037E+03  0.36756768810E+03  0.47000000000E+01 0. -1.
         -5    1    1    2    0  503  0.28764187256E+02 -0.14230992522E+02  0.75091157902E+02  0.81796525670E+02  0.47000000000E+01 0.  1.
<mgrwt>
<rscale>  0 0.13289673E+03</rscale>
<asrwt>0</asrwt>
<pdfrwt beam="1">  1        2 0.11255160E+00 0.14811012E+03</pdfrwt>
<pdfrwt beam="2">  1       -2 0.37337277E-02 0.14811012E+03</pdfrwt>
<totfact> 0.11644634E+04</totfact>
</mgrwt>
</event>
<event>
 7    1  0.6414246E-006  0.1700897E+03  0.7546771E-02  0.1180805E+00
          1   -1    0    0  501    0  0.00000000000E+00  0.00000000000E+00  0.18486224654E+04  0.18486224654E+04  0.00000000000E+00 0. -1.
         -1   -1    0    0    0  501 -0.00000000000E+00 -0.00000000000E+00 -0.15069186384E+02  0.15069186384E+02  0.00000000000E+00 0.  1.
         23    2    1    2    0    0  0.73255726297E+02 -0.89295638265E+02  0.10455176624E+04  0.10575088904E+04  0.10898512888E+03 0.  0.
          5    1    3    3  502    0  0.21859904352E+02 -0.10263371243E+03  0.65479019918E+03  0.66316199325E+03  0.47000000000E+01 0. -1.
         -5    1    3    3    0  502  0.51395821945E+02  0.13338074161E+02  0.39072746323E+03  0.39434689711E+03  0.47000000000E+01 0.  1.
          5    1    1    2  503    0 -0.44263243668E+02 -0.22546695537E+02  0.16032285853E+03  0.16790800215E+03  0.47000000000E+01 0. -1.
         -5    1    1    2    0  503 -0.28992482629E+02  0.11184233380E+03  0.62771275806E+03  0.63827475926E+03  0.47000000000E+01 0. -1.
<mgrwt>
<rscale>  0 0.16719454E+03</rscale>
<asrwt>0</asrwt>
<pdfrwt beam="1">  1        1 0.28440328E+00 0.17008972E+03</pdfrwt>
<pdfrwt beam="2">  1       -1 0.23183378E-02 0.17008972E+03</pdfrwt>
<totfact> 0.23350197E+03</totfact>
</mgrwt>
</event>
<event>
 8    1  0.6414246E-006  0.1312137E+03  0.7546771E-02  0.1245395E+00
          1   -1    0    0  501    0  0.00000000000E+00  0.00000000000E+00  0.21938430812E+03  0.21938430812E+03  0.00000000000E+00 0. -1.
         -1   -1    0    0    0  501 -0.00000000000E+00 -0.00000000000E+00 -0.64112379242E+02  0.64112379242E+02  0.00000000000E+00 0.  1.
         25    2    1    2    0    0  0.97197191267E+00  0.40013979419E+02  0.37061768493E+02  0.13634741096E+03  0.12495990763E+03 0.  0.
         23    2    1    2    0    0 -0.97197191267E+00 -0.40013979419E+02  0.11821016038E+03  0.14714927639E+03  0.77956425313E+02 0.  0.
          5    1    4    4  502    0 -0.37463262296E+02 -0.24983837003E+02  0.80519986363E+02  0.92375572188E+02  0.47000000000E+01 0. -1.
         -5    1    3    3    0  503 -0.44517672810E+01 -0.45038534047E+02  0.81260735977E+01  0.46221324658E+02  0.47000000000E+01 0. -1.
          5    1    3    3  503    0  0.54237391937E+01  0.85052513466E+02  0.28935694896E+02  0.90126086306E+02  0.47000000000E+01 0. -1.
         -5    1    4    4    0  502  0.36491290383E+02 -0.15030142416E+02  0.37690174019E+02  0.54773704206E+02  0.47000000000E+01 0.  1.
<mgrwt>
<rscale>  0 0.11861768E+03</rscale>
<asrwt>0</asrwt>
<pdfrwt beam="1">  1        1 0.33751432E-01 0.13121373E+03</pdfrwt>
<pdfrwt beam="2">  1       -1 0.98634430E-02 0.13121373E+03</pdfrwt>
<totfact> 0.76799384E+03</totfact>
</mgrwt>
</event>
<event>
 8    1  0.6414246E-006  0.2394228E+03  0.7546771E-02  0.1121971E+00
         -2   -1    0    0    0  501 -0.00000000000E+00  0.00000000000E+00  0.87764675396E+02  0.87764675396E+02  0.00000000000E+00 0. -1.
          2   -1    0    0  501    0  0.00000000000E+00 -0.00000000000E+00 -0.64482737707E+03  0.64482737707E+03  0.00000000000E+00 0.  1.
         25    2    1    2    0    0 -0.95303937815E+02  0.18055756376E+03 -0.22014592193E+03  0.32524990822E+03  0.12505759258E+03 0.  0.
         23    2    1    2    0    0  0.95303937815E+02 -0.18055756376E+03 -0.33691677974E+03  0.40734214425E+03  0.10358972735E+03 0.  0.
          5    1    4    4  502    0  0.63424315842E+02 -0.11221283706E+03 -0.11461138557E+03  0.17254629623E+03  0.47000000000E+01 0. -1.
         -5    1    4    4    0  502  0.31879621973E+02 -0.68344726698E+02 -0.22230539418E+03  0.23479584802E+03  0.47000000000E+01 0.  1.
          5    1    3    3  503    0 -0.75706398236E+02  0.19283342761E+03 -0.16371910147E+03  0.26408753042E+03  0.47000000000E+01 0.  1.
         -5    1    3    3    0  503 -0.19597539579E+02 -0.12275863852E+02 -0.56426820461E+02  0.61162377801E+02  0.47000000000E+01 0.  1.
<mgrwt>
<rscale>  0 0.23675860E+03</rscale>
<asrwt>0</asrwt>
<pdfrwt beam="1">  1        2 0.99204213E-01 0.23942280E+03</pdfrwt>
<pdfrwt beam="2">  1       -2 0.13502258E-01 0.23942280E+03</pdfrwt>
<totfact> 0.18825795E+03</totfact>
</mgrwt>
</event>
<event>
 7    1  0.6414246E-006  0.1671150E+03  0.7546771E-02  0.1186395E+00
         -2   -1    0    0    0  501 -0.00000000000E+00  0.00000000000E+00  0.18439477172E+02  0.18439477172E+02  0.00000000000E+00 0.  1.
          2   -1    0    0  501    0  0.00000000000E+00 -0.00000000000E+00 -0.16295464877E+04  0.16295464877E+04  0.00000000000E+00 0. -1.
         25    2    1    2    0    0  0.20707449784E+02  0.75953783796E+02 -0.11089119053E+04  0.11187153881E+04  0.12506290540E+03 0.  0.
          5    1    3    3  502    0  0.49973692827E+02  0.98114882554E+02 -0.87031732334E+03  0.87726748113E+03  0.47000000000E+01 0. -1.
         -5    1    1    2    0  503 -0.73733007161E+02  0.57940127714E+00 -0.22025410097E+03  0.23231627374E+03  0.47000000000E+01 0.  1.
          5    1    1    2  503    0  0.53025557377E+02 -0.76533185073E+02 -0.28194100426E+03  0.29695430294E+03  0.47000000000E+01 0. -1.
         -5    1    3    3    0  502 -0.29266243043E+02 -0.22161098758E+02 -0.23859458192E+03  0.24144790701E+03  0.47000000000E+01 0.  1.
<mgrwt>
<rscale>  0 0.16205574E+03</rscale>
<asrwt>0</asrwt>
<pdfrwt beam="1">  1        2 0.25069951E+00 0.16711499E+03</pdfrwt>
<pdfrwt beam="2">  1       -2 0.28368421E-02 0.16711499E+03</pdfrwt>
<totfact> 0.53140814E+03</totfact>
</mgrwt>
</event>
<event>
 8    1  0.6414246E-006  0.2228848E+03  0.7546771E-02  0.1136491E+00
         -1   -1    0    0    0  501 -0.00000000000E+00  0.00000000000E+00  0.22844800832E+02  0.22844800832E+02  0.00000000000E+00 0.  1.
          1   -1    0    0  501    0  0.00000000000E+00 -0.00000000000E+00 -0.21220576696E+04  0.21220576696E+04  0.00000000000E+00 0. -1.
         25    2    1    2    0    0 -0.17372097680E+03 -0.62336957666E+02 -0.79467136730E+03  0.82533643188E+03  0.12495106926E+03 0.  0.
         23    2    1    2    0    0  0.17372097680E+03  0.62336957666E+02 -0.13045415015E+04  0.13195660386E+04  0.73219717154E+02 0.  0.
          5    1    3    3  502    0 -0.15195272622E+03  0.18846196063E+01 -0.48407967108E+03  0.50739373345E+03  0.47000000000E+01 0.  1.
         -5    1    3    3    0  502 -0.21768250578E+02 -0.64221577272E+02 -0.31059169622E+03  0.31794269842E+03  0.47000000000E+01 0.  1.
          5    1    4    4  503    0  0.10238562902E+03  0.28987978380E+02 -0.97091723672E+03  0.97674228458E+03  0.47000000000E+01 0. -1.
         -5    1    4    4    0  503  0.71335347777E+02  0.33348979286E+02 -0.33362426476E+03  0.34282375399E+03  0.47000000000E+01 0.  1.
<mgrwt>
<rscale>  0 0.21653755E+03</rscale>
<asrwt>0</asrwt>
<pdfrwt beam="1">  1        1 0.32647052E+00 0.22288482E+03</pdfrwt>
<pdfrwt beam="2">  1       -1 0.35145835E-02 0.22288482E+03</pdfrwt>
<totfact> 0.84244507E+02</totfact>
</mgrwt>
</event>
<event>
 7    1  0.6414246E-006  0.2157767E+03  0.7546771E-02  0.1137071E+00
          1   -1    0    0  501    0  0.00000000000E+00  0.00000000000E+00  0.22397125460E+03  0.22397125460E+03  0.00000000000E+00 0. -1.
         -1   -1    0    0    0  501 -0.00000000000E+00 -0.00000000000E+00 -0.51970513462E+02  0.51970513462E+02  0.00000000000E+00 0.  1.
         23    2    1    2    0    0  0.33463279380E+02  0.16498494580E+01  0.50132134099E+02  0.98293272339E+02  0.77626177593E+02 0.  0.
          5    1    3    3  502    0  0.49935058810E+02  0.21005604318E+02  0.47698067072E+02  0.72332158225E+02  0.47000000000E+01 0. -1.
         -5    1    3    3    0  502 -0.16471779430E+02 -0.19355754859E+02  0.24340670273E+01  0.25961114114E+02  0.47000000000E+01 0.  1.
          5    1    1    2  503    0  0.33036716448E+02 -0.33070678280E+02  0.18046588018E+02  0.50327564362E+02  0.47000000000E+01 0.  1.
         -5    1    1    2    0  503 -0.66499995828E+02  0.31420828822E+02  0.10382201903E+03  0.12732093136E+03  0.47000000000E+01 0.  1.
<mgrwt>
<rscale>  0 0.21577675E+03</rscale>
<asrwt>0</asrwt>
<pdfrwt beam="1">  1        1 0.34457115E-01 0.21577675E+03</pdfrwt>
<pdfrwt beam="2">  1       -1 0.79954638E-02 0.21577675E+03</pdfrwt>
<totfact> 0.10669513E+04</totfact>
</mgrwt>
</event>
<event>
 8    1  0.6414246E-006  0.1715415E+03  0.7546771E-02  0.1186671E+00
         -2   -1    0    0    0  501 -0.00000000000E+00  0.00000000000E+00  0.51751312616E+02  0.51751312616E+02  0.00000000000E+00 0. -1.
          2   -1    0    0  501    0  0.00000000000E+00 -0.00000000000E+00 -0.47528264404E+03  0.47528264404E+03  0.00000000000E+00 0.  1.
         25    2    1    2    0    0 -0.11258449440E+03 -0.33860590712E+02 -0.28773521515E+03  0.33498963322E+03  0.12491874298E+03 0.  0.
         23    2    1    2    0    0  0.11258449440E+03  0.33860590712E+02 -0.13579611627E+03  0.19204432343E+03  0.67960495767E+02 0.  0.
          5    1    4    4  502    0  0.95694070704E+02  0.72693184646E+01 -0.69791462654E+02  0.11875662684E+03  0.47000000000E+01 0. -1.
         -5    1    3    3    0  503 -0.95107196958E+02  0.71392899546E+01 -0.86563583485E+02  0.12888635444E+03  0.47000000000E+01 0.  1.
          5    1    3    3  503    0 -0.17477297439E+02 -0.40999880666E+02 -0.20117163166E+03  0.20610327879E+03  0.47000000000E+01 0.  1.
         -5    1    4    4    0  502  0.16890423693E+02  0.26591272247E+02 -0.66004653618E+02  0.73287696590E+02  0.47000000000E+01 0.  1.
<mgrwt>
<rscale>  0 0.16180740E+03</rscale>
<asrwt>0</asrwt>
<pdfrwt beam="1">  1        2 0.73120406E-01 0.17154154E+03</pdfrwt>
<pdfrwt beam="2">  1       -2 0.79617405E-02 0.17154154E+03</pdfrwt>
<totfact> 0.61070714E+03</totfact>
</mgrwt>
</event>
<event>
 7    1  0.6414246E-006  0.1328239E+03  0.7546771E-02  0.1225671E+00
          1   -1    0    0  501    0  0.00000000000E+00  0.00000000000E+00  0.35596438892E+03  0.35596438892E+03  0.00000000000E+00 0. -1.
         -1   -1    0    0    0  501 -0.00000000000E+00 -0.00000000000E+00 -0.48138606908E+02  0.48138606908E+02  0.00000000000E+00 0.  1.
         23    2    1    2    0    0  0.40061022446E+02  0.21364439160E+02  0.17805665328E+03  0.21840909888E+03  0.11805523247E+03 0.  0.
          5    1    3    3  502    0 -0.40750962317E+02  0.49311828255E+01  0.81256914271E+02  0.91157740267E+02  0.47000000000E+01 0. -1.
         -5    1    3    3    0  502  0.80811984762E+02  0.16433256335E+02  0.96799739013E+02  0.12725135861E+03  0.47000000000E+01 0.  1.
          5    1    1    2  503    0 -0.23747544749E+02 -0.73776750499E+02  0.72646866073E+02  0.10633255356E+03  0.47000000000E+01 0.  1.
         -5    1    1    2    0  503 -0.16313477696E+02  0.52412311339E+02  0.57122262655E+02  0.79361343394E+02  0.47000000000E+01 0.  1.
<mgrwt>
<rscale>  0 0.13120993E+03</rscale>
<asrwt>0</asrwt>
<pdfrwt beam="1">  1        1 0.54763751E-01 0.13282393E+03</pdfrwt>
<pdfrwt beam="2">  1       -1 0.74059397E-02 0.13282393E+03</pdfrwt>
<totfact> 0.65129529E+03</totfact>
</mgrwt>
</event>
<event>
 8    1  0.6414246E-006  0.1736134E+03  0.7546771E-02  0.1177854E+00
          1   -1    0    0  501    0  0.00000000000E+00  0.00000000000E+00  0.90100894269E+03  0.90100894269E+03  0.00000000000E+00 0. -1.
         -1   -1    0    0    0  501 -0.00000000000E+00 -0.00000000000E+00 -0.36540804250E+02  0.36540804250E+02  0.00000000000E+00 0.  1.
         25    2    1    2    0    0  0.10898106996E+03 -0.51224702073E+02  0.26198194995E+03  0.31428675492E+03  0.12506309811E+03 0.  0.
         23    2    1    2    0    0 -0.10898106996E+03  0.51224702073E+02  0.60248618850E+03  0.62326299202E+03  0.10472013266E+03 0.  0.
          5    1    4    4  502    0 -0.36751063537E+02  0.66852484461E+02  0.40920573346E+03  0.41628273763E+03  0.47000000000E+01 0. -1.
         -5    1    4    4    0  502 -0.72230006426E+02 -0.15627782388E+02  0.19328045504E+03  0.20698025440E+03  0.47000000000E+01 0.  1.
          5    1    3    3  503    0  0.25543645129E+02  0.23295459735E+02  0.15689577494E+03  0.16072812587E+03  0.47000000000E+01 0. -1.
         -5    1    3    3    0  503  0.83437424833E+02 -0.74520161808E+02  0.10508617500E+03  0.15355862905E+03  0.47000000000E+01 0. -1.
<mgrwt>
<rscale>  0 0.16999456E+03</rscale>
<asrwt>0</asrwt>
<pdfrwt beam="1">  1        1 0.13861674E+00 0.17361343E+03</pdfrwt>
<pdfrwt beam="2">  1       -1 0.56216629E-02 0.17361343E+03</pdfrwt>
<totfact> 0.27835201E+03</totfact>
</mgrwt>
</event>
<event>
 8    1  0.6414246E-006  0.1312741E+03  0.7546771E-02  0.1227156E+00
          2   -1    0    0  501    0  0.00000000000E+00  0.00000000000E+00  0.67530212931E+03  0.67530212931E+03  0.00000000000E+00 0. -1.
         -2   -1    0    0    0  501 -0.00000000000E+00 -0.00000000000E+00 -0.26988999806E+02  0.26988999806E+02  0.00000000000E+00 0.  1.
         25    2    1    2    0    0  0.37802692043E+02 -0.12938557016E+02  0.43122244167E+03  0.45076124056E+03  0.12504579964E+03 0.  0.
         23    2    1    2    0    0 -0.37802692043E+02  0.12938557016E+02  0.21709068783E+03  0.25152988856E+03  0.12059215692E+03 0.  0.
          5    1    3    3  502    0  0.24206193092E+02 -0.63872184139E+02  0.15403147743E+03  0.16856269377E+03  0.47000000000E+01 0. -1.
         -5    1    4    4    0  503 -0.58015201941E+02  0.18405412065E+02  0.39641475458E+02  0.72787769756E+02  0.47000000000E+01 0.  1.
          5    1    4    4  503    0  0.20212509898E+02 -0.54668550493E+01  0.17744921238E+03  0.17874211880E+03  0.47000000000E+01 0. -1.
         -5    1    3    3    0  502  0.13596498951E+02  0.50933627122E+02  0.27719096424E+03  0.28219854679E+03  0.47000000000E+01 0. -1.
<mgrwt>
<rscale>  0 0.13020232E+03</rscale>
<asrwt>0</asrwt>
<pdfrwt beam="1">  1        2 0.10389262E+00 0.13127415E+03</pdfrwt>
<pdfrwt beam="2">  1       -2 0.41521543E-02 0.13127415E+03</pdfrwt>
<totfact> 0.10852908E+04</totfact>
</mgrwt>
</event>
<event>
 7    1  0.6414246E-006  0.1310309E+03  0.7546771E-02  0.1246158E+00
          1   -1    0    0  501    0  0.00000000000E+00  0.00000000000E+00  0.14934926427E+03  0.14934926427E+03  0.00000000000E+00 0. -1.
         -1   -1    0    0    0  501 -0.00000000000E+00 -0.00000000000E+00 -0.90267950591E+02  0.90267950591E+02  0.00000000000E+00 0.  1.
         23    2    1    2    0    0 -0.37706214074E+02  0.12183974735E+02  0.65195529201E+02  0.10844373302E+03  0.77067362628E+02 0.  0.
          5    1    3    3  502    0 -0.90178552713E+01 -0.26374523793E+02  0.50662489574E+02  0.58014783192E+02  0.47000000000E+01 0. -1.
         -5    1    3    3    0  502 -0.28688358802E+02  0.38558498528E+02  0.14533039627E+02  0.50428949824E+02  0.47000000000E+01 0.  1.
          5    1    1    2  503    0  0.33998548704E+02 -0.54203453423E+02  0.34142110844E+02  0.72675232437E+02  0.47000000000E+01 0. -1.
         -5    1    1    2    0  503  0.37076653699E+01  0.42019478688E+02 -0.40256326364E+02  0.58498249410E+02  0.47000000000E+01 0. -1.
<mgrwt>
<rscale>  0 0.11816322E+03</rscale>
<asrwt>0</asrwt>
<pdfrwt beam="1">  1        1 0.22976810E-01 0.13103091E+03</pdfrwt>
<pdfrwt beam="2">  1       -1 0.13887377E-01 0.13103091E+03</pdfrwt>
<totfact> 0.73262218E+03</totfact>
</mgrwt>
</event>
<event>
 8    1  0.6414246E-006  0.1938249E+03  0.7546771E-02  0.1161448E+00
         -1   -1    0    0    0  501 -0.00000000000E+00  0.00000000000E+00  0.48807661345E+02  0.48807661345E+02  0.00000000000E+00 0.  1.
          1   -1    0    0  501    0  0.00000000000E+00 -0.00000000000E+00 -0.68925471072E+03  0.68925471072E+03  0.00000000000E+00 0. -1.
         25    2    1    2    0    0 -0.85092827206E+02 -0.12129290634E+03 -0.40987089158E+03  0.45338973910E+03  0.12496139156E+03 0.  0.
         23    2    1    2    0    0  0.85092827206E+02  0.12129290634E+03 -0.23057615779E+03  0.28467263297E+03  0.76944038417E+02 0.  0.
          5    1    4    4  502    0  0.77559907203E+02  0.73810494063E+02 -0.20167314712E+03  0.22838055195E+03  0.47000000000E+01 0. -1.
         -5    1    4    4    0  502  0.75329200031E+01  0.47482412281E+02 -0.28903010676E+02  0.56292081023E+02  0.47000000000E+01 0.  1.
          5    1    3    3  503    0 -0.87259038944E+02 -0.87750876830E+02 -0.39896230804E+03  0.41774079224E+03  0.47000000000E+01 0. -1.
         -5    1    3    3    0  503  0.21662117376E+01 -0.33542029514E+02 -0.10908583540E+02  0.35648946858E+02  0.47000000000E+01 0. -1.
<mgrwt>
<rscale>  0 0.18672630E+03</rscale>
<asrwt>0</asrwt>
<pdfrwt beam="1">  1        1 0.10603918E+00 0.19382494E+03</pdfrwt>
<pdfrwt beam="2">  1       -1 0.75088718E-02 0.19382494E+03</pdfrwt>
<totfact> 0.27101135E+03</totfact>
</mgrwt>
</event>
<event>
 7    1  0.6414246E-006  0.2026670E+03  0.7546771E-02  0.1149136E+00
          3   -1    0    0  501    0  0.00000000000E+00  0.00000000000E+00  0.79955531038E+02  0.79955531038E+02  0.00000000000E+00 0. -1.
         -3   -1    0    0    0  501 -0.00000000000E+00 -0.00000000000E+00 -0.66334787964E+03  0.66334787964E+03  0.00000000000E+00 0.  1.
         25    2    1    2    0    0 -0.14958255423E+03 -0.22677442403E+01 -0.99953440244E+02  0.21910201999E+03  0.12503968071E+03 0.  0.
          5    1    1    2  502    0  0.58286245692E+02 -0.65293457175E+02 -0.24076449880E+03  0.25622286367E+03  0.47000000000E+01 0. -1.
         -5    1    1    2    0  502  0.91296308534E+02  0.67561201416E+02 -0.24267440956E+03  0.26797852702E+03  0.47000000000E+01 0.  1.
          5    1    3    3  503    0 -0.72332071181E+02 -0.58024725970E+02 -0.77899980204E+02  0.12119939877E+03  0.47000000000E+01 0. -1.
         -5    1    3    3    0  503 -0.77250483045E+02  0.55756981730E+02 -0.22053460041E+02  0.97902621222E+02  0.47000000000E+01 0. -1.
<mgrwt>
<rscale>  0 0.20071586E+03</rscale>
<asrwt>0</asrwt>
<pdfrwt beam="1">  1        3 0.12300851E-01 0.20266702E+03</pdfrwt>
<pdfrwt beam="2">  1       -3 0.10205352E+00 0.20266702E+03</pdfrwt>
<totfact> 0.11002278E+02</totfact>
</mgrwt>
</event>
<event>
 6    1  0.6414246E-006  0.1472734E+03  0.7546771E-02  0.1229695E+00
         -1   -1    0    0    0  501 -0.00000000000E+00  0.00000000000E+00  0.17846371650E+03  0.17846371650E+03  0.00000000000E+00 0.  1.
          1   -1    0    0  501    0  0.00000000000E+00 -0.00000000000E+00 -0.79836060941E+02  0.79836060941E+02  0.00000000000E+00 0. -1.
          5    1    1    2  502    0  0.69633510037E+02 -0.41629372511E+02  0.13792809810E+02  0.82426706705E+02  0.47000000000E+01 0. -1.
         -5    1    1    2    0  502 -0.37808754096E+02 -0.29743219518E+02  0.75979967271E+02  0.90051132253E+02  0.47000000000E+01 0.  1.
          5    1    1    2  503    0 -0.17396820514E+02  0.39934440119E+02 -0.11652683703E+02  0.45335239154E+02  0.47000000000E+01 0. -1.
         -5    1    1    2    0  503 -0.14427935427E+02  0.31438151909E+02  0.20507562185E+02  0.40486699334E+02  0.47000000000E+01 0.  1.
<mgrwt>
<rscale>  0 0.12850256E+03</rscale>
<asrwt>0</asrwt>
<pdfrwt beam="1">  1        1 0.12282471E-01 0.14727340E+03</pdfrwt>
<pdfrwt beam="2">  1       -1 0.27455956E-01 0.14727340E+03</pdfrwt>
<totfact> 0.55330481E+03</totfact>
</mgrwt>
</event>
<event>
 8    1  0.6414246E-006  0.1524361E+03  0.7546771E-02  0.1202507E+00
         -2   -1    0    0    0  501 -0.00000000000E+00  0.00000000000E+00  0.22822877772E+03  0.22822877772E+03  0.00000000000E+00 0.  1.
          2   -1    0    0  501    0  0.00000000000E+00 -0.00000000000E+00 -0.10859859669E+03  0.10859859669E+03  0.00000000000E+00 0. -1.
         25    2    1    2    0    0 -0.83216792926E+02 -0.25897808934E+02  0.12906963238E+03  0.19973915501E+03  0.12506409921E+03 0.  0.
         23    2    1    2    0    0  0.83216792926E+02  0.25897808934E+02 -0.94394513528E+01  0.13708821940E+03  0.10539613619E+03 0.  0.
          5    1    4    4  502    0  0.26044327997E+02  0.18777453770E+02 -0.54747855936E+02  0.63642104934E+02  0.47000000000E+01 0. -1.
         -5    1    3    3    0  503 -0.20418652390E+02  0.47736851706E+02  0.25922109879E+02  0.58221767036E+02  0.47000000000E+01 0. -1.
          5    1    3    3  503    0 -0.62798140536E+02 -0.73634660640E+02  0.10314752250E+03  0.14151738798E+03  0.47000000000E+01 0. -1.
         -5    1    4    4    0  502  0.57172464929E+02  0.71203551641E+01  0.45308404583E+02  0.73446114462E+02  0.47000000000E+01 0.  1.
<mgrwt>
<rscale>  0 0.14835694E+03</rscale>
<asrwt>0</asrwt>
<pdfrwt beam="1">  1        2 0.16707477E-01 0.15243609E+03</pdfrwt>
<pdfrwt beam="2">  1       -2 0.35112119E-01 0.15243609E+03</pdfrwt>
<totfact> 0.25421222E+03</totfact>
</mgrwt>
</event>
<event>
 8    1  0.6414246E-006  0.1549570E+03  0.7546771E-02  0.1199027E+00
          3   -1    0    0  501    0  0.00000000000E+00  0.00000000000E+00  0.36743538728E+03  0.36743538728E+03  0.00000000000E+00 0. -1.
         -3   -1    0    0    0  501 -0.00000000000E+00 -0.00000000000E+00 -0.60559653794E+02  0.60559653794E+02  0.00000000000E+00 0.  1.
         25    2    1    2    0    0 -0.69522155685E+02 -0.59749776811E+02  0.19099096712E+03  0.24594559638E+03  0.12493326578E+03 0.  0.
         23    2    1    2    0    0  0.69522155685E+02  0.59749776811E+02  0.11588476637E+03  0.18204944469E+03  0.10634545254E+03 0.  0.
          5    1    4    4  502    0  0.18542847259E+02  0.31719306213E+02 -0.14043060525E+02  0.39613749128E+02  0.47000000000E+01 0. -1.
         -5    1    3    3    0  503 -0.31366067968E+01  0.26332829289E+02  0.93740787869E+00  0.26948560891E+02  0.47000000000E+01 0.  1.
          5    1    3    3  503    0 -0.66385548889E+02 -0.86082606100E+02  0.19005355924E+03  0.21899703549E+03  0.47000000000E+01 0.  1.
         -5    1    4    4    0  502  0.50979308427E+02  0.28030470598E+02  0.12992782690E+03  0.14243569557E+03  0.47000000000E+01 0.  1.
<mgrwt>
<rscale>  0 0.15118260E+03</rscale>
<asrwt>0</asrwt>
<pdfrwt beam="1">  1        3 0.56528520E-01 0.15495705E+03</pdfrwt>
<pdfrwt beam="2">  1       -3 0.93168700E-02 0.15495705E+03</pdfrwt>
<totfact> 0.61019674E+02</totfact>
</mgrwt>
</event>
<event>
 6    1  0.6414246E-006  0.1898341E+03  0.7546771E-02  0.1159575E+00
          2   -1    0    0  501    0  0.00000000000E+00  0.00000000000E+00  0.82635171980E+03  0.82635171980E+03  0.00000000000E+00 0. -1.
         -2   -1    0    0    0  501 -0.00000000000E+00 -0.00000000000E+00 -0.47979461549E+02  0.47979461549E+02  0.00000000000E+00 0.  1.
          5    1    1    2  502    0  0.53873100755E+02  0.35358971556E+02  0.14719353107E+03  0.16075009625E+03  0.47000000000E+01 0. -1.
         -5    1    1    2    0  503  0.21821161080E+02 -0.54890330454E+02  0.10780433414E+02  0.60228059846E+02  0.47000000000E+01 0. -1.
          5    1    1    2  503    0 -0.48815427294E+01 -0.81112689016E+02  0.22877096565E+03  0.24281956780E+03  0.47000000000E+01 0. -1.
         -5    1    1    2    0  502 -0.70812719106E+02  0.10064404791E+03  0.39162732811E+03  0.41053345746E+03  0.47000000000E+01 0.  1.
<mgrwt>
<rscale>  0 0.18877045E+03</rscale>
<asrwt>0</asrwt>
<pdfrwt beam="1">  1        2 0.12713102E+00 0.18983409E+03</pdfrwt>
<pdfrwt beam="2">  1       -2 0.73814563E-02 0.18983409E+03</pdfrwt>
<totfact> 0.36071023E+03</totfact>
</mgrwt>
</event>
<event>
 8    1  0.6414246E-006  0.2945714E+03  0.7546771E-02  0.1090340E+00
         -1   -1    0    0    0  501 -0.00000000000E+00  0.00000000000E+00  0.95574596988E+02  0.95574596988E+02  0.00000000000E+00 0.  1.
          1   -1    0    0  501    0  0.00000000000E+00 -0.00000000000E+00 -0.86043276220E+03  0.86043276220E+03  0.00000000000E+00 0. -1.
         25    2    1    2    0    0  0.17010952348E+03 -0.20539729790E+03 -0.43592273374E+03  0.52611877556E+03  0.12508811392E+03 0.  0.
         23    2    1    2    0    0 -0.17010952348E+03  0.20539729790E+03 -0.32893543148E+03  0.42988858364E+03  0.74029563651E+02 0.  0.
          5    1    4    4  502    0 -0.61921797849E+02  0.98445944794E+02 -0.19525461223E+03  0.22731556632E+03  0.47000000000E+01 0. -1.
         -5    1    3    3    0  503  0.12591857502E+02 -0.83153340525E+02 -0.70629099277E+02  0.10992539552E+03  0.47000000000E+01 0. -1.
          5    1    3    3  503    0  0.15751766598E+03 -0.12224395737E+03 -0.36529363446E+03  0.41619338003E+03  0.47000000000E+01 0. -1.
         -5    1    4    4    0  502 -0.10818772563E+03  0.10695135310E+03 -0.13368081925E+03  0.20257301731E+03  0.47000000000E+01 0.  1.
<mgrwt>
<rscale>  0 0.29001843E+03</rscale>
<asrwt>0</asrwt>
<pdfrwt beam="1">  1        1 0.13237427E+00 0.29457144E+03</pdfrwt>
<pdfrwt beam="2">  1       -1 0.14703784E-01 0.29457144E+03</pdfrwt>
<totfact> 0.68311685E+02</totfact>
</mgrwt>
</event>
<event>
 8    1  0.6414246E-006  0.1342925E+03  0.7546771E-02  0.1228255E+00
         -3   -1    0    0    0  501 -0.00000000000E+00  0.00000000000E+00  0.21596553974E+03  0.21596553974E+03  0.00000000000E+00 0.  1.
          3   -1    0    0  501    0  0.00000000000E+00 -0.00000000000E+00 -0.74690608777E+02  0.74690608777E+02  0.00000000000E+00 0. -1.
         25    2    1    2    0    0 -0.44121127023E+02 -0.21275940487E+02  0.50907672487E+02  0.14361782439E+03  0.12504058890E+03 0.  0.
         23    2    1    2    0    0  0.44121127023E+02  0.21275940487E+02  0.90367258473E+02  0.14703832412E+03  0.10514127573E+03 0.  0.
          5    1    4    4  502    0 -0.33342344600E+02 -0.23627440427E+01  0.17643204502E+02  0.38087624866E+02  0.47000000000E+01 0. -1.
         -5    1    4    4    0  502  0.77463471623E+02  0.23638684530E+02  0.72724053971E+02  0.10895069926E+03  0.47000000000E+01 0.  1.
          5    1    3    3  503    0 -0.15438805373E+02  0.52139140334E+02  0.28330442485E+02  0.61494313864E+02  0.47000000000E+01 0.  1.
         -5    1    3    3    0  503 -0.28682321650E+02 -0.73415080821E+02  0.22577230002E+02  0.82123510530E+02  0.47000000000E+01 0.  1.
<mgrwt>
<rscale>  0 0.12946294E+03</rscale>
<asrwt>0</asrwt>
<pdfrwt beam="1">  1        3 0.11490863E-01 0.13429255E+03</pdfrwt>
<pdfrwt beam="2">  1       -3 0.33225467E-01 0.13429255E+03</pdfrwt>
<totfact> 0.11908430E+03</totfact>
</mgrwt>
</event>
<event>
 7    1  0.6414246E-006  0.1568057E+03  0.7546771E-02  0.1208804E+00
          2   -1    0    0  501    0  0.00000000000E+00  0.00000000000E+00  0.66976079896E+02  0.66976079896E+02  0.00000000000E+00 0. -1.
         -2   -1    0    0    0  501 -0.00000000000E+00 -0.00000000000E+00 -0.26600499911E+03  0.26600499911E+03  0.00000000000E+00 0.  1.
         23    2    1    2    0    0 -0.84123520299E+02 -0.23047840390E+02 -0.72791842507E+02  0.13167574603E+03  0.66572367709E+02 0.  0.
          5    1    3    3  502    0 -0.30352434642E+02  0.96359420193E+01 -0.58812212810E+02  0.67045417762E+02  0.47000000000E+01 0. -1.
         -5    1    1    2    0  503  0.71072338144E+02 -0.26254327288E+01 -0.14842166431E+03  0.16464887058E+03  0.47000000000E+01 0.  1.
          5    1    1    2  503    0  0.13051182154E+02  0.25673273119E+02  0.22184587605E+02  0.36656462397E+02  0.47000000000E+01 0. -1.
         -5    1    3    3    0  502 -0.53771085656E+02 -0.32683782410E+02 -0.13979629697E+02  0.64630328266E+02  0.47000000000E+01 0.  1.
<mgrwt>
<rscale>  0 0.14341649E+03</rscale>
<asrwt>0</asrwt>
<pdfrwt beam="1">  1        2 0.10304012E-01 0.15680573E+03</pdfrwt>
<pdfrwt beam="2">  1       -2 0.40923847E-01 0.15680573E+03</pdfrwt>
<totfact> 0.34002656E+03</totfact>
</mgrwt>
</event>
<event>
 8    1  0.6414246E-006  0.1377302E+03  0.7546771E-02  0.1223049E+00
          3   -1    0    0  501    0  0.00000000000E+00  0.00000000000E+00  0.23923642674E+02  0.23923642674E+02  0.00000000000E+00 0. -1.
         -3   -1    0    0    0  501 -0.00000000000E+00 -0.00000000000E+00 -0.78343777055E+03  0.78343777055E+03  0.00000000000E+00 0.  1.
         25    2    1    2    0    0  0.29640852206E+02 -0.49529776303E+02 -0.26637490250E+03  0.29987531797E+03  0.12505134461E+03 0.  0.
         23    2    1    2    0    0 -0.29640852206E+02  0.49529776303E+02 -0.49313922538E+03  0.50748609525E+03  0.10499553517E+03 0.  0.
          5    1    3    3  502    0  0.66330677543E+02 -0.65364127944E+02 -0.21697950759E+03  0.23616609562E+03  0.47000000000E+01 0.  1.
         -5    1    3    3    0  502 -0.36689825336E+02  0.15834351641E+02 -0.49395394906E+02  0.63709222355E+02  0.47000000000E+01 0.  1.
          5    1    4    4  503    0 -0.65003906632E+02  0.26696680665E+02 -0.21769420374E+03  0.22880357729E+03  0.47000000000E+01 0. -1.
         -5    1    4    4    0  503  0.35363054425E+02  0.22833095638E+02 -0.27544502164E+03  0.27868251797E+03  0.47000000000E+01 0.  1.
<mgrwt>
<rscale>  0 0.13301498E+03</rscale>
<asrwt>0</asrwt>
<pdfrwt beam="1">  1        3 0.36805612E-02 0.13773024E+03</pdfrwt>
<pdfrwt beam="2">  1       -3 0.12052886E+00 0.13773024E+03</pdfrwt>
<totfact> 0.50397225E+02</totfact>
</mgrwt>
</event>
<event>
 7    1  0.6414246E-006  0.1674270E+03  0.7546771E-02  0.1190610E+00
          1   -1    0    0  501    0  0.00000000000E+00  0.00000000000E+00  0.30129395835E+03  0.30129395835E+03  0.00000000000E+00 0. -1.
         -1   -1    0    0    0  501 -0.00000000000E+00 -0.00000000000E+00 -0.76438963448E+02  0.76438963448E+02  0.00000000000E+00 0.  1.
         23    2    1    2    0    0 -0.97083666709E+02 -0.53688543445E+02  0.12281893491E+03  0.18166367159E+03  0.74896600492E+02 0.  0.
          5    1    3    3  502    0 -0.20560970891E+02  0.18431027319E+02  0.19178655863E+02  0.33946533442E+02  0.47000000000E+01 0. -1.
         -5    1    3    3    0  502 -0.76522695818E+02 -0.72119570764E+02  0.10364027904E+03  0.14771713815E+03  0.47000000000E+01 0.  1.
          5    1    1    2  503    0  0.97479109119E+02 -0.38746222704E+01  0.26911039760E+02  0.10130885190E+03  0.47000000000E+01 0. -1.
         -5    1    1    2    0  503 -0.39544240928E+00  0.57563165715E+02  0.75125020232E+02  0.94760398304E+02  0.47000000000E+01 0. -1.
<mgrwt>
<rscale>  0 0.15831711E+03</rscale>
<asrwt>0</asrwt>
<pdfrwt beam="1">  1        1 0.46352916E-01 0.16742698E+03</pdfrwt>
<pdfrwt beam="2">  1       -1 0.11759841E-01 0.16742698E+03</pdfrwt>
<totfact> 0.40124048E+03</totfact>
</mgrwt>
</event>
<event>
 7    1  0.6414246E-006  0.1478059E+03  0.7546771E-02  0.1216589E+00
         -1   -1    0    0    0  501 -0.00000000000E+00  0.00000000000E+00  0.20699303760E+03  0.20699303760E+03  0.00000000000E+00 0.  1.
          1   -1    0    0  501    0  0.00000000000E+00 -0.00000000000E+00 -0.94720813621E+02  0.94720813621E+02  0.00000000000E+00 0. -1.
         23    2    1    2    0    0  0.70205698367E+02 -0.35383610629E+02 -0.77639238637E+01  0.11130574025E+03  0.78408222237E+02 0.  0.
          5    1    1    2  502    0 -0.46996098416E+02  0.23903041870E+02 -0.13234429305E+02  0.54563988088E+02  0.47000000000E+01 0.  1.
         -5    1    3    3    0  503  0.39457939313E+02 -0.19555844967E+01  0.31765815436E+02  0.50910807457E+02  0.47000000000E+01 0.  1.
          5    1    3    3  503    0  0.30747759054E+02 -0.33428026133E+02 -0.39529739300E+02  0.60394932793E+02  0.47000000000E+01 0. -1.
         -5    1    1    2    0  502 -0.23209599951E+02  0.11480568759E+02  0.13327057714E+03  0.13584412288E+03  0.47000000000E+01 0.  1.
<mgrwt>
<rscale>  0 0.13760473E+03</rscale>
<asrwt>0</asrwt>
<pdfrwt beam="1">  1        1 0.14572433E-01 0.14780586E+03</pdfrwt>
<pdfrwt beam="2">  1       -1 0.31845083E-01 0.14780586E+03</pdfrwt>
<totfact> 0.34499971E+03</totfact>
</mgrwt>
</event>
<event>
 7    1  0.6414246E-006  0.1457527E+03  0.7546771E-02  0.1220640E+00
          1   -1    0    0  501    0  0.00000000000E+00  0.00000000000E+00  0.61314109222E+02  0.61314109222E+02  0.00000000000E+00 0. -1.
         -1   -1    0    0    0  501 -0.00000000000E+00 -0.00000000000E+00 -0.26110432680E+03  0.26110432680E+03  0.00000000000E+00 0.  1.
         23    2    1    2    0    0  0.16678188713E+02  0.73694032797E+02 -0.70444647359E+02  0.12754894433E+03  0.74815188354E+02 0.  0.
          5    1    3    3  502    0  0.30267059702E+02  0.11874709278E+02 -0.16498895942E+00  0.32851496843E+02  0.47000000000E+01 0. -1.
         -5    1    1    2    0  503 -0.66777088469E+02 -0.45566022415E+02 -0.44811727186E+02  0.92550650114E+02  0.47000000000E+01 0.  1.
          5    1    1    2  503    0  0.50098899756E+02 -0.28128010382E+02 -0.84533843036E+02  0.10231884158E+03  0.47000000000E+01 0. -1.
         -5    1    3    3    0  502 -0.13588870989E+02  0.61819323518E+02 -0.70279658400E+02  0.94697447483E+02  0.47000000000E+01 0.  1.
<mgrwt>
<rscale>  0 0.13470304E+03</rscale>
<asrwt>0</asrwt>
<pdfrwt beam="1">  1        1 0.94329399E-02 0.14575267E+03</pdfrwt>
<pdfrwt beam="2">  1       -1 0.40169896E-01 0.14575267E+03</pdfrwt>
<totfact> 0.40939161E+03</totfact>
</mgrwt>
</event>
<event>
 8    1  0.6414246E-006  0.1397524E+03  0.7546771E-02  0.1219232E+00
         -2   -1    0    0    0  501 -0.00000000000E+00  0.00000000000E+00  0.67737242451E+02  0.67737242451E+02  0.00000000000E+00 0.  1.
          2   -1    0    0  501    0  0.00000000000E+00 -0.00000000000E+00 -0.29091023582E+03  0.29091023582E+03  0.00000000000E+00 0. -1.
         25    2    1    2    0    0 -0.21692325376E+02 -0.58682601886E+02 -0.17831751229E+03  0.22655657586E+03  0.12496616395E+03 0.  0.
         23    2    1    2    0    0  0.21692325376E+02  0.58682601886E+02 -0.44855481079E+02  0.13209090241E+03  0.10733958996E+03 0.  0.
          5    1    3    3  502    0  0.19486252217E+02 -0.19989103349E+02  0.98956098253E+01  0.29988187208E+02  0.47000000000E+01 0. -1.
         -5    1    4    4    0  503  0.46601368431E+02 -0.92594553632E+01 -0.34350441092E+02  0.58817241150E+02  0.47000000000E+01 0.  1.
          5    1    4    4  503    0 -0.24909043055E+02  0.67942057249E+02 -0.10505039986E+02  0.73273661259E+02  0.47000000000E+01 0. -1.
         -5    1    3    3    0  502 -0.41178577593E+02 -0.38693498536E+02 -0.18821312211E+03  0.19656838865E+03  0.47000000000E+01 0. -1.
<mgrwt>
<rscale>  0 0.13570204E+03</rscale>
<asrwt>0</asrwt>
<pdfrwt beam="1">  1        2 0.44755421E-01 0.13975245E+03</pdfrwt>
<pdfrwt beam="2">  1       -2 0.10421114E-01 0.13975245E+03</pdfrwt>
<totfact> 0.67056826E+03</totfact>
</mgrwt>
</event>
<event>
 7    1  0.6414246E-006  0.1251678E+03  0.7546771E-02  0.1244152E+00
         -1   -1    0    0    0  501 -0.00000000000E+00  0.00000000000E+00  0.31464141301E+02  0.31464141301E+02  0.00000000000E+00 0.  1.
          1   -1    0    0  501    0  0.00000000000E+00 -0.00000000000E+00 -0.41857301091E+03  0.41857301091E+03  0.00000000000E+00 0. -1.
         23    2    1    2    0    0  0.17794646807E+01 -0.10731096122E+01 -0.15620049327E+03  0.18738593728E+03  0.10349191916E+03 0.  0.
          5    1    3    3  502    0  0.79435187929E+01 -0.32467770611E+02 -0.15088510238E+03  0.15461455216E+03  0.47000000000E+01 0. -1.
         -5    1    1    2    0  503 -0.35732697831E+01 -0.57380890862E+02 -0.66201835543E+02  0.87807220217E+02  0.47000000000E+01 0. -1.
          5    1    1    2  503    0  0.17938051024E+01  0.58454000474E+02 -0.16470654080E+03  0.17484399472E+03  0.47000000000E+01 0. -1.
         -5    1    3    3    0  502 -0.61640541122E+01  0.31394660999E+02 -0.53153908952E+01  0.32771385120E+02  0.47000000000E+01 0.  1.
<mgrwt>
<rscale>  0 0.11936253E+03</rscale>
<asrwt>0</asrwt>
<pdfrwt beam="1">  1        1 0.64395848E-01 0.12516782E+03</pdfrwt>
<pdfrwt beam="2">  1       -1 0.48406371E-02 0.12516782E+03</pdfrwt>
<totfact> 0.99642883E+03</totfact>
</mgrwt>
</event>
<event>
 8    1  0.6414246E-006  0.2115682E+03  0.7546771E-02  0.1145301E+00
          1   -1    0    0  501    0  0.00000000000E+00  0.00000000000E+00  0.38839384498E+03  0.38839384498E+03  0.00000000000E+00 0. -1.
         -1   -1    0    0    0  501 -0.00000000000E+00 -0.00000000000E+00 -0.15290238685E+03  0.15290238685E+03  0.00000000000E+00 0.  1.
         25    2    1    2    0    0 -0.46349857593E+02 -0.16424847319E+03 -0.32517364558E+02  0.21405250371E+03  0.12504089372E+03 0.  0.
         23    2    1    2    0    0  0.46349857593E+02  0.16424847319E+03  0.26800882269E+03  0.32724372813E+03  0.78318952466E+02 0.  0.
          5    1    3    3  502    0  0.40561450187E+02 -0.59452001787E+02 -0.29125233894E+02  0.77782652353E+02  0.47000000000E+01 0.  1.
         -5    1    4    4    0  503  0.62365097210E+02  0.11858664056E+03  0.15963670375E+03  0.20846621753E+03  0.47000000000E+01 0.  1.
          5    1    4    4  503    0 -0.16015239617E+02  0.45661832630E+02  0.10837211894E+03  0.11877751059E+03  0.47000000000E+01 0. -1.
         -5    1    3    3    0  502 -0.86911307780E+02 -0.10479647140E+03 -0.33921306639E+01  0.13626985136E+03  0.47000000000E+01 0.  1.
<mgrwt>
<rscale>  0 0.20535138E+03</rscale>
<asrwt>0</asrwt>
<pdfrwt beam="1">  1        1 0.59752899E-01 0.21156818E+03</pdfrwt>
<pdfrwt beam="2">  1       -1 0.23523444E-01 0.21156818E+03</pdfrwt>
<totfact> 0.97067132E+02</totfact>
</mgrwt>
</event>
<event>
 7    1  0.6414246E-006  0.1287434E+03  0.7546771E-02  0.1264144E+00
          2   -1    0    0  501    0  0.00000000000E+00  0.00000000000E+00  0.34183915207E+03  0.34183915207E+03  0.00000000000E+00 0. -1.
         -2   -1    0    0    0  501 -0.00000000000E+00 -0.00000000000E+00 -0.27384793038E+02  0.27384793038E+02  0.00000000000E+00 0.  1.
         23    2    1    2    0    0  0.30124989767E+02 -0.84617021571E+01  0.12051200849E+03  0.13643972064E+03  0.55799083925E+02 0.  0.
          5    1    3    3  502    0  0.15695093145E+02 -0.30148639759E+02  0.88392869680E+02  0.94819121692E+02  0.47000000000E+01 0. -1.
         -5    1    3    3    0  502  0.14429896622E+02  0.21686937602E+02  0.32119138808E+02  0.41620598949E+02  0.47000000000E+01 0.  1.
          5    1    1    2  503    0 -0.62199191850E+02 -0.20500824307E+01  0.18813231552E+03  0.19821402687E+03  0.47000000000E+01 0. -1.
         -5    1    1    2    0  503  0.32074202083E+02  0.10511784588E+02  0.58100350166E+01  0.34570197590E+02  0.47000000000E+01 0.  1.
<mgrwt>
<rscale>  0 0.10809219E+03</rscale>
<asrwt>0</asrwt>
<pdfrwt beam="1">  1        2 0.52590636E-01 0.12874339E+03</pdfrwt>
<pdfrwt beam="2">  1       -2 0.42130453E-02 0.12874339E+03</pdfrwt>
<totfact> 0.22393394E+04</totfact>
</mgrwt>
</event>
<event>
 8    1  0.8736200E-006  0.1328203E+03  0.7546771E-02  0.1231022E+00
         -1   -1    0    0    0  501 -0.00000000000E+00  0.00000000000E+00  0.13574439319E+02  0.13574439319E+02  0.00000000000E+00 0.  1.
          1   -1    0    0  501    0  0.00000000000E+00 -0.00000000000E+00 -0.11252247308E+04  0.11252247308E+04  0.00000000000E+00 0. -1.
         25    2    1    2    0    0 -0.44754232044E+02 -0.21219891003E+00 -0.65384481141E+03  0.66719883275E+03  0.12505302357E+03 0.  0.
         23    2    1    2    0    0  0.44754232044E+02  0.21219891003E+00 -0.45780548010E+03  0.47160033739E+03  0.10400977986E+03 0.  0.
          5    1    4    4  502    0  0.56632088649E+02 -0.36740535025E+02 -0.35934459523E+03  0.36566061929E+03  0.47000000000E+01 0. -1.
         -5    1    3    3    0  503 -0.65448154404E+02 -0.47109798494E+02 -0.42880158528E+03  0.43634353847E+03  0.47000000000E+01 0. -1.
          5    1    3    3  503    0  0.20693922360E+02  0.46897599584E+02 -0.22504322614E+03  0.23085529428E+03  0.47000000000E+01 0. -1.
         -5    1    4    4    0  502 -0.11877856605E+02  0.36952733935E+02 -0.98460884870E+02  0.10593971810E+03  0.47000000000E+01 0.  1.
<mgrwt>
<rscale>  0 0.12762589E+03</rscale>
<asrwt>0</asrwt>
<pdfrwt beam="1">  1        1 0.17311159E+00 0.13282035E+03</pdfrwt>
<pdfrwt beam="2">  1       -1 0.20883741E-02 0.13282035E+03</pdfrwt>
<totfact> 0.80702721E+03</totfact>
</mgrwt>
</event>
<event>
 8    1  0.6414246E-006  0.1531459E+03  0.7546771E-02  0.1199254E+00
          1   -1    0    0  501    0  0.00000000000E+00  0.00000000000E+00  0.41959824635E+02  0.41959824635E+02  0.00000000000E+00 0. -1.
         -1   -1    0    0    0  501 -0.00000000000E+00 -0.00000000000E+00 -0.52993191047E+03  0.52993191047E+03  0.00000000000E+00 0.  1.
         25    2    1    2    0    0  0.73511728908E+02 -0.49008255737E+02 -0.23679187955E+03  0.28200008999E+03  0.12509145900E+03 0.  0.
         23    2    1    2    0    0 -0.73511728908E+02  0.49008255737E+02 -0.25118020629E+03  0.28989164512E+03  0.11462934381E+03 0.  0.
          5    1    4    4  502    0  0.20475238085E+02  0.43539588836E+02 -0.10976771828E+03  0.11994154054E+03  0.47000000000E+01 0. -1.
         -5    1    3    3    0  503 -0.56539261184E+00 -0.23403628571E+02  0.77960583283E+01  0.25118081625E+02  0.47000000000E+01 0. -1.
          5    1    3    3  503    0  0.74077121520E+02 -0.25604627167E+02 -0.24458793788E+03  0.25688200836E+03  0.47000000000E+01 0. -1.
         -5    1    4    4    0  502 -0.93986966993E+02  0.54686669012E+01 -0.14141248801E+03  0.16995010458E+03  0.47000000000E+01 0.  1.
<mgrwt>
<rscale>  0 0.15099610E+03</rscale>
<asrwt>0</asrwt>
<pdfrwt beam="1">  1        1 0.64553571E-02 0.15314587E+03</pdfrwt>
<pdfrwt beam="2">  1       -1 0.81527993E-01 0.15314587E+03</pdfrwt>
<totfact> 0.17916485E+03</totfact>
</mgrwt>
</event>
<event>
 7    1  0.6414246E-006  0.1656384E+03  0.7546771E-02  0.1192551E+00
          2   -1    0    0  501    0  0.00000000000E+00  0.00000000000E+00  0.14418230463E+04  0.14418230463E+04  0.00000000000E+00 0. -1.
         -2   -1    0    0    0  501 -0.00000000000E+00 -0.00000000000E+00 -0.16765291578E+02  0.16765291578E+02  0.00000000000E+00 0.  1.
         23    2    1    2    0    0  0.28124195294E+02 -0.10478509120E+03  0.43322083452E+03  0.45301558686E+03  0.75973316219E+02 0.  0.
          5    1    3    3  502    0  0.41475048631E+02 -0.85766172246E+02  0.40536943418E+03  0.41644025277E+03  0.47000000000E+01 0. -1.
         -5    1    3    3    0  502 -0.13350853336E+02 -0.19018918951E+02  0.27851400346E+02  0.36575334094E+02  0.47000000000E+01 0.  1.
          5    1    1    2  503    0 -0.57071726791E+02  0.11729817015E+03  0.70621707277E+03  0.71817872886E+03  0.47000000000E+01 0. -1.
         -5    1    1    2    0  503  0.28947531496E+02 -0.12513078950E+02  0.28561984743E+03  0.28739402215E+03  0.47000000000E+01 0. -1.
<mgrwt>
<rscale>  0 0.15663299E+03</rscale>
<asrwt>0</asrwt>
<pdfrwt beam="1">  1        2 0.22181883E+00 0.16563841E+03</pdfrwt>
<pdfrwt beam="2">  1       -2 0.25792768E-02 0.16563841E+03</pdfrwt>
<totfact> 0.76646438E+03</totfact>
</mgrwt>
</event>
<event>
 8    1  0.6414246E-006  0.1261861E+03  0.7546771E-02  0.1258789E+00
          1   -1    0    0  501    0  0.00000000000E+00  0.00000000000E+00  0.59712069432E+03  0.59712069432E+03  0.00000000000E+00 0. -1.
         -1   -1    0    0    0  501 -0.00000000000E+00 -0.00000000000E+00 -0.17045029116E+02  0.17045029116E+02  0.00000000000E+00 0.  1.
         25    2    1    2    0    0  0.68359887044E+01  0.16121095112E+02  0.35266164584E+03  0.37455728471E+03  0.12496520570E+03 0.  0.
         23    2    1    2    0    0 -0.68359887044E+01 -0.16121095112E+02  0.22741401936E+03  0.23960843872E+03  0.73406043720E+02 0.  0.
          5    1    3    3  502    0  0.26033310291E+02  0.38460760257E+02  0.33820429098E+03  0.34141059703E+03  0.47000000000E+01 0.  1.
         -5    1    3    3    0  502 -0.19197321587E+02 -0.22339665145E+02  0.14457354855E+02  0.33146687682E+02  0.47000000000E+01 0.  1.
          5    1    4    4  503    0 -0.36039771302E+02 -0.22574554998E+02  0.16154541441E+03  0.16711518951E+03  0.47000000000E+01 0. -1.
         -5    1    4    4    0  503  0.29203782597E+02  0.64534598855E+01  0.65868604953E+02  0.72493249210E+02  0.47000000000E+01 0.  1.
<mgrwt>
<rscale>  0 0.11096753E+03</rscale>
<asrwt>0</asrwt>
<pdfrwt beam="1">  1        1 0.91864706E-01 0.12618607E+03</pdfrwt>
<pdfrwt beam="2">  1       -1 0.26223126E-02 0.12618607E+03</pdfrwt>
<totfact> 0.15361652E+04</totfact>
</mgrwt>
</event>
<event>
 7    1  0.6414246E-006  0.1425797E+03  0.7546771E-02  0.1210096E+00
         -3   -1    0    0    0  501 -0.00000000000E+00  0.00000000000E+00  0.23251877035E+03  0.23251877035E+03  0.00000000000E+00 0.  1.
          3   -1    0    0  501    0  0.00000000000E+00 -0.00000000000E+00 -0.87267739535E+02  0.87267739535E+02  0.00000000000E+00 0. -1.
         23    2    1    2    0    0  0.56744566478E+02 -0.34805261272E+02  0.80503473429E+02  0.16373691773E+03  0.12608575239E+03 0.  0.
          5    1    1    2  502    0 -0.93992218677E+02  0.31654953531E+02  0.27404322198E+02  0.10300320446E+03  0.47000000000E+01 0. -1.
         -5    1    3    3    0  503  0.89629348945E+02 -0.38201023214E+02  0.85821945979E+02  0.12992395768E+03  0.47000000000E+01 0.  1.
          5    1    3    3  503    0 -0.32884782467E+02  0.33957619426E+01 -0.53184725498E+01  0.33812960050E+02  0.47000000000E+01 0. -1.
         -5    1    1    2    0  502  0.37247652199E+02  0.31503077410E+01  0.37343235190E+02  0.53046387696E+02  0.47000000000E+01 0.  1.
<mgrwt>
<rscale>  0 0.14243034E+03</rscale>
<asrwt>0</asrwt>
<pdfrwt beam="1">  1        3 0.13425806E-01 0.14257969E+03</pdfrwt>
<pdfrwt beam="2">  1       -3 0.35772118E-01 0.14257969E+03</pdfrwt>
<totfact> 0.80478510E+02</totfact>
</mgrwt>
</event>
<event>
 8    1  0.6414246E-006  0.1321240E+03  0.7546771E-02  0.1229642E+00
          1   -1    0    0  501    0  0.00000000000E+00  0.00000000000E+00  0.13668091188E+02  0.13668091188E+02  0.00000000000E+00 0. -1.
         -1   -1    0    0    0  501 -0.00000000000E+00 -0.00000000000E+00 -0.11477594359E+04  0.11477594359E+04  0.00000000000E+00 0.  1.
         25    2    1    2    0    0 -0.34381439026E+02 -0.25307201940E+02 -0.60657373928E+03  0.62079663602E+03  0.12503689170E+03 0.  0.
         23    2    1    2    0    0  0.34381439026E+02  0.25307201940E+02 -0.52751760544E+03  0.54063089108E+03  0.11038296300E+03 0.  0.
          5    1    3    3  502    0 -0.20269067790E+02  0.39287694105E+02 -0.42825656260E+03  0.43055793040E+03  0.47000000000E+01 0.  1.
         -5    1    3    3    0  502 -0.14112371236E+02 -0.64594896045E+02 -0.17831717668E+03  0.19023870562E+03  0.47000000000E+01 0.  1.
          5    1    4    4  503    0  0.33437347234E+02 -0.23344248619E+02 -0.75161806295E+02  0.85641095621E+02  0.47000000000E+01 0. -1.
         -5    1    4    4    0  503  0.94409179212E+00  0.48651450559E+02 -0.45235579914E+03  0.45498979546E+03  0.47000000000E+01 0.  1.
<mgrwt>
<rscale>  0 0.12853733E+03</rscale>
<asrwt>0</asrwt>
<pdfrwt beam="1">  1        1 0.21027835E-02 0.13212404E+03</pdfrwt>
<pdfrwt beam="2">  1       -1 0.17657835E+00 0.13212404E+03</pdfrwt>
<totfact> 0.13279808E+03</totfact>
</mgrwt>
</event>
<event>
 6    1  0.6414246E-006  0.1733008E+03  0.7546771E-02  0.1184820E+00
         -1   -1    0    0    0  501 -0.00000000000E+00  0.00000000000E+00  0.65587064580E+02  0.65587064580E+02  0.00000000000E+00 0.  1.
          1   -1    0    0  501    0  0.00000000000E+00 -0.00000000000E+00 -0.65745540503E+03  0.65745540503E+03  0.00000000000E+00 0. -1.
          5    1    1    2  502    0 -0.72827592297E+02  0.69232881766E+02 -0.10132801727E+03  0.14278132652E+03  0.47000000000E+01 0. -1.
         -5    1    1    2    0  503 -0.24572729633E+02 -0.52781274940E+02 -0.12849489499E+03  0.14114783054E+03  0.47000000000E+01 0.  1.
          5    1    1    2  503    0  0.64001492408E+02  0.30206088918E+01 -0.38736798680E+03  0.39265934639E+03  0.47000000000E+01 0. -1.
         -5    1    1    2    0  502  0.33398829521E+02 -0.19472215718E+02  0.25322558613E+02  0.46453966171E+02  0.47000000000E+01 0.  1.
<mgrwt>
<rscale>  0 0.16348308E+03</rscale>
<asrwt>0</asrwt>
<pdfrwt beam="1">  1        1 0.10114698E+00 0.17330080E+03</pdfrwt>
<pdfrwt beam="2">  1       -1 0.10090318E-01 0.17330080E+03</pdfrwt>
<totfact> 0.18419393E+03</totfact>
</mgrwt>
</event>
<event>
 8    1  0.6414246E-006  0.1280893E+03  0.7546771E-02  0.1237374E+00
         -1   -1    0    0    0  501 -0.00000000000E+00  0.00000000000E+00  0.20176451955E+02  0.20176451955E+02  0.00000000000E+00 0. -1.
          1   -1    0    0  501    0  0.00000000000E+00 -0.00000000000E+00 -0.70738811389E+03  0.70738811389E+03  0.00000000000E+00 0.  1.
         25    2    1    2    0    0 -0.27517677293E+02  0.60540918198E+01 -0.36374670081E+03  0.38564041247E+03  0.12495195393E+03 0.  0.
         23    2    1    2    0    0  0.27517677293E+02 -0.60540918198E+01 -0.32346496113E+03  0.34192415338E+03  0.10718521817E+03 0.  0.
          5    1    3    3  502    0  0.20690420578E+02  0.95569650888E+00 -0.28002623672E+01  0.21422845955E+02  0.47000000000E+01 0. -1.
         -5    1    3    3    0  502 -0.48208097871E+02  0.50983953109E+01 -0.36094643844E+03  0.36421756651E+03  0.47000000000E+01 0. -1.
          5    1    4    4  503    0 -0.38030905747E+01 -0.28268672952E+02 -0.18074922188E+02  0.34093609086E+02  0.47000000000E+01 0. -1.
         -5    1    4    4    0  503  0.31320767868E+02  0.22214581132E+02 -0.30539003894E+03  0.30783054429E+03  0.47000000000E+01 0.  1.
<mgrwt>
<rscale>  0 0.12353660E+03</rscale>
<asrwt>0</asrwt>
<pdfrwt beam="1">  1        1 0.10882895E+00 0.12808929E+03</pdfrwt>
<pdfrwt beam="2">  1       -1 0.31040692E-02 0.12808929E+03</pdfrwt>
<totfact> 0.95096615E+03</totfact>
</mgrwt>
</event>
<event>
 8    1  0.6414246E-006  0.1365636E+03  0.7546771E-02  0.1235433E+00
          2   -1    0    0  501    0  0.00000000000E+00  0.00000000000E+00  0.62768762206E+03  0.62768762206E+03  0.00000000000E+00 0. -1.
         -2   -1    0    0    0  501 -0.00000000000E+00 -0.00000000000E+00 -0.25087868631E+02  0.25087868631E+02  0.00000000000E+00 0.  1.
         25    2    1    2    0    0 -0.49726855823E+02 -0.23781412165E+02  0.22351557916E+03  0.26193287572E+03  0.12494519400E+03 0.  0.
         23    2    1    2    0    0  0.49726855823E+02  0.23781412165E+02  0.37908417427E+03  0.39084261497E+03  0.77555288279E+02 0.  0.
          5    1    3    3  502    0  0.13068754690E+02 -0.25359740616E+02 -0.81615206304E+00  0.28925160284E+02  0.47000000000E+01 0.  1.
         -5    1    3    3    0  502 -0.62795610513E+02  0.15783284514E+01  0.22433173122E+03  0.23300771544E+03  0.47000000000E+01 0.  1.
          5    1    4    4  503    0  0.24152501602E+02  0.41591189660E+02  0.32226156053E+03  0.32586465563E+03  0.47000000000E+01 0. -1.
         -5    1    4    4    0  503  0.25574354221E+02 -0.17809777495E+02  0.56822613738E+02  0.64977959342E+02  0.47000000000E+01 0.  1.
<mgrwt>
<rscale>  0 0.12476740E+03</rscale>
<asrwt>0</asrwt>
<pdfrwt beam="1">  1        2 0.96567314E-01 0.13656360E+03</pdfrwt>
<pdfrwt beam="2">  1       -2 0.38596726E-02 0.13656360E+03</pdfrwt>
<totfact> 0.13205107E+04</totfact>
</mgrwt>
</event>
<event>
 8    1  0.6414246E-006  0.1392767E+03  0.7546771E-02  0.1230303E+00
          1   -1    0    0  501    0  0.00000000000E+00  0.00000000000E+00  0.87778044714E+03  0.87778044714E+03  0.00000000000E+00 0. -1.
         -1   -1    0    0    0  501 -0.00000000000E+00 -0.00000000000E+00 -0.19244188475E+02  0.19244188475E+02  0.00000000000E+00 0.  1.
         25    2    1    2    0    0 -0.28065892885E+02 -0.54718753786E+02  0.66392107822E+03  0.67837246176E+03  0.12496464464E+03 0.  0.
         23    2    1    2    0    0  0.28065892885E+02  0.54718753786E+02  0.19461518044E+03  0.21865217385E+03  0.78433846726E+02 0.  0.
          5    1    4    4  502    0  0.44169412960E+02  0.40985898144E+01  0.10916334375E+03  0.11792565920E+03  0.47000000000E+01 0. -1.
         -5    1    3    3    0  503 -0.42408756607E+02 -0.90100797948E+02  0.51522147748E+03  0.52477796952E+03  0.47000000000E+01 0.  1.
          5    1    3    3  503    0  0.14342863722E+02  0.35382044162E+02  0.14869960073E+03  0.15359449224E+03  0.47000000000E+01 0.  1.
         -5    1    4    4    0  502 -0.16103520075E+02  0.50620163972E+02  0.85451836695E+02  0.10072651465E+03  0.47000000000E+01 0.  1.
<mgrwt>
<rscale>  0 0.12809959E+03</rscale>
<asrwt>0</asrwt>
<pdfrwt beam="1">  1        1 0.13504311E+00 0.13927670E+03</pdfrwt>
<pdfrwt beam="2">  1       -1 0.29606451E-02 0.13927670E+03</pdfrwt>
<totfact> 0.74095406E+03</totfact>
</mgrwt>
</event>
<event>
 8    1  0.6414246E-006  0.1436560E+03  0.7546771E-02  0.1229814E+00
         -2   -1    0    0    0  501 -0.00000000000E+00  0.00000000000E+00  0.13301170944E+02  0.13301170944E+02  0.00000000000E+00 0.  1.
          2   -1    0    0  501    0  0.00000000000E+00 -0.00000000000E+00 -0.11374519796E+04  0.11374519796E+04  0.00000000000E+00 0. -1.
         25    2    1    2    0    0 -0.64774152868E+02  0.28737198501E+02 -0.51225854547E+03  0.53202055606E+03  0.12496214312E+03 0.  0.
         23    2    1    2    0    0  0.64774152868E+02 -0.28737198501E+02 -0.61189226322E+03  0.61873259451E+03  0.58278334419E+02 0.  0.
          5    1    4    4  502    0  0.31044492561E+02 -0.44290365104E+02 -0.36835266307E+03  0.37233207135E+03  0.47000000000E+01 0.  1.
         -5    1    3    3    0  503 -0.90808963527E+02 -0.12038658560E+02 -0.27694190934E+03  0.29173636782E+03  0.47000000000E+01 0.  1.
          5    1    3    3  503    0  0.26034810659E+02  0.40775857061E+02 -0.23531663612E+03  0.24028418825E+03  0.47000000000E+01 0. -1.
         -5    1    4    4    0  502  0.33729660307E+02  0.15553166603E+02 -0.24353960015E+03  0.24640052317E+03  0.47000000000E+01 0. -1.
<mgrwt>
<rscale>  0 0.12842313E+03</rscale>
<asrwt>0</asrwt>
<pdfrwt beam="1">  1        2 0.17499258E+00 0.14365603E+03</pdfrwt>
<pdfrwt beam="2">  1       -2 0.20463343E-02 0.14365603E+03</pdfrwt>
<totfact> 0.15646740E+04</totfact>
</mgrwt>
</event>
<event>
 8    1  0.6414246E-006  0.1292887E+03  0.7546771E-02  0.1234485E+00
          2   -1    0    0  501    0  0.00000000000E+00  0.00000000000E+00  0.73320457784E+03  0.73320457784E+03  0.00000000000E+00 0. -1.
         -2   -1    0    0    0  501 -0.00000000000E+00 -0.00000000000E+00 -0.20439777206E+02  0.20439777206E+02  0.00000000000E+00 0.  1.
         25    2    1    2    0    0 -0.32807081714E+02 -0.15712422336E+01  0.41555826738E+03  0.43520596444E+03  0.12504712907E+03 0.  0.
         23    2    1    2    0    0  0.32807081714E+02  0.15712422336E+01  0.29720653326E+03  0.31843839060E+03  0.10951032730E+03 0.  0.
          5    1    4    4  502    0  0.22218918480E+02  0.46538156545E+02  0.23597999793E+03  0.24159497051E+03  0.47000000000E+01 0. -1.
         -5    1    4    4    0  502  0.10588163234E+02 -0.44966914311E+02  0.61226535331E+02  0.76843420096E+02  0.47000000000E+01 0.  1.
          5    1    3    3  503    0  0.37315488654E+01  0.57436960649E+02  0.22681530189E+03  0.23405170386E+03  0.47000000000E+01 0. -1.
         -5    1    3    3    0  503 -0.36538630580E+02 -0.59008202883E+02  0.18874296548E+03  0.20115426059E+03  0.47000000000E+01 0. -1.
<mgrwt>
<rscale>  0 0.12537476E+03</rscale>
<asrwt>0</asrwt>
<pdfrwt beam="1">  1        2 0.11280068E+00 0.12928866E+03</pdfrwt>
<pdfrwt beam="2">  1       -2 0.31445817E-02 0.12928866E+03</pdfrwt>
<totfact> 0.14829216E+04</totfact>
</mgrwt>
</event>
<event>
 7    1  0.6414246E-006  0.1861193E+03  0.7546771E-02  0.1179102E+00
         -2   -1    0    0    0  501 -0.00000000000E+00  0.00000000000E+00  0.80939817943E+02  0.80939817943E+02  0.00000000000E+00 0.  1.
          2   -1    0    0  501    0  0.00000000000E+00 -0.00000000000E+00 -0.30354752963E+03  0.30354752963E+03  0.00000000000E+00 0. -1.
         25    2    1    2    0    0  0.14016215315E+02  0.50325510554E+01 -0.71991946037E+02  0.14505991516E+03  0.12505102091E+03 0.  0.
          5    1    3    3  502    0 -0.54794588930E+01  0.62103015334E+02 -0.21031129215E+02  0.65963682276E+02  0.47000000000E+01 0.  1.
         -5    1    1    2    0  503  0.23308997675E+02 -0.43859176671E+02  0.24910943887E+02  0.55763625028E+02  0.47000000000E+01 0.  1.
          5    1    1    2  503    0 -0.37325212989E+02  0.38826625616E+02 -0.17552670954E+03  0.18366380738E+03  0.47000000000E+01 0. -1.
         -5    1    3    3    0  502  0.19495674208E+02 -0.57070464279E+02 -0.50960816822E+02  0.79096232887E+02  0.47000000000E+01 0.  1.
<mgrwt>
<rscale>  0 0.16880288E+03</rscale>
<asrwt>0</asrwt>
<pdfrwt beam="1">  1        2 0.46699620E-01 0.18611928E+03</pdfrwt>
<pdfrwt beam="2">  1       -2 0.12452280E-01 0.18611928E+03</pdfrwt>
<totfact> 0.49032209E+03</totfact>
</mgrwt>
</event>
<event>
 7    1  0.6414246E-006  0.1599362E+03  0.7546771E-02  0.1190141E+00
         -1   -1    0    0    0  501 -0.00000000000E+00  0.00000000000E+00  0.12390557226E+03  0.12390557226E+03  0.00000000000E+00 0.  1.
          1   -1    0    0  501    0  0.00000000000E+00 -0.00000000000E+00 -0.20132964681E+03  0.20132964681E+03  0.00000000000E+00 0. -1.
         25    2    1    2    0    0 -0.87797658638E+02  0.27624934317E+02 -0.49637725250E+02  0.16290324897E+03  0.12490796171E+03 0.  0.
          5    1    3    3  502    0 -0.76973914185E+02  0.67430652673E+02 -0.59177660626E+01  0.10261084904E+03  0.47000000000E+01 0.  1.
         -5    1    1    2    0  503  0.23673907637E+02 -0.63098982700E+02  0.24850017529E+02  0.71982976403E+02  0.47000000000E+01 0.  1.
          5    1    1    2  503    0  0.64123751000E+02  0.35474048384E+02 -0.52636366828E+02  0.90348993707E+02  0.47000000000E+01 0. -1.
         -5    1    3    3    0  502 -0.10823744452E+02 -0.39805718356E+02 -0.43719959188E+02  0.60292399929E+02  0.47000000000E+01 0.  1.
<mgrwt>
<rscale>  0 0.15872766E+03</rscale>
<asrwt>0</asrwt>
<pdfrwt beam="1">  1        1 0.30973792E-01 0.15993620E+03</pdfrwt>
<pdfrwt beam="2">  1       -1 0.19062396E-01 0.15993620E+03</pdfrwt>
<totfact> 0.30905652E+03</totfact>
</mgrwt>
</event>
<event>
 8    1  0.6414246E-006  0.1523937E+03  0.7546771E-02  0.1199037E+00
         -1   -1    0    0    0  501 -0.00000000000E+00  0.00000000000E+00  0.50140945271E+03  0.50140945271E+03  0.00000000000E+00 0.  1.
          1   -1    0    0  501    0  0.00000000000E+00 -0.00000000000E+00 -0.47951114619E+02  0.47951114619E+02  0.00000000000E+00 0. -1.
         25    2    1    2    0    0  0.84844836562E+02  0.19786415826E+02  0.29981792818E+03  0.33632516522E+03  0.12503470784E+03 0.  0.
         23    2    1    2    0    0 -0.84844836562E+02 -0.19786415826E+02  0.15364040992E+03  0.21303540211E+03  0.11911573552E+03 0.  0.
          5    1    4    4  502    0 -0.19133261308E+02 -0.52736812103E+02  0.11898264523E+03  0.13162907318E+03  0.47000000000E+01 0.  1.
         -5    1    3    3    0  503  0.16742594666E+02 -0.38865423889E+02  0.18812915239E+03  0.19288728219E+03  0.47000000000E+01 0. -1.
          5    1    3    3  503    0  0.68102241896E+02  0.58651839715E+02  0.11168877578E+03  0.14343788303E+03  0.47000000000E+01 0. -1.
         -5    1    4    4    0  502 -0.65711575254E+02  0.32950396277E+02  0.34657764688E+02  0.81406328933E+02  0.47000000000E+01 0. -1.
<mgrwt>
<rscale>  0 0.15117472E+03</rscale>
<asrwt>0</asrwt>
<pdfrwt beam="1">  1        1 0.73770949E-02 0.15239366E+03</pdfrwt>
<pdfrwt beam="2">  1       -1 0.77139912E-01 0.15239366E+03</pdfrwt>
<totfact> 0.16743287E+03</totfact>
</mgrwt>
</event>
<event>
 7    1  0.6414246E-006  0.2215301E+03  0.7546771E-02  0.1137706E+00
          2   -1    0    0  501    0  0.00000000000E+00  0.00000000000E+00  0.18043423392E+03  0.18043423392E+03  0.00000000000E+00 0.  1.
         -2   -1    0    0    0  501 -0.00000000000E+00 -0.00000000000E+00 -0.27643249688E+03  0.27643249688E+03  0.00000000000E+00 0. -1.
         23    2    1    2    0    0  0.45440071432E+02  0.17707299161E+03 -0.12601227659E+03  0.23331264013E+03  0.71666238515E+02 0.  0.
          5    1    1    2  502    0 -0.57775735627E+02 -0.10895939112E+03  0.71580484491E+02  0.14267459584E+03  0.47000000000E+01 0. -1.
         -5    1    3    3    0  503  0.36619431248E+02  0.72973593754E+02 -0.19564933248E+02  0.84089266516E+02  0.47000000000E+01 0.  1.
          5    1    3    3  503    0  0.88206401840E+01  0.10409939786E+03 -0.10644734335E+03  0.14922337362E+03  0.47000000000E+01 0. -1.
         -5    1    1    2    0  502  0.12335664195E+02 -0.68113600496E+02 -0.41566470850E+02  0.80879494822E+02  0.47000000000E+01 0. -1.
<mgrwt>
<rscale>  0 0.21494910E+03</rscale>
<asrwt>0</asrwt>
<pdfrwt beam="1">  1        2 0.27759113E-01 0.22153011E+03</pdfrwt>
<pdfrwt beam="2">  1       -2 0.42528076E-01 0.22153011E+03</pdfrwt>
<totfact> 0.10085981E+03</totfact>
</mgrwt>
</event>
<event>
 7    1  0.6414246E-006  0.1436427E+03  0.7546771E-02  0.1209450E+00
          2   -1    0    0  501    0  0.00000000000E+00  0.00000000000E+00  0.18477582991E+03  0.18477582991E+03  0.00000000000E+00 0. -1.
         -2   -1    0    0    0  501 -0.00000000000E+00 -0.00000000000E+00 -0.11059749472E+03  0.11059749472E+03  0.00000000000E+00 0.  1.
         25    2    1    2    0    0  0.17462505312E+02 -0.62466133067E+02  0.51742019422E+02  0.14998894888E+03  0.12494995534E+03 0.  0.
          5    1    1    2  502    0  0.39940094737E+02  0.45338680443E+02  0.50668558777E+02  0.78994936296E+02  0.47000000000E+01 0. -1.
         -5    1    3    3    0  503 -0.27186167413E+02 -0.77286965880E+02  0.30502157259E+01  0.82120378771E+02  0.47000000000E+01 0. -1.
          5    1    3    3  503    0  0.44648672725E+02  0.14820832812E+02  0.48691803697E+02  0.67868570109E+02  0.47000000000E+01 0. -1.
         -5    1    1    2    0  502 -0.57402600049E+02  0.17127452625E+02 -0.28232243011E+02  0.66389439456E+02  0.47000000000E+01 0.  1.
<mgrwt>
<rscale>  0 0.14292202E+03</rscale>
<asrwt>0</asrwt>
<pdfrwt beam="1">  1        2 0.28427051E-01 0.14364271E+03</pdfrwt>
<pdfrwt beam="2">  1       -2 0.17014999E-01 0.14364271E+03</pdfrwt>
<totfact> 0.49481811E+03</totfact>
</mgrwt>
</event>
<event>
 8    1  0.6414246E-006  0.1880858E+03  0.7546771E-02  0.1169197E+00
          2   -1    0    0  501    0  0.00000000000E+00  0.00000000000E+00  0.38329599740E+03  0.38329599740E+03  0.00000000000E+00 0. -1.
         -2   -1    0    0    0  501 -0.00000000000E+00 -0.00000000000E+00 -0.75835751021E+02  0.75835751021E+02  0.00000000000E+00 0.  1.
         25    2    1    2    0    0 -0.13964343335E+03 -0.15213137874E+02  0.16426411500E+03  0.24971774794E+03  0.12507808008E+03 0.  0.
         23    2    1    2    0    0  0.13964343335E+03  0.15213137874E+02  0.14319613138E+03  0.20941400049E+03  0.60144521928E+02 0.  0.
          5    1    3    3  502    0 -0.61855202167E+02 -0.59395010834E+02  0.35669301271E+02  0.92995819262E+02  0.47000000000E+01 0. -1.
         -5    1    3    3    0  502 -0.77788231179E+02  0.44181872960E+02  0.12859481373E+03  0.15672192867E+03  0.47000000000E+01 0. -1.
          5    1    4    4  503    0  0.10945214892E+03 -0.13155385796E+02  0.11298140603E+03  0.15792316229E+03  0.47000000000E+01 0. -1.
         -5    1    4    4    0  503  0.30191284423E+02  0.28368523670E+02  0.30214725343E+02  0.51490838193E+02  0.47000000000E+01 0.  1.
<mgrwt>
<rscale>  0 0.17856679E+03</rscale>
<asrwt>0</asrwt>
<pdfrwt beam="1">  1        2 0.58968614E-01 0.18808576E+03</pdfrwt>
<pdfrwt beam="2">  1       -2 0.11667039E-01 0.18808576E+03</pdfrwt>
<totfact> 0.42413252E+03</totfact>
</mgrwt>
</event>
<event>
 7    1  0.6414246E-006  0.1257004E+03  0.7546771E-02  0.1236479E+00
          1   -1    0    0  501    0  0.00000000000E+00  0.00000000000E+00  0.31724484975E+02  0.31724484975E+02  0.00000000000E+00 0. -1.
         -1   -1    0    0    0  501 -0.00000000000E+00 -0.00000000000E+00 -0.49549959788E+03  0.49549959788E+03  0.00000000000E+00 0.  1.
         23    2    1    2    0    0 -0.88691428176E+01 -0.11335495991E+02 -0.17071185091E+03  0.20834061782E+03  0.11855851649E+03 0.  0.
          5    1    3    3  502    0 -0.55729809392E+02  0.85905710411E+01 -0.13380059100E+03  0.14527318307E+03  0.47000000000E+01 0. -1.
         -5    1    1    2    0  503  0.55304707400E+02  0.42110002393E+02 -0.16961652919E+03  0.18336771781E+03  0.47000000000E+01 0.  1.
          5    1    1    2  503    0 -0.46435564583E+02 -0.30774506402E+02 -0.12344673281E+03  0.13551574722E+03  0.47000000000E+01 0.  1.
         -5    1    3    3    0  502  0.46860666575E+02 -0.19926067032E+02 -0.36911259906E+02  0.63067434758E+02  0.47000000000E+01 0.  1.
<mgrwt>
<rscale>  0 0.12410232E+03</rscale>
<asrwt>0</asrwt>
<pdfrwt beam="1">  1        1 0.48806903E-02 0.12570039E+03</pdfrwt>
<pdfrwt beam="2">  1       -1 0.76230702E-01 0.12570039E+03</pdfrwt>
<totfact> 0.29781073E+03</totfact>
</mgrwt>
</event>
<event>
 8    1  0.6414246E-006  0.1460124E+03  0.7546771E-02  0.1223520E+00
         -2   -1    0    0    0  501 -0.00000000000E+00  0.00000000000E+00  0.20502753705E+02  0.20502753705E+02  0.00000000000E+00 0.  1.
          2   -1    0    0  501    0  0.00000000000E+00 -0.00000000000E+00 -0.95658365386E+03  0.95658365386E+03  0.00000000000E+00 0. -1.
         25    2    1    2    0    0 -0.64930713362E+02 -0.38557054511E+02 -0.30443482410E+03  0.33763911932E+03  0.12496787099E+03 0.  0.
         23    2    1    2    0    0  0.64930713362E+02  0.38557054511E+02 -0.63164607605E+03  0.63944728824E+03  0.64910900916E+02 0.  0.
          5    1    4    4  502    0  0.18357622691E+02  0.41490324276E+02 -0.43029879480E+03  0.43270959330E+03  0.47000000000E+01 0. -1.
         -5    1    3    3    0  503 -0.78151803151E+02 -0.70527717074E+02 -0.18180344058E+03  0.21013434802E+03  0.47000000000E+01 0.  1.
          5    1    3    3  503    0  0.13221089789E+02  0.31970662563E+02 -0.12263138352E+03  0.12750477129E+03  0.47000000000E+01 0.  1.
         -5    1    4    4    0  502  0.46573090671E+02 -0.29332697649E+01 -0.20134728125E+03  0.20673769495E+03  0.47000000000E+01 0.  1.
<mgrwt>
<rscale>  0 0.13268893E+03</rscale>
<asrwt>0</asrwt>
<pdfrwt beam="1">  1        2 0.14716673E+00 0.14601237E+03</pdfrwt>
<pdfrwt beam="2">  1       -2 0.31542695E-02 0.14601237E+03</pdfrwt>
<totfact> 0.10613999E+04</totfact>
</mgrwt>
</event>
<event>
 7    1  0.6414246E-006  0.1401927E+03  0.7546771E-02  0.1213685E+00
         -1   -1    0    0    0  501 -0.00000000000E+00  0.00000000000E+00  0.89382725503E+02  0.89382725503E+02  0.00000000000E+00 0.  1.
          1   -1    0    0  501    0  0.00000000000E+00 -0.00000000000E+00 -0.26261292994E+03  0.26261292994E+03  0.00000000000E+00 0. -1.
         23    2    1    2    0    0  0.59239086282E+02 -0.24687432130E+02 -0.12834856100E+02  0.13896827622E+03  0.12259163762E+03 0.  0.
          5    1    1    2  502    0 -0.93889459107E+02 -0.40296078722E+01 -0.96985485817E+02  0.13512861551E+03  0.47000000000E+01 0. -1.
         -5    1    1    2    0  502  0.34650372826E+02  0.28717040002E+02 -0.63409862524E+02  0.77898763718E+02  0.47000000000E+01 0.  1.
          5    1    3    3  503    0 -0.18946734556E+02 -0.17374668045E+02 -0.46547093002E+02  0.53381454710E+02  0.47000000000E+01 0. -1.
         -5    1    3    3    0  503  0.78185820838E+02 -0.73127640844E+01  0.33712236902E+02  0.85586821507E+02  0.47000000000E+01 0.  1.
<mgrwt>
<rscale>  0 0.13973588E+03</rscale>
<asrwt>0</asrwt>
<pdfrwt beam="1">  1        1 0.40401989E-01 0.14019271E+03</pdfrwt>
<pdfrwt beam="2">  1       -1 0.13751189E-01 0.14019271E+03</pdfrwt>
<totfact> 0.36995666E+03</totfact>
</mgrwt>
</event>
<event>
 8    1  0.6414246E-006  0.1318410E+03  0.7546771E-02  0.1246336E+00
         -2   -1    0    0    0  501 -0.00000000000E+00  0.00000000000E+00  0.32223899313E+02  0.32223899313E+02  0.00000000000E+00 0.  1.
          2   -1    0    0  501    0  0.00000000000E+00 -0.00000000000E+00 -0.54660173505E+03  0.54660173505E+03  0.00000000000E+00 0. -1.
         25    2    1    2    0    0  0.15791041499E+02  0.38605348880E+02 -0.45903164110E+03  0.47758989267E+03  0.12506929320E+03 0.  0.
         23    2    1    2    0    0 -0.15791041499E+02 -0.38605348880E+02 -0.55346194639E+02  0.10123574169E+03  0.73795285625E+02 0.  0.
          5    1    4    4  502    0  0.63001200493E+01  0.19906921261E+02 -0.88464929931E+01  0.23158744892E+02  0.47000000000E+01 0. -1.
         -5    1    4    4    0  502 -0.22091161548E+02 -0.58512270140E+02 -0.46499701646E+02  0.78076996796E+02  0.47000000000E+01 0.  1.
          5    1    3    3  503    0 -0.16294662736E+02 -0.41689166010E+02 -0.17088167307E+03  0.17670919270E+03  0.47000000000E+01 0.  1.
         -5    1    3    3    0  503  0.32085704235E+02  0.80294514890E+02 -0.28814996803E+03  0.30088069997E+03  0.47000000000E+01 0.  1.
<mgrwt>
<rscale>  0 0.11805785E+03</rscale>
<asrwt>0</asrwt>
<pdfrwt beam="1">  1        2 0.84092569E-01 0.13184103E+03</pdfrwt>
<pdfrwt beam="2">  1       -2 0.49575233E-02 0.13184103E+03</pdfrwt>
<totfact> 0.10604134E+04</totfact>
</mgrwt>
</event>
<event>
 8    1  0.6414246E-006  0.1963444E+03  0.7546771E-02  0.1160513E+00
          2   -1    0    0  501    0  0.00000000000E+00  0.00000000000E+00  0.82835925048E+03  0.82835925048E+03  0.00000000000E+00 0.  1.
         -2   -1    0    0    0  501 -0.00000000000E+00 -0.00000000000E+00 -0.39626012623E+02  0.39626012623E+02  0.00000000000E+00 0. -1.
         25    2    1    2    0    0  0.15099747518E+03 -0.10710107286E+02  0.47313174488E+03  0.51225460222E+03  0.12504473430E+03 0.  0.
         23    2    1    2    0    0 -0.15099747518E+03  0.10710107286E+02  0.31560149298E+03  0.35573066089E+03  0.63443335453E+02 0.  0.
          5    1    4    4  502    0 -0.75248859095E+02  0.46145097784E+01  0.89292137729E+02  0.11695666016E+03  0.47000000000E+01 0. -1.
         -5    1    4    4    0  502 -0.75748616084E+02  0.60955975072E+01  0.22630935525E+03  0.23877400073E+03  0.47000000000E+01 0.  1.
          5    1    3    3  503    0  0.10031933738E+02 -0.34080417609E+02  0.30339440029E+02  0.46954085873E+02  0.47000000000E+01 0.  1.
         -5    1    3    3    0  503  0.14096554144E+03  0.23370310323E+02  0.44279230485E+03  0.46530051635E+03  0.47000000000E+01 0.  1.
<mgrwt>
<rscale>  0 0.18774294E+03</rscale>
<asrwt>0</asrwt>
<pdfrwt beam="1">  1        2 0.12743987E+00 0.19634442E+03</pdfrwt>
<pdfrwt beam="2">  1       -2 0.60963103E-02 0.19634442E+03</pdfrwt>
<totfact> 0.48325217E+03</totfact>
</mgrwt>
</event>
<event>
 8    1  0.6414246E-006  0.1395001E+03  0.7546771E-02  0.1231820E+00
          1   -1    0    0  501    0  0.00000000000E+00  0.00000000000E+00  0.52434160915E+03  0.52434160915E+03  0.00000000000E+00 0. -1.
         -1   -1    0    0    0  501 -0.00000000000E+00 -0.00000000000E+00 -0.27762020168E+02  0.27762020168E+02  0.00000000000E+00 0.  1.
         25    2    1    2    0    0 -0.60840650329E+02 -0.11092020749E+02  0.23335958922E+03  0.27187675429E+03  0.12504260870E+03 0.  0.
         23    2    1    2    0    0  0.60840650329E+02  0.11092020749E+02  0.26321999977E+03  0.28022687503E+03  0.73605132646E+02 0.  0.
          5    1    4    4  502    0  0.37873024770E+02 -0.26616642836E+02  0.17983637412E+03  0.18575796925E+03  0.47000000000E+01 0. -1.
         -5    1    4    4    0  502  0.22967625559E+02  0.37708663585E+02  0.83383625645E+02  0.94468905778E+02  0.47000000000E+01 0.  1.
          5    1    3    3  503    0 -0.92606989516E+02 -0.25900735702E+02  0.12428096378E+03  0.15720925728E+03  0.47000000000E+01 0.  1.
         -5    1    3    3    0  503  0.31766339187E+02  0.14808714953E+02  0.10907862544E+03  0.11466749701E+03  0.47000000000E+01 0.  1.
<mgrwt>
<rscale>  0 0.12710234E+03</rscale>
<asrwt>0</asrwt>
<pdfrwt beam="1">  1        1 0.80667933E-01 0.13950008E+03</pdfrwt>
<pdfrwt beam="2">  1       -1 0.42710804E-02 0.13950008E+03</pdfrwt>
<totfact> 0.90317955E+03</totfact>
</mgrwt>
</event>
<event>
 6    1  0.6414246E-006  0.3418479E+03  0.7546771E-02  0.1066012E+00
          1   -1    0    0  501    0  0.00000000000E+00  0.00000000000E+00  0.23571406390E+03  0.23571406390E+03  0.00000000000E+00 0. -1.
         -1   -1    0    0    0  501 -0.00000000000E+00 -0.00000000000E+00 -0.12394253471E+03  0.12394253471E+03  0.00000000000E+00 0.  1.
          5    1    1    2  502    0 -0.10654056596E+02  0.49048484701E+02  0.94072272116E+02  0.10672837090E+03  0.47000000000E+01 0. -1.
         -5    1    1    2    0  502  0.54368725520E+02  0.46292534662E+02 -0.17515178132E+02  0.73673798226E+02  0.47000000000E+01 0. -1.
          5    1    1    2  503    0  0.51281867864E+01 -0.41254037859E+02  0.82327577609E+02  0.92347788140E+02  0.47000000000E+01 0. -1.
         -5    1    1    2    0  503 -0.48842855711E+02 -0.54086981504E+02 -0.47113142402E+02  0.86906641341E+02  0.47000000000E+01 0.  1.
<mgrwt>
<rscale>  0 0.34184791E+03</rscale>
<asrwt>0</asrwt>
<pdfrwt beam="1">  1        1 0.36263702E-01 0.34184791E+03</pdfrwt>
<pdfrwt beam="2">  1       -1 0.19068082E-01 0.34184791E+03</pdfrwt>
<totfact> 0.26013986E+03</totfact>
</mgrwt>
</event>
<event>
 7    1  0.6414246E-006  0.1746034E+03  0.7546771E-02  0.1180289E+00
         -1   -1    0    0    0  501 -0.00000000000E+00  0.00000000000E+00  0.80419529771E+02  0.80419529771E+02  0.00000000000E+00 0.  1.
          1   -1    0    0  501    0  0.00000000000E+00 -0.00000000000E+00 -0.32456706749E+03  0.32456706749E+03  0.00000000000E+00 0. -1.
         25    2    1    2    0    0 -0.79647505531E+02 -0.10523460361E+02 -0.11173021672E+03  0.18585036673E+03  0.12490896337E+03 0.  0.
          5    1    3    3  502    0  0.48304236581E+01  0.45531176757E+02 -0.45103937654E+02  0.64442813730E+02  0.47000000000E+01 0. -1.
         -5    1    3    3    0  502 -0.84477929190E+02 -0.56054637118E+02 -0.66626279069E+02  0.12140755300E+03  0.47000000000E+01 0. -1.
          5    1    1    2  503    0  0.25101847098E+02 -0.48037818238E+02 -0.12772851149E+03  0.13883226338E+03  0.47000000000E+01 0. -1.
         -5    1    1    2    0  503  0.54545658433E+02  0.58561278599E+02 -0.46888095050E+01  0.80303967148E+02  0.47000000000E+01 0.  1.
<mgrwt>
<rscale>  0 0.16768032E+03</rscale>
<asrwt>0</asrwt>
<pdfrwt beam="1">  1        1 0.49933394E-01 0.17460338E+03</pdfrwt>
<pdfrwt beam="2">  1       -1 0.12372236E-01 0.17460338E+03</pdfrwt>
<totfact> 0.33855408E+03</totfact>
</mgrwt>
</event>
<event>
 7    1  0.6414246E-006  0.1469374E+03  0.7546771E-02  0.1217222E+00
          1   -1    0    0  501    0  0.00000000000E+00  0.00000000000E+00  0.57887973339E+03  0.57887973339E+03  0.00000000000E+00 0. -1.
         -1   -1    0    0    0  501 -0.00000000000E+00 -0.00000000000E+00 -0.28938310713E+02  0.28938310713E+02  0.00000000000E+00 0.  1.
         23    2    1    2    0    0 -0.10613290159E+02 -0.80534520888E+02  0.25422856804E+03  0.27761099740E+03  0.76401898449E+02 0.  0.
          5    1    3    3  502    0  0.16402079972E+02 -0.72416098858E+02  0.12681993175E+03  0.14703232533E+03  0.47000000000E+01 0. -1.
         -5    1    1    2    0  503  0.50754158777E+02  0.50735808103E+02  0.75218098810E+02  0.10406709012E+03  0.47000000000E+01 0.  1.
          5    1    1    2  503    0 -0.40140868618E+02  0.29798712785E+02  0.22049475583E+03  0.22613995659E+03  0.47000000000E+01 0. -1.
         -5    1    3    3    0  502 -0.27015370131E+02 -0.81184220305E+01  0.12740863629E+03  0.13057867207E+03  0.47000000000E+01 0.  1.
<mgrwt>
<rscale>  0 0.13714597E+03</rscale>
<asrwt>0</asrwt>
<pdfrwt beam="1">  1        1 0.89058412E-01 0.14693741E+03</pdfrwt>
<pdfrwt beam="2">  1       -1 0.44520482E-02 0.14693741E+03</pdfrwt>
<totfact> 0.74687178E+03</totfact>
</mgrwt>
</event>
<event>
 8    1  0.6414246E-006  0.1577181E+03  0.7546771E-02  0.1193579E+00
          2   -1    0    0  501    0  0.00000000000E+00  0.00000000000E+00  0.16352175946E+03  0.16352175946E+03  0.00000000000E+00 0. -1.
         -2   -1    0    0    0  501 -0.00000000000E+00 -0.00000000000E+00 -0.16347682614E+03  0.16347682614E+03  0.00000000000E+00 0.  1.
         25    2    1    2    0    0 -0.58771283224E+02 -0.76194449333E+02 -0.55277858350E+02  0.16712458197E+03  0.12496129975E+03 0.  0.
         23    2    1    2    0    0  0.58771283224E+02  0.76194449333E+02  0.55322791673E+02  0.15987400363E+03  0.11506271297E+03 0.  0.
          5    1    4    4  502    0  0.45695263701E+01  0.91706624333E+02  0.23222540752E+02  0.94828065027E+02  0.47000000000E+01 0. -1.
         -5    1    3    3    0  503 -0.11744424739E+02  0.28601052980E+02 -0.40574904553E+02  0.51228552815E+02  0.47000000000E+01 0. -1.
          5    1    3    3  503    0 -0.47026858485E+02 -0.10479550231E+03 -0.14702953796E+02  0.11589602916E+03  0.47000000000E+01 0. -1.
         -5    1    4    4    0  502  0.54201756854E+02 -0.15512175000E+02  0.32100250922E+02  0.65045938601E+02  0.47000000000E+01 0.  1.
<mgrwt>
<rscale>  0 0.15575129E+03</rscale>
<asrwt>0</asrwt>
<pdfrwt beam="1">  1        2 0.25157194E-01 0.15771805E+03</pdfrwt>
<pdfrwt beam="2">  1       -2 0.25150281E-01 0.15771805E+03</pdfrwt>
<totfact> 0.29218021E+03</totfact>
</mgrwt>
</event>
<event>
 8    1  0.6414246E-006  0.1353040E+03  0.7546771E-02  0.1222331E+00
         -3   -1    0    0    0  501 -0.00000000000E+00  0.00000000000E+00  0.15281715589E+03  0.15281715589E+03  0.00000000000E+00 0.  1.
          3   -1    0    0  501    0  0.00000000000E+00 -0.00000000000E+00 -0.15002364878E+03  0.15002364878E+03  0.00000000000E+00 0. -1.
         25    2    1    2    0    0  0.35343500539E+02 -0.37543223973E+02  0.75944124601E+02  0.15516021426E+03  0.12509406593E+03 0.  0.
         23    2    1    2    0    0 -0.35343500539E+02  0.37543223973E+02 -0.73150617486E+02  0.14768059041E+03  0.11747292134E+03 0.  0.
          5    1    3    3  502    0  0.67315545977E+02 -0.11707221279E+02 -0.21562392699E+00  0.68487796386E+02  0.47000000000E+01 0. -1.
         -5    1    4    4    0  503 -0.73730204305E+02  0.11746602177E+02 -0.20752378914E+02  0.77632962845E+02  0.47000000000E+01 0.  1.
          5    1    4    4  503    0  0.38386703766E+02  0.25796621796E+02 -0.52398238572E+02  0.70047627565E+02  0.47000000000E+01 0. -1.
         -5    1    3    3    0  502 -0.31972045437E+02 -0.25836002694E+02  0.76159748528E+02  0.86672417876E+02  0.47000000000E+01 0. -1.
<mgrwt>
<rscale>  0 0.13351559E+03</rscale>
<asrwt>0</asrwt>
<pdfrwt beam="1">  1        3 0.23080561E-01 0.13530404E+03</pdfrwt>
<pdfrwt beam="2">  1       -3 0.23510332E-01 0.13530404E+03</pdfrwt>
<totfact> 0.67451020E+02</totfact>
</mgrwt>
</event>
<event>
 8    1  0.6414246E-006  0.2053476E+03  0.7546771E-02  0.1151202E+00
         -2   -1    0    0    0  501 -0.00000000000E+00  0.00000000000E+00  0.39354128192E+02  0.39354128192E+02  0.00000000000E+00 0.  1.
          2   -1    0    0  501    0  0.00000000000E+00 -0.00000000000E+00 -0.11412912246E+04  0.11412912246E+04  0.00000000000E+00 0. -1.
         25    2    1    2    0    0 -0.78775968899E+02 -0.14256424432E+03 -0.33267707474E+03  0.39094968256E+03  0.12504959496E+03 0.  0.
         23    2    1    2    0    0  0.78775968899E+02  0.14256424432E+03 -0.76926002164E+03  0.78969567020E+03  0.72993517610E+02 0.  0.
          5    1    4    4  502    0 -0.48081685469E+01  0.59426330847E+02 -0.29275331112E+03  0.29879959581E+03  0.47000000000E+01 0. -1.
         -5    1    3    3    0  503 -0.99824309730E+02 -0.13165348262E+03 -0.32657722752E+03  0.36602227779E+03  0.47000000000E+01 0. -1.
          5    1    3    3  503    0  0.21048340831E+02 -0.10910761703E+02 -0.60998472200E+01  0.24927404775E+02  0.47000000000E+01 0. -1.
         -5    1    4    4    0  502  0.83584137446E+02  0.83137913478E+02 -0.47650671052E+03  0.49089607440E+03  0.47000000000E+01 0.  1.
<mgrwt>
<rscale>  0 0.19827590E+03</rscale>
<asrwt>0</asrwt>
<pdfrwt beam="1">  1        2 0.17558327E+00 0.20534755E+03</pdfrwt>
<pdfrwt beam="2">  1       -2 0.60544810E-02 0.20534755E+03</pdfrwt>
<totfact> 0.31376264E+03</totfact>
</mgrwt>
</event>
<event>
 7    1  0.6414246E-006  0.1405492E+03  0.7546771E-02  0.1228044E+00
          4   -1    0    0  501    0  0.00000000000E+00  0.00000000000E+00  0.41422747485E+03  0.41422747485E+03  0.00000000000E+00 0. -1.
         -4   -1    0    0    0  501 -0.00000000000E+00 -0.00000000000E+00 -0.35895932494E+02  0.35895932494E+02  0.00000000000E+00 0.  1.
         23    2    1    2    0    0 -0.23638987700E+02  0.59510380362E+02  0.13296456288E+03  0.16735312415E+03  0.78912648368E+02 0.  0.
          5    1    3    3  502    0 -0.37643752740E+02  0.10872015171E+02  0.98026470839E+02  0.10567181185E+03  0.47000000000E+01 0. -1.
         -5    1    3    3    0  502  0.14004765040E+02  0.48638365192E+02  0.34938092038E+02  0.61681312305E+02  0.47000000000E+01 0.  1.
          5    1    1    2  503    0 -0.32892432483E+02 -0.43609273376E+02  0.36770024139E+02  0.66013676721E+02  0.47000000000E+01 0.  1.
         -5    1    1    2    0  503  0.56531420183E+02 -0.15901106987E+02  0.20859695534E+03  0.21675660647E+03  0.47000000000E+01 0.  1.
<mgrwt>
<rscale>  0 0.12960467E+03</rscale>
<asrwt>0</asrwt>
<pdfrwt beam="1">  1        4 0.63727300E-01 0.14054920E+03</pdfrwt>
<pdfrwt beam="2">  1       -4 0.55224515E-02 0.14054920E+03</pdfrwt>
<totfact> 0.79097054E+02</totfact>
</mgrwt>
</event>
<event>
 7    1  0.6414246E-006  0.2275946E+03  0.7546771E-02  0.1134176E+00
         -1   -1    0    0    0  501 -0.00000000000E+00  0.00000000000E+00  0.10376954480E+04  0.10376954480E+04  0.00000000000E+00 0.  1.
          1   -1    0    0  501    0  0.00000000000E+00 -0.00000000000E+00 -0.55817007319E+02  0.55817007319E+02  0.00000000000E+00 0. -1.
         25    2    1    2    0    0 -0.18609120539E+03 -0.39598085704E+02  0.26181198137E+03  0.34690752741E+03  0.12490545975E+03 0.  0.
          5    1    1    2  502    0  0.90871508597E+02  0.28978199778E+02  0.26890100392E+03  0.28535452870E+03  0.47000000000E+01 0. -1.
         -5    1    1    2    0  502  0.95219696790E+02  0.10619885926E+02  0.45116545541E+03  0.46125039923E+03  0.47000000000E+01 0.  1.
          5    1    3    3  503    0 -0.32271186973E+02  0.23568935045E+02  0.44757878788E+01  0.40485144003E+02  0.47000000000E+01 0. -1.
         -5    1    3    3    0  503 -0.15382001841E+03 -0.63167020749E+02  0.25733619349E+03  0.30642238341E+03  0.47000000000E+01 0. -1.
<mgrwt>
<rscale>  0 0.21960772E+03</rscale>
<asrwt>0</asrwt>
<pdfrwt beam="1">  1        1 0.85872327E-02 0.22759464E+03</pdfrwt>
<pdfrwt beam="2">  1       -1 0.15964544E+00 0.22759464E+03</pdfrwt>
<totfact> 0.25346583E+02</totfact>
</mgrwt>
</event>
<event>
 7    1  0.6414246E-006  0.1427147E+03  0.7546771E-02  0.1215820E+00
         -1   -1    0    0    0  501 -0.00000000000E+00  0.00000000000E+00  0.28795054148E+03  0.28795054148E+03  0.00000000000E+00 0.  1.
          1   -1    0    0  501    0  0.00000000000E+00 -0.00000000000E+00 -0.64147568173E+02  0.64147568173E+02  0.00000000000E+00 0. -1.
         25    2    1    2    0    0  0.81713470477E+01 -0.18064668639E+01  0.13388653593E+03  0.18341960636E+03  0.12508842176E+03 0.  0.
          5    1    3    3  502    0 -0.13493689675E+02  0.30407613156E+02  0.13987961245E+03  0.14385791107E+03  0.47000000000E+01 0. -1.
         -5    1    1    2    0  503  0.96557013854E+00 -0.65300654362E+02  0.74266914205E+02  0.99008950764E+02  0.47000000000E+01 0.  1.
          5    1    1    2  503    0 -0.91369171863E+01  0.67107121226E+02  0.15649523174E+02  0.69669552535E+02  0.47000000000E+01 0. -1.
         -5    1    3    3    0  502  0.21665036722E+02 -0.32214080020E+02 -0.59930765180E+01  0.39561695286E+02  0.47000000000E+01 0. -1.
<mgrwt>
<rscale>  0 0.13816503E+03</rscale>
<asrwt>0</asrwt>
<pdfrwt beam="1">  1        1 0.98688568E-02 0.14271465E+03</pdfrwt>
<pdfrwt beam="2">  1       -1 0.44300083E-01 0.14271465E+03</pdfrwt>
<totfact> 0.32375002E+03</totfact>
</mgrwt>
</event>
<event>
 8    1  0.6414246E-006  0.2001646E+03  0.7546771E-02  0.1151276E+00
         -2   -1    0    0    0  501 -0.00000000000E+00  0.00000000000E+00  0.29769775070E+02  0.29769775070E+02  0.00000000000E+00 0.  1.
          2   -1    0    0  501    0  0.00000000000E+00 -0.00000000000E+00 -0.13396637700E+04  0.13396637700E+04  0.00000000000E+00 0. -1.
         25    2    1    2    0    0  0.84314887250E+02  0.13159225049E+03 -0.54112174604E+03  0.57695632104E+03  0.12506131197E+03 0.  0.
         23    2    1    2    0    0 -0.84314887250E+02 -0.13159225049E+03 -0.76877224894E+03  0.79247722408E+03  0.11217780235E+03 0.  0.
          5    1    3    3  502    0  0.11111122351E+03  0.11628884307E+03 -0.37715424332E+03  0.41004415892E+03  0.47000000000E+01 0. -1.
         -5    1    3    3    0  502 -0.26796336258E+02  0.15303407424E+02 -0.16396750272E+03  0.16691216212E+03  0.47000000000E+01 0. -1.
          5    1    4    4  503    0 -0.24695027815E+02 -0.11615238964E+03 -0.62178008527E+03  0.63303537536E+03  0.47000000000E+01 0. -1.
         -5    1    4    4    0  503 -0.59619859435E+02 -0.15439860846E+02 -0.14699216367E+03  0.15944184871E+03  0.47000000000E+01 0.  1.
<mgrwt>
<rscale>  0 0.19818892E+03</rscale>
<asrwt>0</asrwt>
<pdfrwt beam="1">  1        2 0.20610212E+00 0.20016456E+03</pdfrwt>
<pdfrwt beam="2">  1       -2 0.45799654E-02 0.20016456E+03</pdfrwt>
<totfact> 0.37164077E+03</totfact>
</mgrwt>
</event>
<event>
 8    1  0.6608921E-006  0.2467673E+03  0.7546771E-02  0.1116948E+00
         -2   -1    0    0    0  501 -0.00000000000E+00  0.00000000000E+00  0.50785542971E+03  0.50785542971E+03  0.00000000000E+00 0.  1.
          2   -1    0    0  501    0  0.00000000000E+00 -0.00000000000E+00 -0.11710616512E+03  0.11710616512E+03  0.00000000000E+00 0. -1.
         25    2    1    2    0    0  0.16700204605E+03 -0.13186777397E+03  0.16003413060E+03  0.29411737749E+03  0.12496125635E+03 0.  0.
         23    2    1    2    0    0 -0.16700204605E+03  0.13186777397E+03  0.23071513399E+03  0.33084421734E+03  0.10464047928E+03 0.  0.
          5    1    4    4  502    0 -0.43161512761E+02  0.80899198002E+02  0.46137830739E+02  0.10275400647E+03  0.47000000000E+01 0. -1.
         -5    1    3    3    0  503  0.15450997444E+03 -0.99211757191E+02  0.68529381091E+02  0.19604762442E+03  0.47000000000E+01 0. -1.
          5    1    3    3  503    0  0.12492071604E+02 -0.32656016778E+02  0.91504749507E+02  0.98069753069E+02  0.47000000000E+01 0. -1.
         -5    1    4    4    0  502 -0.12384053329E+03  0.50968575966E+02  0.18457730325E+03  0.22809021087E+03  0.47000000000E+01 0.  1.
<mgrwt>
<rscale>  0 0.24432067E+03</rscale>
<asrwt>0</asrwt>
<pdfrwt beam="1">  1        2 0.18016333E-01 0.24676732E+03</pdfrwt>
<pdfrwt beam="2">  1       -2 0.78131603E-01 0.24676732E+03</pdfrwt>
<totfact> 0.47124838E+02</totfact>
</mgrwt>
</event>
<event>
 8    1  0.6414246E-006  0.1763706E+03  0.7546771E-02  0.1173448E+00
         -1   -1    0    0    0  501 -0.00000000000E+00  0.00000000000E+00  0.87141445159E+02  0.87141445159E+02  0.00000000000E+00 0.  1.
          1   -1    0    0  501    0  0.00000000000E+00 -0.00000000000E+00 -0.38669507287E+03  0.38669507287E+03  0.00000000000E+00 0. -1.
         25    2    1    2    0    0  0.12410762341E+03  0.82808575393E+01 -0.71131507637E+02  0.19017434318E+03  0.12504125174E+03 0.  0.
         23    2    1    2    0    0 -0.12410762341E+03 -0.82808575393E+01 -0.22842212007E+03  0.28366217485E+03  0.11320905313E+03 0.  0.
          5    1    4    4  502    0 -0.74921427875E+02 -0.57329579813E+02 -0.16148946964E+03  0.18708511400E+03  0.47000000000E+01 0. -1.
         -5    1    3    3    0  503  0.33137783589E+01  0.34898463036E+02 -0.54937691987E+02  0.65338532660E+02  0.47000000000E+01 0.  1.
          5    1    3    3  503    0  0.12079384505E+03 -0.26617605497E+02 -0.16193815650E+02  0.12483581052E+03  0.47000000000E+01 0.  1.
         -5    1    4    4    0  502 -0.49186195531E+02  0.49048722274E+02 -0.66932650435E+02  0.96577060847E+02  0.47000000000E+01 0.  1.
<mgrwt>
<rscale>  0 0.17428865E+03</rscale>
<asrwt>0</asrwt>
<pdfrwt beam="1">  1        1 0.59491550E-01 0.17637060E+03</pdfrwt>
<pdfrwt beam="2">  1       -1 0.13406376E-01 0.17637060E+03</pdfrwt>
<totfact> 0.23967905E+03</totfact>
</mgrwt>
</event>
<event>
 7    1  0.6414246E-006  0.1343638E+03  0.7546771E-02  0.1241064E+00
         -1   -1    0    0    0  501 -0.00000000000E+00  0.00000000000E+00  0.82543836376E+02  0.82543836376E+02  0.00000000000E+00 0.  1.
          1   -1    0    0  501    0  0.00000000000E+00 -0.00000000000E+00 -0.16350035857E+03  0.16350035857E+03  0.00000000000E+00 0. -1.
         23    2    1    2    0    0 -0.36509198809E+02 -0.32024210801E+02  0.19869650176E+00  0.89073485695E+02  0.74669770982E+02 0.  0.
          5    1    1    2  502    0  0.43469203451E+01 -0.44729566221E+02 -0.51469707515E+02  0.68489784658E+02  0.47000000000E+01 0. -1.
         -5    1    3    3    0  503 -0.37580827315E+02  0.11502930976E+02 -0.15561017635E+02  0.42530827320E+02  0.47000000000E+01 0.  1.
          5    1    3    3  503    0  0.10716285052E+01 -0.43527141777E+02  0.15759714137E+02  0.46542658375E+02  0.47000000000E+01 0. -1.
         -5    1    1    2    0  502  0.32162278464E+02  0.76753777022E+02 -0.29685511186E+02  0.88480924597E+02  0.47000000000E+01 0. -1.
<mgrwt>
<rscale>  0 0.12124074E+03</rscale>
<asrwt>0</asrwt>
<pdfrwt beam="1">  1        1 0.25153901E-01 0.13436381E+03</pdfrwt>
<pdfrwt beam="2">  1       -1 0.12699052E-01 0.13436381E+03</pdfrwt>
<totfact> 0.75260172E+03</totfact>
</mgrwt>
</event>
<event>
 7    1  0.6414246E-006  0.1622535E+03  0.7546771E-02  0.1197461E+00
          2   -1    0    0  501    0  0.00000000000E+00  0.00000000000E+00  0.33528439328E+02  0.33528439328E+02  0.00000000000E+00 0. -1.
         -2   -1    0    0    0  501 -0.00000000000E+00 -0.00000000000E+00 -0.62189442722E+03  0.62189442722E+03  0.00000000000E+00 0.  1.
         23    2    1    2    0    0 -0.97841401046E+02 -0.33130970019E+02 -0.25874792614E+03  0.28803441807E+03  0.73094020123E+02 0.  0.
          5    1    3    3  502    0 -0.63143729826E+02 -0.56137151331E+02 -0.17585201826E+03  0.19515258825E+03  0.47000000000E+01 0. -1.
         -5    1    3    3    0  502 -0.34697671220E+02  0.23006181313E+02 -0.82895907879E+02  0.92881829815E+02  0.47000000000E+01 0.  1.
          5    1    1    2  503    0  0.28344925166E+02  0.44635839653E+02 -0.33046506556E+02  0.62529629455E+02  0.47000000000E+01 0. -1.
         -5    1    1    2    0  503  0.69496475879E+02 -0.11504869634E+02 -0.29657155520E+03  0.30485881903E+03  0.47000000000E+01 0. -1.
<mgrwt>
<rscale>  0 0.15247752E+03</rscale>
<asrwt>0</asrwt>
<pdfrwt beam="1">  1        2 0.51582214E-02 0.16225352E+03</pdfrwt>
<pdfrwt beam="2">  1       -2 0.95676066E-01 0.16225352E+03</pdfrwt>
<totfact> 0.13981782E+03</totfact>
</mgrwt>
</event>
<event>
 7    1  0.6414246E-006  0.1345372E+03  0.7546771E-02  0.1251705E+00
          1   -1    0    0  501    0  0.00000000000E+00  0.00000000000E+00  0.97775232143E+02  0.97775232143E+02  0.00000000000E+00 0. -1.
         -1   -1    0    0    0  501 -0.00000000000E+00 -0.00000000000E+00 -0.11088216624E+03  0.11088216624E+03  0.00000000000E+00 0.  1.
         25    2    1    2    0    0 -0.46804651222E+02  0.16548433429E+02  0.54493339430E+01  0.13464756417E+03  0.12504297370E+03 0.  0.
          5    1    3    3  502    0 -0.49319915988E+02 -0.20833757413E+02 -0.46058573790E+02  0.70781224774E+02  0.47000000000E+01 0. -1.
         -5    1    1    2    0  503  0.32009302514E+02  0.14392697541E+02 -0.17200573669E+02  0.39366164716E+02  0.47000000000E+01 0.  1.
          5    1    1    2  503    0  0.14795348708E+02 -0.30941130971E+02 -0.13556943746E+01  0.34643669500E+02  0.47000000000E+01 0. -1.
         -5    1    3    3    0  502  0.25152647657E+01  0.37382190842E+02  0.51507907733E+02  0.63866339398E+02  0.47000000000E+01 0.  1.
<mgrwt>
<rscale>  0 0.11492899E+03</rscale>
<asrwt>0</asrwt>
<pdfrwt beam="1">  1        1 0.15042343E-01 0.13453725E+03</pdfrwt>
<pdfrwt beam="2">  1       -1 0.17058795E-01 0.13453725E+03</pdfrwt>
<totfact> 0.91278468E+03</totfact>
</mgrwt>
</event>
<event>
 7    1  0.6414246E-006  0.1632132E+03  0.7546771E-02  0.1185279E+00
         -1   -1    0    0    0  501 -0.00000000000E+00  0.00000000000E+00  0.35707324311E+03  0.35707324311E+03  0.00000000000E+00 0.  1.
          1   -1    0    0  501    0  0.00000000000E+00 -0.00000000000E+00 -0.11358834506E+03  0.11358834506E+03  0.00000000000E+00 0. -1.
         23    2    1    2    0    0  0.57611355145E+02  0.86474617234E+02  0.26023031953E+03  0.30717809600E+03  0.12586356024E+03 0.  0.
          5    1    3    3  502    0 -0.26686120183E+02  0.31300161504E+02  0.18684048897E+02  0.45420620910E+02  0.47000000000E+01 0. -1.
         -5    1    3    3    0  502  0.84297475329E+02  0.55174455729E+02  0.24154627063E+03  0.26175747509E+03  0.47000000000E+01 0.  1.
          5    1    1    2  503    0  0.33940061162E+02 -0.33517106333E+01 -0.19769921563E+02  0.39700145018E+02  0.47000000000E+01 0. -1.
         -5    1    1    2    0  503 -0.91551416308E+02 -0.83122906601E+02  0.30245000866E+01  0.12378334715E+03  0.47000000000E+01 0. -1.
<mgrwt>
<rscale>  0 0.16306564E+03</rscale>
<asrwt>0</asrwt>
<pdfrwt beam="1">  1        1 0.17475130E-01 0.16321325E+03</pdfrwt>
<pdfrwt beam="2">  1       -1 0.54934345E-01 0.16321325E+03</pdfrwt>
<totfact> 0.10395047E+03</totfact>
</mgrwt>
</event>
<event>
 7    1  0.6414246E-006  0.1535180E+03  0.7546771E-02  0.1201127E+00
         -2   -1    0    0    0  501 -0.00000000000E+00  0.00000000000E+00  0.20976880808E+02  0.20976880808E+02  0.00000000000E+00 0.  1.
          2   -1    0    0  501    0  0.00000000000E+00 -0.00000000000E+00 -0.11769334518E+04  0.11769334518E+04  0.00000000000E+00 0. -1.
         23    2    1    2    0    0 -0.83733423821E+02  0.31262008794E+02 -0.77504011993E+03  0.78722174591E+03  0.10508230239E+03 0.  0.
          5    1    1    2  502    0  0.60534369405E+02 -0.63172256245E+01 -0.52611822888E+02  0.80587909307E+02  0.47000000000E+01 0.  1.
         -5    1    3    3    0  503 -0.87371217507E+02  0.60184891535E+02 -0.65797862102E+03  0.66649374081E+03  0.47000000000E+01 0. -1.
          5    1    3    3  503    0  0.36377936865E+01 -0.28922882741E+02 -0.11706149891E+03  0.12072800510E+03  0.47000000000E+01 0.  1.
         -5    1    1    2    0  502  0.23199054415E+02 -0.24944783170E+02 -0.32830462822E+03  0.33010067744E+03  0.47000000000E+01 0.  1.
<mgrwt>
<rscale>  0 0.14946924E+03</rscale>
<asrwt>0</asrwt>
<pdfrwt beam="1">  1        2 0.18106669E+00 0.15351799E+03</pdfrwt>
<pdfrwt beam="2">  1       -2 0.32272124E-02 0.15351799E+03</pdfrwt>
<totfact> 0.76497007E+03</totfact>
</mgrwt>
</event>
<event>
 8    1  0.6414246E-006  0.1524381E+03  0.7546771E-02  0.1201423E+00
          2   -1    0    0  501    0  0.00000000000E+00  0.00000000000E+00  0.12950452931E+03  0.12950452931E+03  0.00000000000E+00 0. -1.
         -2   -1    0    0    0  501 -0.00000000000E+00 -0.00000000000E+00 -0.19154047184E+03  0.19154047184E+03  0.00000000000E+00 0.  1.
         25    2    1    2    0    0 -0.42477672685E+02  0.76307625682E+02 -0.91756733924E+02  0.17792322653E+03  0.12494066553E+03 0.  0.
         23    2    1    2    0    0  0.42477672685E+02 -0.76307625682E+02  0.29720791399E+02  0.14312177462E+03  0.10942262342E+03 0.  0.
          5    1    3    3  502    0 -0.37957776232E+02  0.54918094719E+02 -0.12268879855E+03  0.13975486108E+03  0.47000000000E+01 0. -1.
         -5    1    3    3    0  502 -0.45198964526E+01  0.21389530962E+02  0.30932064631E+02  0.38168365449E+02  0.47000000000E+01 0. -1.
          5    1    4    4  503    0  0.20693641150E+02 -0.34626402009E+02  0.70062285278E+02  0.80981654209E+02  0.47000000000E+01 0. -1.
         -5    1    4    4    0  503  0.21784031535E+02 -0.41681223672E+02 -0.40341493878E+02  0.62140120414E+02  0.47000000000E+01 0.  1.
<mgrwt>
<rscale>  0 0.14922913E+03</rscale>
<asrwt>0</asrwt>
<pdfrwt beam="1">  1        2 0.19923774E-01 0.15243811E+03</pdfrwt>
<pdfrwt beam="2">  1       -2 0.29467765E-01 0.15243811E+03</pdfrwt>
<totfact> 0.28596317E+03</totfact>
</mgrwt>
</event>
<event>
 8    1  0.6414246E-006  0.1386586E+03  0.7546771E-02  0.1231499E+00
         -3   -1    0    0    0  501 -0.00000000000E+00  0.00000000000E+00  0.16309862488E+03  0.16309862488E+03  0.00000000000E+00 0.  1.
          3   -1    0    0  501    0  0.00000000000E+00 -0.00000000000E+00 -0.95019862843E+02  0.95019862843E+02  0.00000000000E+00 0. -1.
         25    2    1    2    0    0 -0.75928377944E+01  0.59413128990E+02  0.77968827799E+02  0.15907656233E+03  0.12505456206E+03 0.  0.
         23    2    1    2    0    0  0.75928377944E+01 -0.59413128990E+02 -0.98900657619E+01  0.99041925392E+02  0.78255469473E+02 0.  0.
          5    1    3    3  502    0 -0.45967331744E+02  0.14541297303E+02 -0.13335775391E+02  0.50243186803E+02  0.47000000000E+01 0.  1.
         -5    1    3    3    0  502  0.38374493949E+02  0.44871831687E+02  0.91304603190E+02  0.10883337553E+03  0.47000000000E+01 0.  1.
          5    1    4    4  503    0 -0.29838507519E+02 -0.52347755292E+01 -0.12169507139E+02  0.32983727955E+02  0.47000000000E+01 0. -1.
         -5    1    4    4    0  503  0.37431345313E+02 -0.54178353461E+02  0.22794413774E+01  0.66058197437E+02  0.47000000000E+01 0.  1.
<mgrwt>
<rscale>  0 0.12731246E+03</rscale>
<asrwt>0</asrwt>
<pdfrwt beam="1">  1        3 0.14618440E-01 0.13865863E+03</pdfrwt>
<pdfrwt beam="2">  1       -3 0.25092096E-01 0.13865863E+03</pdfrwt>
<totfact> 0.13366554E+03</totfact>
</mgrwt>
</event>
<event>
 8    1  0.6414246E-006  0.1261307E+03  0.7546771E-02  0.1258247E+00
          2   -1    0    0  501    0  0.00000000000E+00  0.00000000000E+00  0.17510447419E+03  0.17510447419E+03  0.00000000000E+00 0. -1.
         -2   -1    0    0    0  501 -0.00000000000E+00 -0.00000000000E+00 -0.73801837524E+02  0.73801837524E+02  0.00000000000E+00 0.  1.
         25    2    1    2    0    0 -0.13023350407E+02 -0.10015551496E+02  0.53179612564E+01  0.12624275892E+03  0.12505612556E+03 0.  0.
         23    2    1    2    0    0  0.13023350407E+02  0.10015551496E+02  0.95984675409E+02  0.12266355279E+03  0.74588004012E+02 0.  0.
          5    1    3    3  502    0 -0.22611092735E+02 -0.64228574161E+02  0.15662049675E+02  0.70028287524E+02  0.47000000000E+01 0.  1.
         -5    1    3    3    0  502  0.95877423280E+01  0.54213022665E+02 -0.10344088419E+02  0.56214471399E+02  0.47000000000E+01 0.  1.
          5    1    4    4  503    0 -0.11503143534E+02  0.25376287145E+02  0.87784251940E+02  0.92219537784E+02  0.47000000000E+01 0. -1.
         -5    1    4    4    0  503  0.24526493941E+02 -0.15360735649E+02  0.82004234694E+01  0.30444015008E+02  0.47000000000E+01 0.  1.
<mgrwt>
<rscale>  0 0.11126403E+03</rscale>
<asrwt>0</asrwt>
<pdfrwt beam="1">  1        2 0.26939150E-01 0.12613070E+03</pdfrwt>
<pdfrwt beam="2">  1       -2 0.11354129E-01 0.12613070E+03</pdfrwt>
<totfact> 0.10016779E+04</totfact>
</mgrwt>
</event>
<event>
 7    1  0.6414246E-006  0.1387764E+03  0.7546771E-02  0.1242538E+00
          2   -1    0    0  501    0  0.00000000000E+00  0.00000000000E+00  0.20208229574E+03  0.20208229574E+03  0.00000000000E+00 0. -1.
         -2   -1    0    0    0  501 -0.00000000000E+00 -0.00000000000E+00 -0.58686072002E+02  0.58686072002E+02  0.00000000000E+00 0.  1.
         25    2    1    2    0    0 -0.23807988286E+02  0.55477013291E+02  0.82532273261E+02  0.16146347963E+03  0.12495743202E+03 0.  0.
          5    1    1    2  502    0 -0.22333827946E+01 -0.28472630575E+02  0.53439177622E+02  0.60774290579E+02  0.47000000000E+01 0. -1.
         -5    1    1    2    0  502  0.26041371080E+02 -0.27004382717E+02  0.74247728515E+01  0.38530597524E+02  0.47000000000E+01 0.  1.
          5    1    3    3  503    0 -0.46577867891E+02  0.74180275882E+02  0.94840139755E+02  0.12918573147E+03  0.47000000000E+01 0.  1.
         -5    1    3    3    0  503  0.22769879605E+02 -0.18703262591E+02 -0.12307866494E+02  0.32277748162E+02  0.47000000000E+01 0.  1.
<mgrwt>
<rscale>  0 0.12033948E+03</rscale>
<asrwt>0</asrwt>
<pdfrwt beam="1">  1        2 0.31089584E-01 0.13877636E+03</pdfrwt>
<pdfrwt beam="2">  1       -2 0.90286266E-02 0.13877636E+03</pdfrwt>
<totfact> 0.12388454E+04</totfact>
</mgrwt>
</event>
<event>
 7    1  0.6414246E-006  0.1264901E+03  0.7546771E-02  0.1256025E+00
         -1   -1    0    0    0  501 -0.00000000000E+00  0.00000000000E+00  0.66481324114E+02  0.66481324114E+02  0.00000000000E+00 0.  1.
          1   -1    0    0  501    0  0.00000000000E+00 -0.00000000000E+00 -0.16108979053E+03  0.16108979053E+03  0.00000000000E+00 0. -1.
         23    2    1    2    0    0  0.23384440909E+02  0.27351347194E+01 -0.23873002323E+02  0.82646147955E+02  0.75539079246E+02 0.  0.
          5    1    1    2  502    0 -0.29318435767E+02  0.50036980771E+02 -0.23729409491E+01  0.58232215905E+02  0.47000000000E+01 0. -1.
         -5    1    3    3    0  503  0.25772907800E+02 -0.19265617597E+02 -0.42378859036E+02  0.53417829337E+02  0.47000000000E+01 0.  1.
          5    1    3    3  503    0 -0.23884668917E+01  0.22000752316E+02  0.18505856712E+02  0.29228318618E+02  0.47000000000E+01 0. -1.
         -5    1    1    2    0  502  0.59339948580E+01 -0.52772115490E+02 -0.68362523147E+02  0.86692750788E+02  0.47000000000E+01 0.  1.
<mgrwt>
<rscale>  0 0.11249110E+03</rscale>
<asrwt>0</asrwt>
<pdfrwt beam="1">  1        1 0.24783044E-01 0.12649008E+03</pdfrwt>
<pdfrwt beam="2">  1       -1 0.10227896E-01 0.12649008E+03</pdfrwt>
<totfact> 0.10641448E+04</totfact>
</mgrwt>
</event>
<event>
 8    1  0.6414246E-006  0.1254996E+03  0.7546771E-02  0.1243071E+00
          1   -1    0    0  501    0  0.00000000000E+00  0.00000000000E+00  0.70177917719E+03  0.70177917719E+03  0.00000000000E+00 0. -1.
         -1   -1    0    0    0  501 -0.00000000000E+00 -0.00000000000E+00 -0.20126853456E+02  0.20126853456E+02  0.00000000000E+00 0.  1.
         25    2    1    2    0    0 -0.10557463313E+02 -0.49301116148E+00  0.45742757082E+03  0.47433125440E+03  0.12505380147E+03 0.  0.
         23    2    1    2    0    0  0.10557463313E+02  0.49301116148E+00  0.22422475291E+03  0.24757477624E+03  0.10442617930E+03 0.  0.
          5    1    4    4  502    0 -0.73319185369E+01 -0.47796896821E+02  0.72443327604E+02  0.87226292421E+02  0.47000000000E+01 0. -1.
         -5    1    3    3    0  503 -0.45455729120E+02 -0.39687384035E+02  0.13946280037E+03  0.15203050499E+03  0.47000000000E+01 0. -1.
          5    1    3    3  503    0  0.34898265807E+02  0.39194372873E+02  0.31796477045E+03  0.32230074940E+03  0.47000000000E+01 0. -1.
         -5    1    4    4    0  502  0.17889381850E+02  0.48289907983E+02  0.15178142531E+03  0.16034848382E+03  0.47000000000E+01 0.  1.
<mgrwt>
<rscale>  0 0.12001552E+03</rscale>
<asrwt>0</asrwt>
<pdfrwt beam="1">  1        1 0.10796601E+00 0.12549963E+03</pdfrwt>
<pdfrwt beam="2">  1       -1 0.30964395E-02 0.12549963E+03</pdfrwt>
<totfact> 0.96399680E+03</totfact>
</mgrwt>
</event>
<event>
 8    1  0.6414246E-006  0.2498547E+03  0.7546771E-02  0.1116716E+00
          2   -1    0    0  501    0  0.00000000000E+00  0.00000000000E+00  0.12074961928E+04  0.12074961928E+04  0.00000000000E+00 0. -1.
         -2   -1    0    0    0  501 -0.00000000000E+00 -0.00000000000E+00 -0.71386362504E+02  0.71386362504E+02  0.00000000000E+00 0.  1.
         25    2    1    2    0    0 -0.19488217136E+03  0.93858002549E+02  0.95258668537E+03  0.98480899598E+03  0.12505590773E+03 0.  0.
         23    2    1    2    0    0  0.19488217136E+03 -0.93858002549E+02  0.18352314490E+03  0.29407355929E+03  0.77525016645E+02 0.  0.
          5    1    4    4  502    0  0.96858610318E+02 -0.88564687112E+02  0.11056535464E+03  0.17167434824E+03  0.47000000000E+01 0. -1.
         -5    1    3    3    0  503 -0.32191761326E+02  0.40188794748E+02  0.77948647816E+02  0.93538924609E+02  0.47000000000E+01 0.  1.
          5    1    3    3  503    0 -0.16269041004E+03  0.53669207801E+02  0.87463803755E+03  0.89127007137E+03  0.47000000000E+01 0.  1.
         -5    1    4    4    0  502  0.98023561047E+02 -0.52933154362E+01  0.72957790259E+02  0.12239921106E+03  0.47000000000E+01 0.  1.
<mgrwt>
<rscale>  0 0.24467711E+03</rscale>
<asrwt>0</asrwt>
<pdfrwt beam="1">  1        2 0.18576863E+00 0.24985469E+03</pdfrwt>
<pdfrwt beam="2">  1       -2 0.10982518E-01 0.24985469E+03</pdfrwt>
<totfact> 0.11319488E+03</totfact>
</mgrwt>
</event>
<event>
 8    1  0.6414246E-006  0.2005601E+03  0.7546771E-02  0.1157174E+00
         -1   -1    0    0    0  501 -0.00000000000E+00  0.00000000000E+00  0.17059071732E+03  0.17059071732E+03  0.00000000000E+00 0.  1.
          1   -1    0    0  501    0  0.00000000000E+00 -0.00000000000E+00 -0.20143684769E+03  0.20143684769E+03  0.00000000000E+00 0. -1.
         25    2    1    2    0    0 -0.11441731901E+03 -0.10722030351E+03  0.93165647702E+01  0.20077640701E+03  0.12504739445E+03 0.  0.
         23    2    1    2    0    0  0.11441731901E+03  0.10722030351E+03 -0.40162695141E+02  0.17125115800E+03  0.55914225918E+02 0.  0.
          5    1    3    3  502    0 -0.50451034749E+02  0.19875708420E+02  0.20063584826E+02  0.58008517724E+02  0.47000000000E+01 0.  1.
         -5    1    4    4    0  503  0.73593056173E+02  0.31617049619E+02 -0.15291963699E+02  0.81679311317E+02  0.47000000000E+01 0.  1.
          5    1    4    4  503    0  0.40824262838E+02  0.75603253891E+02 -0.24870731442E+02  0.89571846680E+02  0.47000000000E+01 0. -1.
         -5    1    3    3    0  502 -0.63966284262E+02 -0.12709601193E+03 -0.10747020056E+02  0.14276788929E+03  0.47000000000E+01 0.  1.
<mgrwt>
<rscale>  0 0.19143472E+03</rscale>
<asrwt>0</asrwt>
<pdfrwt beam="1">  1        1 0.30990284E-01 0.20056013E+03</pdfrwt>
<pdfrwt beam="2">  1       -1 0.26244726E-01 0.20056013E+03</pdfrwt>
<totfact> 0.18459646E+03</totfact>
</mgrwt>
</event>
<event>
 8    1  0.6414246E-006  0.1860383E+03  0.7546771E-02  0.1171511E+00
          2   -1    0    0  501    0  0.00000000000E+00  0.00000000000E+00  0.26829424202E+03  0.26829424202E+03  0.00000000000E+00 0. -1.
         -2   -1    0    0    0  501 -0.00000000000E+00 -0.00000000000E+00 -0.10550037940E+03  0.10550037940E+03  0.00000000000E+00 0.  1.
         25    2    1    2    0    0  0.11260877080E+03 -0.79344128617E+02  0.78410147079E+02  0.20188705340E+03  0.12503601544E+03 0.  0.
         23    2    1    2    0    0 -0.11260877080E+03  0.79344128617E+02  0.84383715535E+02  0.17190756802E+03  0.58782433503E+02 0.  0.
          5    1    4    4  502    0 -0.32998332132E+02  0.17310222259E+02  0.55156673282E+02  0.66729920768E+02  0.47000000000E+01 0. -1.
         -5    1    4    4    0  502 -0.79610438669E+02  0.62033906358E+02  0.29227042253E+02  0.10517764725E+03  0.47000000000E+01 0.  1.
          5    1    3    3  503    0  0.79443372158E+02 -0.60161872625E+02 -0.14935216212E+02  0.10087542308E+03  0.47000000000E+01 0. -1.
         -5    1    3    3    0  503  0.33165398643E+02 -0.19182255992E+02  0.93345363291E+02  0.10101163032E+03  0.47000000000E+01 0. -1.
<mgrwt>
<rscale>  0 0.17622163E+03</rscale>
<asrwt>0</asrwt>
<pdfrwt beam="1">  1        2 0.41276037E-01 0.18603825E+03</pdfrwt>
<pdfrwt beam="2">  1       -2 0.16230828E-01 0.18603825E+03</pdfrwt>
<totfact> 0.36266522E+03</totfact>
</mgrwt>
</event>
<event>
 7    1  0.6414246E-006  0.1461219E+03  0.7546771E-02  0.1222317E+00
          2   -1    0    0  501    0  0.00000000000E+00  0.00000000000E+00  0.28574842558E+03  0.28574842558E+03  0.00000000000E+00 0.  1.
         -2   -1    0    0    0  501 -0.00000000000E+00 -0.00000000000E+00 -0.60549786286E+02  0.60549786286E+02  0.00000000000E+00 0. -1.
         23    2    1    2    0    0 -0.13455901728E+02 -0.74171019663E+02  0.37811944443E+02  0.10867377670E+03  0.68540828348E+02 0.  0.
          5    1    3    3  502    0 -0.28032269364E+02 -0.44263922019E+02 -0.65640657687E+01  0.53012072942E+02  0.47000000000E+01 0. -1.
         -5    1    1    2    0  503  0.24731759610E+02 -0.24898118000E+02  0.95879825899E+02  0.10220864556E+03  0.47000000000E+01 0. -1.
          5    1    1    2  503    0 -0.11275857882E+02  0.99069137663E+02  0.91506868949E+02  0.13541578960E+03  0.47000000000E+01 0. -1.
         -5    1    3    3    0  502  0.14576367636E+02 -0.29907097644E+02  0.44376010212E+02  0.55661703758E+02  0.47000000000E+01 0.  1.
<mgrwt>
<rscale>  0 0.13352493E+03</rscale>
<asrwt>0</asrwt>
<pdfrwt beam="1">  1        2 0.43961296E-01 0.14612186E+03</pdfrwt>
<pdfrwt beam="2">  1       -2 0.93153519E-02 0.14612186E+03</pdfrwt>
<totfact> 0.81755746E+03</totfact>
</mgrwt>
</event>
<event>
 8    1  0.6414246E-006  0.1292885E+03  0.7546771E-02  0.1255685E+00
         -2   -1    0    0    0  501 -0.00000000000E+00  0.00000000000E+00  0.30693782880E+02  0.30693782880E+02  0.00000000000E+00 0.  1.
          2   -1    0    0  501    0  0.00000000000E+00 -0.00000000000E+00 -0.38161715029E+03  0.38161715029E+03  0.00000000000E+00 0. -1.
         25    2    1    2    0    0 -0.23817433750E+02  0.22395246730E+02 -0.28420982195E+03  0.31223509011E+03  0.12508681537E+03 0.  0.
         23    2    1    2    0    0  0.23817433750E+02 -0.22395246730E+02 -0.66713545468E+02  0.10007584306E+03  0.67049682990E+02 0.  0.
          5    1    3    3  502    0  0.51149017245E+01  0.54468317404E+02 -0.25261240827E+03  0.25851127370E+03  0.47000000000E+01 0. -1.
         -5    1    3    3    0  502 -0.28932335475E+02 -0.32073070675E+02 -0.31597413680E+02  0.53723816411E+02  0.47000000000E+01 0. -1.
          5    1    4    4  503    0  0.22451648740E+02 -0.78335811398E+00 -0.73420169934E+02  0.76923998428E+02  0.47000000000E+01 0. -1.
         -5    1    4    4    0  503  0.13657850107E+01 -0.21611888616E+02  0.67066244654E+01  0.23151844634E+02  0.47000000000E+01 0.  1.
<mgrwt>
<rscale>  0 0.11268032E+03</rscale>
<asrwt>0</asrwt>
<pdfrwt beam="1">  1        2 0.58710336E-01 0.12928855E+03</pdfrwt>
<pdfrwt beam="2">  1       -2 0.47221200E-02 0.12928855E+03</pdfrwt>
<totfact> 0.16813063E+04</totfact>
</mgrwt>
</event>
<event>
 6    1  0.6414246E-006  0.3148876E+03  0.7546771E-02  0.1078027E+00
         -2   -1    0    0    0  501 -0.00000000000E+00  0.00000000000E+00  0.10438115981E+03  0.10438115981E+03  0.00000000000E+00 0.  1.
          2   -1    0    0  501    0  0.00000000000E+00 -0.00000000000E+00 -0.23748102439E+03  0.23748102439E+03  0.00000000000E+00 0. -1.
          5    1    1    2  502    0 -0.22163186289E+02  0.12708947454E+00 -0.11151783336E+03  0.11379604622E+03  0.47000000000E+01 0. -1.
         -5    1    1    2    0  503  0.61701819224E+01  0.45478771960E+02 -0.14766420753E+02  0.48440964336E+02  0.47000000000E+01 0.  1.
          5    1    1    2  503    0 -0.61586884905E+02 -0.63881629269E+02  0.27069169120E+02  0.92890456276E+02  0.47000000000E+01 0. -1.
         -5    1    1    2    0  502  0.77579889272E+02  0.18275767834E+02 -0.33884779579E+02  0.86734717366E+02  0.47000000000E+01 0. -1.
<mgrwt>
<rscale>  0 0.31488757E+03</rscale>
<asrwt>0</asrwt>
<pdfrwt beam="1">  1        2 0.36535542E-01 0.31488757E+03</pdfrwt>
<pdfrwt beam="2">  1       -2 0.16058640E-01 0.31488757E+03</pdfrwt>
<totfact> 0.43078369E+03</totfact>
</mgrwt>
</event>
<event>
 8    1  0.6414246E-006  0.1256318E+03  0.7546771E-02  0.1240214E+00
          1   -1    0    0  501    0  0.00000000000E+00  0.00000000000E+00  0.51822373770E+02  0.51822373770E+02  0.00000000000E+00 0. -1.
         -1   -1    0    0    0  501 -0.00000000000E+00 -0.00000000000E+00 -0.27233887552E+03  0.27233887552E+03  0.00000000000E+00 0.  1.
         25    2    1    2    0    0  0.24108207384E+01 -0.12950448659E+02 -0.10150762691E+03  0.16151515518E+03  0.12493926866E+03 0.  0.
         23    2    1    2    0    0 -0.24108207384E+01  0.12950448659E+02 -0.11900887484E+03  0.16264609411E+03  0.11007776098E+03 0.  0.
          5    1    4    4  502    0 -0.47199498275E+02  0.15143305149E+02 -0.19637448376E+02  0.53524122664E+02  0.47000000000E+01 0. -1.
         -5    1    4    4    0  502  0.44788677536E+02 -0.21928564892E+01 -0.99371426466E+02  0.10912197145E+03  0.47000000000E+01 0.  1.
          5    1    3    3  503    0 -0.43035845315E+02  0.98400970902E+01 -0.10114117069E+03  0.11045604511E+03  0.47000000000E+01 0. -1.
         -5    1    3    3    0  503  0.45446666054E+02 -0.22790545750E+02 -0.36645621993E+00  0.51059110070E+02  0.47000000000E+01 0.  1.
<mgrwt>
<rscale>  0 0.12176472E+03</rscale>
<asrwt>0</asrwt>
<pdfrwt beam="1">  1        1 0.79726730E-02 0.12563179E+03</pdfrwt>
<pdfrwt beam="2">  1       -1 0.41898288E-01 0.12563179E+03</pdfrwt>
<totfact> 0.47141714E+03</totfact>
</mgrwt>
</event>
<event>
 7    1  0.6414246E-006  0.1328799E+03  0.7546771E-02  0.1243928E+00
         -2   -1    0    0    0  501 -0.00000000000E+00  0.00000000000E+00  0.33186178336E+02  0.33186178336E+02  0.00000000000E+00 0.  1.
          2   -1    0    0  501    0  0.00000000000E+00 -0.00000000000E+00 -0.51378795861E+03  0.51378795861E+03  0.00000000000E+00 0. -1.
         23    2    1    2    0    0 -0.37684501760E+02  0.17707410592E+02 -0.35010665723E+03  0.36073225019E+03  0.76285062959E+02 0.  0.
          5    1    1    2  502    0  0.16130988198E+02  0.26765353306E+02  0.13173775701E+02  0.34237863310E+02  0.47000000000E+01 0.  1.
         -5    1    1    2    0  502  0.21553513562E+02 -0.44472763898E+02 -0.14366889875E+03  0.15200402344E+03  0.47000000000E+01 0.  1.
          5    1    3    3  503    0 -0.11067828265E+02  0.41612726837E+02 -0.26145168758E+03  0.26501545388E+03  0.47000000000E+01 0. -1.
         -5    1    3    3    0  503 -0.26616673495E+02 -0.23905316246E+02 -0.88654969645E+02  0.95716796309E+02  0.47000000000E+01 0.  1.
<mgrwt>
<rscale>  0 0.11949782E+03</rscale>
<asrwt>0</asrwt>
<pdfrwt beam="1">  1        2 0.79044303E-01 0.13287988E+03</pdfrwt>
<pdfrwt beam="2">  1       -2 0.51055658E-02 0.13287988E+03</pdfrwt>
<totfact> 0.10872418E+04</totfact>
</mgrwt>
</event>
<event>
 8    1  0.6414246E-006  0.2074539E+03  0.7546771E-02  0.1143933E+00
          1   -1    0    0  501    0  0.00000000000E+00  0.00000000000E+00  0.72288412645E+03  0.72288412645E+03  0.00000000000E+00 0. -1.
         -1   -1    0    0    0  501 -0.00000000000E+00 -0.00000000000E+00 -0.59100785099E+02  0.59100785099E+02  0.00000000000E+00 0.  1.
         25    2    1    2    0    0  0.65279457679E+02 -0.15220933501E+03  0.34349231124E+03  0.40127807116E+03  0.12493211457E+03 0.  0.
         23    2    1    2    0    0 -0.65279457679E+02  0.15220933501E+03  0.32029103011E+03  0.38070684039E+03  0.12215672349E+03 0.  0.
          5    1    4    4  502    0 -0.22207617081E+02  0.35054457201E+02  0.20987839748E+03  0.21399304885E+03  0.47000000000E+01 0. -1.
         -5    1    4    4    0  502 -0.43071840598E+02  0.11715487781E+03  0.11041263262E+03  0.16671379154E+03  0.47000000000E+01 0.  1.
          5    1    3    3  503    0 -0.59329633572E+01 -0.13333742756E+03  0.22656068147E+03  0.26299411026E+03  0.47000000000E+01 0. -1.
         -5    1    3    3    0  503  0.71212421036E+02 -0.18871907449E+02  0.11693162977E+03  0.13828396090E+03  0.47000000000E+01 0. -1.
<mgrwt>
<rscale>  0 0.20703779E+03</rscale>
<asrwt>0</asrwt>
<pdfrwt beam="1">  1        1 0.11121294E+00 0.20745390E+03</pdfrwt>
<pdfrwt beam="2">  1       -1 0.90924290E-02 0.20745390E+03</pdfrwt>
<totfact> 0.18909550E+03</totfact>
</mgrwt>
</event>
<event>
 8    1  0.6414246E-006  0.1466102E+03  0.7546771E-02  0.1219009E+00
          1   -1    0    0  501    0  0.00000000000E+00  0.00000000000E+00  0.45163448649E+02  0.45163448649E+02  0.00000000000E+00 0. -1.
         -1   -1    0    0    0  501 -0.00000000000E+00 -0.00000000000E+00 -0.37802389371E+03  0.37802389371E+03  0.00000000000E+00 0.  1.
         25    2    1    2    0    0  0.18897361719E+02  0.74326710782E+02 -0.23706180515E+03  0.27873438350E+03  0.12495193823E+03 0.  0.
         23    2    1    2    0    0 -0.18897361719E+02 -0.74326710782E+02 -0.95798639912E+02  0.14445295886E+03  0.76208317780E+02 0.  0.
          5    1    4    4  502    0  0.45571117324E+01 -0.31163439717E+02  0.49894471472E+01  0.32232155143E+02  0.47000000000E+01 0. -1.
         -5    1    3    3    0  503 -0.24886112332E+02 -0.13699977482E+02 -0.87247531539E+01  0.30086862375E+02  0.47000000000E+01 0.  1.
          5    1    3    3  503    0  0.43783474051E+02  0.88026688264E+02 -0.22833705200E+03  0.24864752113E+03  0.47000000000E+01 0.  1.
         -5    1    4    4    0  502 -0.23454473451E+02 -0.43163271065E+02 -0.10078808706E+03  0.11222080372E+03  0.47000000000E+01 0.  1.
<mgrwt>
<rscale>  0 0.13586158E+03</rscale>
<asrwt>0</asrwt>
<pdfrwt beam="1">  1        1 0.69482229E-02 0.14661022E+03</pdfrwt>
<pdfrwt beam="2">  1       -1 0.58157522E-01 0.14661022E+03</pdfrwt>
<totfact> 0.31499325E+03</totfact>
</mgrwt>
</event>
<event>
 8    1  0.8779391E-006  0.2414245E+03  0.7546771E-02  0.1120516E+00
          2   -1    0    0  501    0  0.00000000000E+00  0.00000000000E+00  0.95641484847E+03  0.95641484847E+03  0.00000000000E+00 0. -1.
         -2   -1    0    0    0  501 -0.00000000000E+00 -0.00000000000E+00 -0.58635585496E+02  0.58635585496E+02  0.00000000000E+00 0.  1.
         25    2    1    2    0    0  0.78011932961E+01 -0.20637582172E+03  0.48478307733E+03  0.54157217237E+03  0.12503578453E+03 0.  0.
         23    2    1    2    0    0 -0.78011932961E+01  0.20637582172E+03  0.41299618565E+03  0.47347826160E+03  0.10470900840E+03 0.  0.
          5    1    4    4  502    0 -0.40679770410E+02  0.18990291696E+03  0.35394823965E+03  0.40375661969E+03  0.47000000000E+01 0. -1.
         -5    1    3    3    0  503  0.58093929083E+02 -0.78966900736E+02  0.26461094873E+03  0.28222636340E+03  0.47000000000E+01 0.  1.
          5    1    3    3  503    0 -0.50292735787E+02 -0.12740892099E+03  0.22017212859E+03  0.25934580897E+03  0.47000000000E+01 0.  1.
         -5    1    4    4    0  502  0.32878577114E+02  0.16472904759E+02  0.59047946004E+02  0.69721641916E+02  0.47000000000E+01 0.  1.
<mgrwt>
<rscale>  0 0.23891731E+03</rscale>
<asrwt>0</asrwt>
<pdfrwt beam="1">  1        2 0.14714073E+00 0.24142449E+03</pdfrwt>
<pdfrwt beam="2">  1       -2 0.90208600E-02 0.24142449E+03</pdfrwt>
<totfact> 0.21816374E+03</totfact>
</mgrwt>
</event>
<event>
 7    1  0.6414246E-006  0.1454782E+03  0.7546771E-02  0.1212231E+00
          2   -1    0    0  501    0  0.00000000000E+00  0.00000000000E+00  0.73683192887E+03  0.73683192887E+03  0.00000000000E+00 0. -1.
         -2   -1    0    0    0  501 -0.00000000000E+00 -0.00000000000E+00 -0.31670357439E+02  0.31670357439E+02  0.00000000000E+00 0.  1.
         23    2    1    2    0    0  0.33171644720E+02  0.66431150586E+02  0.50598030116E+03  0.52185056089E+03  0.10391576861E+03 0.  0.
          5    1    3    3  502    0 -0.11070289945E+02 -0.23860470020E+02  0.91402184475E+02  0.95227741105E+02  0.47000000000E+01 0. -1.
         -5    1    1    2    0  503 -0.30157779646E+02 -0.10317046599E+03  0.13679338038E+03  0.17403492650E+03  0.47000000000E+01 0. -1.
          5    1    1    2  503    0 -0.30138650739E+01  0.36739315405E+02  0.62387889899E+02  0.72616798918E+02  0.47000000000E+01 0. -1.
         -5    1    3    3    0  502  0.44241934665E+02  0.90291620606E+02  0.41457811668E+03  0.42662281979E+03  0.47000000000E+01 0.  1.
<mgrwt>
<rscale>  0 0.14081910E+03</rscale>
<asrwt>0</asrwt>
<pdfrwt beam="1">  1        2 0.11335875E+00 0.14547816E+03</pdfrwt>
<pdfrwt beam="2">  1       -2 0.48723632E-02 0.14547816E+03</pdfrwt>
<totfact> 0.77497638E+03</totfact>
</mgrwt>
</event>
<event>
 8    1  0.6414246E-006  0.1760015E+03  0.7546771E-02  0.1182747E+00
         -1   -1    0    0    0  501 -0.00000000000E+00  0.00000000000E+00  0.68274890261E+02  0.68274890261E+02  0.00000000000E+00 0.  1.
          1   -1    0    0  501    0  0.00000000000E+00 -0.00000000000E+00 -0.51025532130E+03  0.51025532130E+03  0.00000000000E+00 0. -1.
         25    2    1    2    0    0  0.12328179055E+03  0.12713125359E+02 -0.83744297956E+02  0.19490933899E+03  0.12496607359E+03 0.  0.
         23    2    1    2    0    0 -0.12328179055E+03 -0.12713125359E+02 -0.35823613308E+03  0.38362087257E+03  0.58922180776E+02 0.  0.
          5    1    4    4  502    0 -0.96077654619E+02 -0.89009651995E+01 -0.33039311154E+03  0.34422643862E+03  0.47000000000E+01 0. -1.
         -5    1    4    4    0  502 -0.27204135931E+02 -0.38121601590E+01 -0.27843021544E+02  0.39394433941E+02  0.47000000000E+01 0. -1.
          5    1    3    3  503    0 -0.20015487754E+02 -0.18475832899E+02 -0.23554015927E+02  0.36316082080E+02  0.47000000000E+01 0.  1.
         -5    1    3    3    0  503  0.14329727830E+03  0.31188958258E+02 -0.60190282029E+02  0.15859325691E+03  0.47000000000E+01 0.  1.
<mgrwt>
<rscale>  0 0.16538609E+03</rscale>
<asrwt>0</asrwt>
<pdfrwt beam="1">  1        1 0.78500819E-01 0.17600154E+03</pdfrwt>
<pdfrwt beam="2">  1       -1 0.10503829E-01 0.17600154E+03</pdfrwt>
<totfact> 0.24468467E+03</totfact>
</mgrwt>
</event>
<event>
 7    1  0.6414246E-006  0.1212170E+03  0.7546771E-02  0.1266557E+00
          4   -1    0    0  501    0  0.00000000000E+00  0.00000000000E+00  0.12151215294E+03  0.12151215294E+03  0.00000000000E+00 0. -1.
         -4   -1    0    0    0  501 -0.00000000000E+00 -0.00000000000E+00 -0.78888266877E+02  0.78888266877E+02  0.00000000000E+00 0.  1.
         23    2    1    2    0    0 -0.15305468228E+02  0.20775230377E+01  0.28004061663E+02  0.78304993684E+02  0.71476367469E+02 0.  0.
          5    1    3    3  502    0  0.95780066539E+01 -0.28411486555E+02  0.23564679620E+02  0.38423103796E+02  0.47000000000E+01 0. -1.
         -5    1    1    2    0  503 -0.27028503128E+02  0.43635544901E+02 -0.13941723516E+02  0.53395340758E+02  0.47000000000E+01 0.  1.
          5    1    1    2  503    0  0.42333971356E+02 -0.45713067938E+02  0.28561547914E+02  0.68700085374E+02  0.47000000000E+01 0. -1.
         -5    1    3    3    0  502 -0.24883474882E+02  0.30489009593E+02  0.44393820433E+01  0.39881889889E+02  0.47000000000E+01 0.  1.
<mgrwt>
<rscale>  0 0.10682942E+03</rscale>
<asrwt>0</asrwt>
<pdfrwt beam="1">  1        4 0.18694177E-01 0.12121697E+03</pdfrwt>
<pdfrwt beam="2">  1       -4 0.12136657E-01 0.12121697E+03</pdfrwt>
<totfact> 0.22206273E+03</totfact>
</mgrwt>
</event>
<event>
 8    1  0.6414246E-006  0.1750245E+03  0.7546771E-02  0.1180944E+00
         -2   -1    0    0    0  501 -0.00000000000E+00  0.00000000000E+00  0.22708365560E+02  0.22708365560E+02  0.00000000000E+00 0.  1.
          2   -1    0    0  501    0  0.00000000000E+00 -0.00000000000E+00 -0.12934431650E+04  0.12934431650E+04  0.00000000000E+00 0. -1.
         25    2    1    2    0    0  0.49640146472E+01 -0.12236873114E+03 -0.92023694726E+03  0.93673348587E+03  0.12503934041E+03 0.  0.
         23    2    1    2    0    0 -0.49640146472E+01  0.12236873114E+03 -0.35049785221E+03  0.37941804471E+03  0.78170073886E+02 0.  0.
          5    1    3    3  502    0 -0.52282644828E+02 -0.27408014082E+02 -0.43212641101E+03  0.43616510553E+03  0.47000000000E+01 0.  1.
         -5    1    4    4    0  503  0.23031380483E+02  0.10537468301E+03 -0.22394069735E+03  0.24860771153E+03  0.47000000000E+01 0.  1.
          5    1    4    4  503    0 -0.27995395130E+02  0.16994048127E+02 -0.12655715486E+03  0.13081033318E+03  0.47000000000E+01 0. -1.
         -5    1    3    3    0  502  0.57246659475E+02 -0.94960717053E+02 -0.48811053624E+03  0.50056838034E+03  0.47000000000E+01 0.  1.
<mgrwt>
<rscale>  0 0.16706421E+03</rscale>
<asrwt>0</asrwt>
<pdfrwt beam="1">  1        2 0.19899127E+00 0.17502453E+03</pdfrwt>
<pdfrwt beam="2">  1       -2 0.34935944E-02 0.17502453E+03</pdfrwt>
<totfact> 0.58906791E+03</totfact>
</mgrwt>
</event>
<event>
 8    1  0.6414246E-006  0.1513408E+03  0.7546771E-02  0.1203921E+00
         -2   -1    0    0    0  501 -0.00000000000E+00  0.00000000000E+00  0.76258877126E+02  0.76258877126E+02  0.00000000000E+00 0.  1.
          2   -1    0    0  501    0  0.00000000000E+00 -0.00000000000E+00 -0.29986260817E+03  0.29986260817E+03  0.00000000000E+00 0. -1.
         25    2    1    2    0    0  0.84813590375E+02 -0.79336281159E+01 -0.57898993015E+02  0.16203806737E+03  0.12509098416E+03 0.  0.
         23    2    1    2    0    0 -0.84813590375E+02  0.79336281159E+01 -0.16570473803E+03  0.21408341792E+03  0.10543890201E+03 0.  0.
          5    1    4    4  502    0 -0.46628747207E+02 -0.36131493630E+02 -0.13634261211E+03  0.14863082714E+03  0.47000000000E+01 0. -1.
         -5    1    3    3    0  503  0.10060883545E+02  0.49044729835E+02 -0.44173897262E+02  0.66933026987E+02  0.47000000000E+01 0. -1.
          5    1    3    3  503    0  0.74752706830E+02 -0.56978357951E+02 -0.13725095753E+02  0.95105040385E+02  0.47000000000E+01 0. -1.
         -5    1    4    4    0  502 -0.38184843168E+02  0.44065121746E+02 -0.29362125917E+02  0.65452590786E+02  0.47000000000E+01 0.  1.
<mgrwt>
<rscale>  0 0.14722836E+03</rscale>
<asrwt>0</asrwt>
<pdfrwt beam="1">  1        2 0.46132708E-01 0.15134081E+03</pdfrwt>
<pdfrwt beam="2">  1       -2 0.11732135E-01 0.15134081E+03</pdfrwt>
<totfact> 0.54058529E+03</totfact>
</mgrwt>
</event>
<event>
 8    1  0.6414246E-006  0.1523973E+03  0.7546771E-02  0.1211490E+00
         -1   -1    0    0    0  501 -0.00000000000E+00  0.00000000000E+00  0.33804280239E+02  0.33804280239E+02  0.00000000000E+00 0.  1.
          1   -1    0    0  501    0  0.00000000000E+00 -0.00000000000E+00 -0.53762079292E+03  0.53762079292E+03  0.00000000000E+00 0. -1.
         25    2    1    2    0    0  0.75086642963E+02  0.44173377872E+02 -0.33885816651E+03  0.37155052703E+03  0.12504257620E+03 0.  0.
         23    2    1    2    0    0 -0.75086642963E+02 -0.44173377872E+02 -0.16495834617E+03  0.19987454613E+03  0.71758532277E+02 0.  0.
          5    1    4    4  502    0 -0.64563549394E+02 -0.18175772776E+02 -0.15629882463E+03  0.17014765120E+03  0.47000000000E+01 0. -1.
         -5    1    3    3    0  503  0.32787412836E+02 -0.35846349495E+02 -0.54798404515E+02  0.73382084667E+02  0.47000000000E+01 0.  1.
          5    1    3    3  503    0  0.42299230127E+02  0.80019727367E+02 -0.28405976200E+03  0.29816844237E+03  0.47000000000E+01 0.  1.
         -5    1    4    4    0  502 -0.10523093569E+02 -0.25997605097E+02 -0.86595215392E+01  0.29726894932E+02  0.47000000000E+01 0.  1.
<mgrwt>
<rscale>  0 0.14137515E+03</rscale>
<asrwt>0</asrwt>
<pdfrwt beam="1">  1        1 0.82710894E-01 0.15239730E+03</pdfrwt>
<pdfrwt beam="2">  1       -1 0.52006583E-02 0.15239730E+03</pdfrwt>
<totfact> 0.65650219E+03</totfact>
</mgrwt>
</event>
<event>
 8    1  0.7610868E-006  0.2462814E+03  0.7546771E-02  0.1117335E+00
          2   -1    0    0  501    0  0.00000000000E+00  0.00000000000E+00  0.46333580005E+03  0.46333580005E+03  0.00000000000E+00 0.  1.
         -2   -1    0    0    0  501 -0.00000000000E+00 -0.00000000000E+00 -0.12570478250E+03  0.12570478250E+03  0.00000000000E+00 0. -1.
         25    2    1    2    0    0  0.53779839528E+02 -0.20525214831E+03  0.18017447173E+03  0.30515136173E+03  0.12503518615E+03 0.  0.
         23    2    1    2    0    0 -0.53779839528E+02  0.20525214831E+03  0.15745654581E+03  0.28388922082E+03  0.10382586555E+03 0.  0.
          5    1    3    3  502    0  0.23909123248E+02 -0.12376389930E+03  0.17805453091E+03  0.21820782507E+03  0.47000000000E+01 0.  1.
         -5    1    4    4    0  503 -0.55960757970E+02  0.63403935960E+02  0.99245408222E+02  0.13047377737E+03  0.47000000000E+01 0.  1.
          5    1    4    4  503    0  0.21809184422E+01  0.14184821235E+03  0.58211137587E+02  0.15341544345E+03  0.47000000000E+01 0. -1.
         -5    1    3    3    0  502  0.29870716280E+02 -0.81488249009E+02  0.21199408243E+01  0.86943536658E+02  0.47000000000E+01 0.  1.
<mgrwt>
<rscale>  0 0.24372690E+03</rscale>
<asrwt>0</asrwt>
<pdfrwt beam="1">  1        2 0.71282430E-01 0.24628137E+03</pdfrwt>
<pdfrwt beam="2">  1       -2 0.19339198E-01 0.24628137E+03</pdfrwt>
<totfact> 0.15076919E+03</totfact>
</mgrwt>
</event>
<event>
 8    1  0.6414246E-006  0.1594139E+03  0.7546771E-02  0.1193492E+00
         -1   -1    0    0    0  501 -0.00000000000E+00  0.00000000000E+00  0.12642846638E+03  0.12642846638E+03  0.00000000000E+00 0.  1.
          1   -1    0    0  501    0  0.00000000000E+00 -0.00000000000E+00 -0.19035666910E+03  0.19035666910E+03  0.00000000000E+00 0. -1.
         25    2    1    2    0    0  0.86522942896E+02 -0.48149818444E+02 -0.62534512160E+02  0.17124067526E+03  0.12493269784E+03 0.  0.
         23    2    1    2    0    0 -0.86522942896E+02  0.48149818444E+02 -0.13936905639E+01  0.14554446022E+03  0.10666125286E+03 0.  0.
          5    1    3    3  502    0 -0.23103264116E+02 -0.15935988885E+01 -0.44912974030E+02  0.50750030606E+02  0.47000000000E+01 0.  1.
         -5    1    3    3    0  502  0.10962620701E+03 -0.46556219556E+02 -0.17621538130E+02  0.12049064465E+03  0.47000000000E+01 0.  1.
          5    1    4    4  503    0 -0.57921442279E+02  0.24225105221E+02 -0.52590064367E+02  0.82033859282E+02  0.47000000000E+01 0. -1.
         -5    1    4    4    0  503 -0.28601500617E+02  0.23924713223E+02  0.51196373803E+02  0.63510600933E+02  0.47000000000E+01 0.  1.
<mgrwt>
<rscale>  0 0.15582555E+03</rscale>
<asrwt>0</asrwt>
<pdfrwt beam="1">  1        1 0.29285641E-01 0.15941394E+03</pdfrwt>
<pdfrwt beam="2">  1       -1 0.19450533E-01 0.15941394E+03</pdfrwt>
<totfact> 0.32086601E+03</totfact>
</mgrwt>
</event>
<event>
 8    1  0.6414246E-006  0.1294539E+03  0.7546771E-02  0.1229949E+00
         -2   -1    0    0    0  501 -0.00000000000E+00  0.00000000000E+00  0.51018428522E+02  0.51018428522E+02  0.00000000000E+00 0. -1.
          2   -1    0    0  501    0  0.00000000000E+00 -0.00000000000E+00 -0.32622601598E+03  0.32622601598E+03  0.00000000000E+00 0.  1.
         25    2    1    2    0    0  0.23310934109E+02  0.24114735182E+02 -0.17103412013E+03  0.21450167842E+03  0.12503351428E+03 0.  0.
         23    2    1    2    0    0 -0.23310934109E+02 -0.24114735182E+02 -0.10417346732E+03  0.16274276608E+03  0.12044989213E+03 0.  0.
          5    1    4    4  502    0  0.24049214583E+02  0.25267913306E+02  0.31907258119E+01  0.35342649817E+02  0.47000000000E+01 0. -1.
         -5    1    3    3    0  503  0.48095453042E+02  0.96694172688E+01 -0.92704053268E+01  0.50146791010E+02  0.47000000000E+01 0.  1.
          5    1    3    3  503    0 -0.24784518933E+02  0.14445317913E+02 -0.16176371481E+03  0.16435488741E+03  0.47000000000E+01 0.  1.
         -5    1    4    4    0  502 -0.47360148692E+02 -0.49382648488E+02 -0.10736419313E+03  0.12740011626E+03  0.47000000000E+01 0.  1.
<mgrwt>
<rscale>  0 0.12833404E+03</rscale>
<asrwt>0</asrwt>
<pdfrwt beam="1">  1        2 0.50188619E-01 0.12945385E+03</pdfrwt>
<pdfrwt beam="2">  1       -2 0.78489888E-02 0.12945385E+03</pdfrwt>
<totfact> 0.91900587E+03</totfact>
</mgrwt>
</event>
<event>
 8    1  0.6414246E-006  0.1331035E+03  0.7546771E-02  0.1245388E+00
          1   -1    0    0  501    0  0.00000000000E+00  0.00000000000E+00  0.16459869903E+03  0.16459869903E+03  0.00000000000E+00 0. -1.
         -1   -1    0    0    0  501 -0.00000000000E+00 -0.00000000000E+00 -0.75909858896E+02  0.75909858896E+02  0.00000000000E+00 0.  1.
         25    2    1    2    0    0  0.35987035408E+02 -0.28411607619E+02  0.81876411878E+02  0.15626991759E+03  0.12495700923E+03 0.  0.
         23    2    1    2    0    0 -0.35987035408E+02  0.28411607619E+02  0.68124282609E+01  0.84238640342E+02  0.70338134628E+02 0.  0.
          5    1    3    3  502    0 -0.17866732026E+02  0.19928509170E+02 -0.18181098441E+02  0.32695686742E+02  0.47000000000E+01 0.  1.
         -5    1    4    4    0  503 -0.29240071434E+02  0.76238969744E+01 -0.28919746050E+02  0.42089752840E+02  0.47000000000E+01 0.  1.
          5    1    4    4  503    0 -0.67469639739E+01  0.20787710644E+02  0.35732174311E+02  0.42148887502E+02  0.47000000000E+01 0. -1.
         -5    1    3    3    0  502  0.53853767434E+02 -0.48340116789E+02  0.10005751032E+03  0.12357423085E+03  0.47000000000E+01 0.  1.
<mgrwt>
<rscale>  0 0.11862159E+03</rscale>
<asrwt>0</asrwt>
<pdfrwt beam="1">  1        1 0.25322877E-01 0.13310349E+03</pdfrwt>
<pdfrwt beam="2">  1       -1 0.11678440E-01 0.13310349E+03</pdfrwt>
<totfact> 0.84877864E+03</totfact>
</mgrwt>
</event>
<event>
 8    1  0.6414246E-006  0.1313776E+03  0.7546771E-02  0.1246875E+00
         -1   -1    0    0    0  501 -0.00000000000E+00  0.00000000000E+00  0.19335004587E+02  0.19335004587E+02  0.00000000000E+00 0.  1.
          1   -1    0    0  501    0  0.00000000000E+00 -0.00000000000E+00 -0.62810490386E+03  0.62810490386E+03  0.00000000000E+00 0. -1.
         25    2    1    2    0    0  0.98875750830E+01 -0.39073934222E+02 -0.30547788666E+03  0.33253090514E+03  0.12504210154E+03 0.  0.
         23    2    1    2    0    0 -0.98875750830E+01  0.39073934222E+02 -0.30329201261E+03  0.31490900330E+03  0.74545952090E+02 0.  0.
          5    1    4    4  502    0  0.22362552918E+02  0.29415324076E+02 -0.24175646101E+03  0.24460911983E+03  0.47000000000E+01 0. -1.
         -5    1    4    4    0  502 -0.32250128001E+02  0.96586101458E+01 -0.61535551600E+02  0.70299883476E+02  0.47000000000E+01 0.  1.
          5    1    3    3  503    0 -0.48339547363E+02  0.74801935616E-01 -0.60076872482E+02  0.77253077879E+02  0.47000000000E+01 0.  1.
         -5    1    3    3    0  503  0.58227122446E+02 -0.39148736158E+02 -0.24540101418E+03  0.25527782726E+03  0.47000000000E+01 0.  1.
<mgrwt>
<rscale>  0 0.11773859E+03</rscale>
<asrwt>0</asrwt>
<pdfrwt beam="1">  1        1 0.96631512E-01 0.13137756E+03</pdfrwt>
<pdfrwt beam="2">  1       -1 0.29746165E-02 0.13137756E+03</pdfrwt>
<totfact> 0.11975993E+04</totfact>
</mgrwt>
</event>
<event>
 8    1  0.6414246E-006  0.1640687E+03  0.7546771E-02  0.1187462E+00
          1   -1    0    0  501    0  0.00000000000E+00  0.00000000000E+00  0.52686082624E+03  0.52686082624E+03  0.00000000000E+00 0. -1.
         -1   -1    0    0    0  501 -0.00000000000E+00 -0.00000000000E+00 -0.57277149732E+02  0.57277149732E+02  0.00000000000E+00 0.  1.
         25    2    1    2    0    0 -0.57062696912E+02  0.89558787196E+02  0.36217341347E+03  0.39760298315E+03  0.12506647452E+03 0.  0.
         23    2    1    2    0    0  0.57062696912E+02 -0.89558787196E+02  0.10741026304E+03  0.18653499282E+03  0.10945963272E+03 0.  0.
          5    1    4    4  502    0 -0.28321635932E+01 -0.42195743946E+02  0.10119807265E+03  0.10977997024E+03  0.47000000000E+01 0. -1.
         -5    1    3    3    0  503 -0.75918369477E+02  0.76179155911E+02  0.15285337394E+03  0.18695749930E+03  0.47000000000E+01 0.  1.
          5    1    3    3  503    0  0.18855672565E+02  0.13379631284E+02  0.20932003952E+03  0.21064548385E+03  0.47000000000E+01 0.  1.
         -5    1    4    4    0  502  0.59894860505E+02 -0.47363043250E+02  0.62121903852E+01  0.76755022573E+02  0.47000000000E+01 0.  1.
<mgrwt>
<rscale>  0 0.16109858E+03</rscale>
<asrwt>0</asrwt>
<pdfrwt beam="1">  1        1 0.81055508E-01 0.16406874E+03</pdfrwt>
<pdfrwt beam="2">  1       -1 0.88118696E-02 0.16406874E+03</pdfrwt>
<totfact> 0.30624119E+03</totfact>
</mgrwt>
</event>
<event>
 8    1  0.6414246E-006  0.1331823E+03  0.7546771E-02  0.1222940E+00
          1   -1    0    0  501    0  0.00000000000E+00  0.00000000000E+00  0.10733514689E+03  0.10733514689E+03  0.00000000000E+00 0.  1.
         -1   -1    0    0    0  501 -0.00000000000E+00 -0.00000000000E+00 -0.16988685547E+03  0.16988685547E+03  0.00000000000E+00 0. -1.
         25    2    1    2    0    0  0.36904374650E+02 -0.25829032439E+02 -0.55213768369E+02  0.14383772444E+03  0.12494662448E+03 0.  0.
         23    2    1    2    0    0 -0.36904374650E+02  0.25829032439E+02 -0.73379402098E+01  0.13338427792E+03  0.12533334930E+03 0.  0.
          5    1    3    3  502    0  0.76698498087E+02  0.40566705230E+01 -0.53685654654E+02  0.93826199434E+02  0.47000000000E+01 0.  1.
         -5    1    4    4    0  503 -0.95530046343E+01  0.73843820283E+02  0.10010524182E+02  0.75275960877E+02  0.47000000000E+01 0.  1.
          5    1    4    4  503    0 -0.27351370016E+02 -0.48014787844E+02 -0.17348464392E+02  0.58108317048E+02  0.47000000000E+01 0. -1.
         -5    1    3    3    0  502 -0.39794123437E+02 -0.29885702962E+02 -0.15281137154E+01  0.50011525004E+02  0.47000000000E+01 0.  1.
<mgrwt>
<rscale>  0 0.13309122E+03</rscale>
<asrwt>0</asrwt>
<pdfrwt beam="1">  1        1 0.16513099E-01 0.13318228E+03</pdfrwt>
<pdfrwt beam="2">  1       -1 0.26136439E-01 0.13318228E+03</pdfrwt>
<totfact> 0.40614194E+03</totfact>
</mgrwt>
</event>
<event>
 8    1  0.6414246E-006  0.1286127E+03  0.7546771E-02  0.1251401E+00
          2   -1    0    0  501    0  0.00000000000E+00  0.00000000000E+00  0.42138807978E+03  0.42138807978E+03  0.00000000000E+00 0. -1.
         -2   -1    0    0    0  501 -0.00000000000E+00 -0.00000000000E+00 -0.39343800881E+02  0.39343800881E+02  0.00000000000E+00 0.  1.
         25    2    1    2    0    0  0.29878436414E+02 -0.28319416507E-01  0.89280838153E+02  0.15656400441E+03  0.12509395529E+03 0.  0.
         23    2    1    2    0    0 -0.29878436414E+02  0.28319416507E-01  0.29276344075E+03  0.30416787625E+03  0.76908666227E+02 0.  0.
          5    1    3    3  502    0  0.77678140841E+02  0.12447271578E+02  0.50732128910E+02  0.93726554604E+02  0.47000000000E+01 0. -1.
         -5    1    3    3    0  502 -0.47799704426E+02 -0.12475590994E+02  0.38548709243E+02  0.62837449806E+02  0.47000000000E+01 0. -1.
          5    1    4    4  503    0  0.17849040660E+02 -0.20243592756E+02  0.65152699058E+02  0.70677828876E+02  0.47000000000E+01 0. -1.
         -5    1    4    4    0  503 -0.47727477074E+02  0.20271912173E+02  0.22761074169E+03  0.23349004738E+03  0.47000000000E+01 0.  1.
<mgrwt>
<rscale>  0 0.11510325E+03</rscale>
<asrwt>0</asrwt>
<pdfrwt beam="1">  1        2 0.64828932E-01 0.12861267E+03</pdfrwt>
<pdfrwt beam="2">  1       -2 0.60528927E-02 0.12861267E+03</pdfrwt>
<totfact> 0.10405440E+04</totfact>
</mgrwt>
</event>
<event>
 8    1  0.6414246E-006  0.1462610E+03  0.7546771E-02  0.1218895E+00
          2   -1    0    0  501    0  0.00000000000E+00  0.00000000000E+00  0.11928953573E+03  0.11928953573E+03  0.00000000000E+00 0. -1.
         -2   -1    0    0    0  501 -0.00000000000E+00 -0.00000000000E+00 -0.30429473292E+03  0.30429473292E+03  0.00000000000E+00 0.  1.
         25    2    1    2    0    0 -0.75950677194E+02  0.32897528949E+01  0.57881864030E+02  0.15729776662E+03  0.12495178814E+03 0.  0.
         23    2    1    2    0    0  0.75950677194E+02 -0.32897528949E+01 -0.24288706121E+03  0.26628650203E+03  0.78326552450E+02 0.  0.
          5    1    3    3  502    0 -0.60211986729E+02  0.25440480044E+02 -0.24852411860E+02  0.70088756202E+02  0.47000000000E+01 0. -1.
         -5    1    3    3    0  502 -0.15738690465E+02 -0.22150727149E+02  0.82734275890E+02  0.87209010416E+02  0.47000000000E+01 0. -1.
          5    1    4    4  503    0  0.57401215806E+02 -0.31715138317E+02 -0.10247481844E+03  0.12175355431E+03  0.47000000000E+01 0. -1.
         -5    1    4    4    0  503  0.18549461388E+02  0.28425385422E+02 -0.14041224278E+03  0.14453294772E+03  0.47000000000E+01 0.  1.
<mgrwt>
<rscale>  0 0.13594251E+03</rscale>
<asrwt>0</asrwt>
<pdfrwt beam="1">  1        2 0.18352236E-01 0.14626099E+03</pdfrwt>
<pdfrwt beam="2">  1       -2 0.46814575E-01 0.14626099E+03</pdfrwt>
<totfact> 0.13179388E+03</totfact>
</mgrwt>
</event>
<event>
 8    1  0.6414246E-006  0.1402721E+03  0.7546771E-02  0.1218638E+00
         -2   -1    0    0    0  501 -0.00000000000E+00  0.00000000000E+00  0.21536391574E+03  0.21536391574E+03  0.00000000000E+00 0.  1.
          2   -1    0    0  501    0  0.00000000000E+00 -0.00000000000E+00 -0.87539327641E+02  0.87539327641E+02  0.00000000000E+00 0. -1.
         25    2    1    2    0    0 -0.52692340147E+02  0.35380713100E+02  0.27182667474E+02  0.14288165574E+03  0.12509193645E+03 0.  0.
         23    2    1    2    0    0  0.52692340147E+02 -0.35380713100E+02  0.10064192063E+03  0.16002158765E+03  0.10700390065E+03 0.  0.
          5    1    4    4  502    0  0.56645848577E+02 -0.62505075974E+02  0.40353283875E+02  0.93627529087E+02  0.47000000000E+01 0. -1.
         -5    1    4    4    0  502 -0.39535084294E+01  0.27124362874E+02  0.60288636754E+02  0.66394058558E+02  0.47000000000E+01 0.  1.
          5    1    3    3  503    0 -0.92728795750E+01 -0.45158568670E+02 -0.29547264985E+01  0.46433856490E+02  0.47000000000E+01 0. -1.
         -5    1    3    3    0  503 -0.43419460572E+02  0.80539281770E+02  0.30137393972E+02  0.96447799248E+02  0.47000000000E+01 0. -1.
<mgrwt>
<rscale>  0 0.13612669E+03</rscale>
<asrwt>0</asrwt>
<pdfrwt beam="1">  1        2 0.13467589E-01 0.14027213E+03</pdfrwt>
<pdfrwt beam="2">  1       -2 0.33132910E-01 0.14027213E+03</pdfrwt>
<totfact> 0.36262130E+03</totfact>
</mgrwt>
</event>
<event>
 8    1  0.6414246E-006  0.2894041E+03  0.7546771E-02  0.1093143E+00
          2   -1    0    0  501    0  0.00000000000E+00  0.00000000000E+00  0.25285861900E+03  0.25285861900E+03  0.00000000000E+00 0. -1.
         -2   -1    0    0    0  501 -0.00000000000E+00 -0.00000000000E+00 -0.33228354234E+03  0.33228354234E+03  0.00000000000E+00 0.  1.
         25    2    1    2    0    0  0.60997504864E+02  0.25381704910E+03  0.33785206381E+02  0.29136946706E+03  0.12494373194E+03 0.  0.
         23    2    1    2    0    0 -0.60997504864E+02 -0.25381704910E+03 -0.11321012973E+03  0.29377269428E+03  0.73089482290E+02 0.  0.
          5    1    3    3  502    0  0.79762419862E+02  0.81957071616E+02 -0.32376729984E+01  0.11450579783E+03  0.47000000000E+01 0. -1.
         -5    1    3    3    0  502 -0.18764914998E+02  0.17185997748E+03  0.37022879379E+02  0.17686366923E+03  0.47000000000E+01 0. -1.
          5    1    4    4  503    0 -0.13177638362E+02 -0.16577875843E+03 -0.95788793651E+02  0.19197351351E+03  0.47000000000E+01 0. -1.
         -5    1    4    4    0  503 -0.47819866502E+02 -0.88038290668E+02 -0.17421336077E+02  0.10179918078E+03  0.47000000000E+01 0.  1.
<mgrwt>
<rscale>  0 0.28471082E+03</rscale>
<asrwt>0</asrwt>
<pdfrwt beam="1">  1        2 0.38901326E-01 0.28940409E+03</pdfrwt>
<pdfrwt beam="2">  1       -2 0.51120544E-01 0.28940409E+03</pdfrwt>
<totfact> 0.48586101E+02</totfact>
</mgrwt>
</event>
<event>
 8    1  0.6414246E-006  0.1384787E+03  0.7546771E-02  0.1220556E+00
         -1   -1    0    0    0  501 -0.00000000000E+00  0.00000000000E+00  0.27183681904E+02  0.27183681904E+02  0.00000000000E+00 0.  1.
          1   -1    0    0  501    0  0.00000000000E+00 -0.00000000000E+00 -0.63457642063E+03  0.63457642063E+03  0.00000000000E+00 0. -1.
         25    2    1    2    0    0 -0.58129003543E+02 -0.12447735122E+02 -0.32010454762E+03  0.34877396972E+03  0.12506971408E+03 0.  0.
         23    2    1    2    0    0  0.58129003543E+02  0.12447735122E+02 -0.28728819110E+03  0.31298613282E+03  0.10904993089E+03 0.  0.
          5    1    3    3  502    0 -0.14340958179E+02 -0.40305388784E+02 -0.27927800814E+03  0.28257473928E+03  0.47000000000E+01 0.  1.
         -5    1    4    4    0  503  0.38500297014E+02  0.37672074414E+02 -0.50437652357E+02  0.73942577965E+02  0.47000000000E+01 0.  1.
          5    1    4    4  503    0  0.19628706529E+02 -0.25224339293E+02 -0.23685053874E+03  0.23904355485E+03  0.47000000000E+01 0. -1.
         -5    1    3    3    0  502 -0.43788045364E+02  0.27857653663E+02 -0.40826539478E+02  0.66199230435E+02  0.47000000000E+01 0.  1.
<mgrwt>
<rscale>  0 0.13476227E+03</rscale>
<asrwt>0</asrwt>
<pdfrwt beam="1">  1        1 0.97627136E-01 0.13847874E+03</pdfrwt>
<pdfrwt beam="2">  1       -1 0.41821051E-02 0.13847874E+03</pdfrwt>
<totfact> 0.71982282E+03</totfact>
</mgrwt>
</event>
<event>
 6    1  0.6414246E-006  0.3591856E+03  0.7546771E-02  0.1063569E+00
         -1   -1    0    0    0  501 -0.00000000000E+00  0.00000000000E+00  0.39246227422E+03  0.39246227422E+03  0.00000000000E+00 0.  1.
          1   -1    0    0  501    0  0.00000000000E+00 -0.00000000000E+00 -0.48139095218E+03  0.48139095218E+03  0.00000000000E+00 0. -1.
          5    1    1    2  502    0  0.25910330857E+02  0.87899816661E+02 -0.12519845017E+03  0.15522391871E+03  0.47000000000E+01 0.  1.
         -5    1    1    2    0  503 -0.41853686035E+02 -0.18129090995E+03  0.17531465387E+03  0.25568621966E+03  0.47000000000E+01 0.  1.
          5    1    1    2  503    0  0.13142370901E+03 -0.93952436826E+02  0.53750744802E+02  0.17032464367E+03  0.47000000000E+01 0. -1.
         -5    1    1    2    0  502 -0.11548035383E+03  0.18734353011E+03 -0.19279562645E+03  0.29261844435E+03  0.47000000000E+01 0.  1.
<mgrwt>
<rscale>  0 0.34768482E+03</rscale>
<asrwt>0</asrwt>
<pdfrwt beam="1">  1        1 0.74060147E-01 0.35918560E+03</pdfrwt>
<pdfrwt beam="2">  1       -1 0.60378811E-01 0.35918560E+03</pdfrwt>
<totfact> 0.13629880E+02</totfact>
</mgrwt>
</event>
<event>
 8    1  0.6414246E-006  0.1328949E+03  0.7546771E-02  0.1228401E+00
          1   -1    0    0  501    0  0.00000000000E+00  0.00000000000E+00  0.83654558841E+03  0.83654558841E+03  0.00000000000E+00 0. -1.
         -1   -1    0    0    0  501 -0.00000000000E+00 -0.00000000000E+00 -0.32178296497E+02  0.32178296497E+02  0.00000000000E+00 0.  1.
         25    2    1    2    0    0  0.31479897173E+02 -0.32037171069E+02  0.13735339718E+03  0.19112042562E+03  0.12507476611E+03 0.  0.
         23    2    1    2    0    0 -0.31479897173E+02  0.32037171069E+02  0.66701389474E+03  0.67760345929E+03  0.11055111040E+03 0.  0.
          5    1    3    3  502    0  0.16343219560E+02 -0.53357120806E+02  0.15114621314E+03  0.16118731622E+03  0.47000000000E+01 0. -1.
         -5    1    4    4    0  503 -0.69399873111E+02  0.68658957359E+00  0.36446393626E+03  0.37104294176E+03  0.47000000000E+01 0.  1.
          5    1    4    4  503    0  0.37919975939E+02  0.31350581495E+02  0.30254995847E+03  0.30656051753E+03  0.47000000000E+01 0. -1.
         -5    1    3    3    0  502  0.15136677613E+02  0.21319949737E+02 -0.13792815960E+02  0.29933109395E+02  0.47000000000E+01 0. -1.
<mgrwt>
<rscale>  0 0.12936473E+03</rscale>
<asrwt>0</asrwt>
<pdfrwt beam="1">  1        1 0.12869930E+00 0.13289493E+03</pdfrwt>
<pdfrwt beam="2">  1       -1 0.49505078E-02 0.13289493E+03</pdfrwt>
<totfact> 0.37491266E+03</totfact>
</mgrwt>
</event>
<event>
 8    1  0.6414246E-006  0.1345474E+03  0.7546771E-02  0.1244312E+00
         -1   -1    0    0    0  501 -0.00000000000E+00  0.00000000000E+00  0.80237460185E+02  0.80237460185E+02  0.00000000000E+00 0.  1.
          1   -1    0    0  501    0  0.00000000000E+00 -0.00000000000E+00 -0.19263148351E+03  0.19263148351E+03  0.00000000000E+00 0. -1.
         25    2    1    2    0    0  0.11854768618E+02 -0.48198219749E+02 -0.18099011285E+01  0.13455960427E+03  0.12505761646E+03 0.  0.
         23    2    1    2    0    0 -0.11854768618E+02  0.48198219749E+02 -0.11058412220E+03  0.13830933943E+03  0.66610970295E+02 0.  0.
          5    1    4    4  502    0 -0.20287404220E+02 -0.16009488816E+01 -0.70876923535E+02  0.73890257119E+02  0.47000000000E+01 0. -1.
         -5    1    3    3    0  503 -0.34876943318E+02 -0.72784435670E+02 -0.77396528024E+01  0.81215561788E+02  0.47000000000E+01 0.  1.
          5    1    3    3  503    0  0.46731711936E+02  0.24586215921E+02  0.59297516739E+01  0.53344042485E+02  0.47000000000E+01 0.  1.
         -5    1    4    4    0  502  0.84326356014E+01  0.49799168631E+02 -0.39707198667E+02  0.64419082308E+02  0.47000000000E+01 0.  1.
<mgrwt>
<rscale>  0 0.11926626E+03</rscale>
<asrwt>0</asrwt>
<pdfrwt beam="1">  1        1 0.29635613E-01 0.13454743E+03</pdfrwt>
<pdfrwt beam="2">  1       -1 0.12344225E-01 0.13454743E+03</pdfrwt>
<totfact> 0.64077314E+03</totfact>
</mgrwt>
</event>
<event>
 7    1  0.6414246E-006  0.1582741E+03  0.7546771E-02  0.1208424E+00
         -2   -1    0    0    0  501 -0.00000000000E+00  0.00000000000E+00  0.12234233695E+03  0.12234233695E+03  0.00000000000E+00 0.  1.
          2   -1    0    0  501    0  0.00000000000E+00 -0.00000000000E+00 -0.16655236429E+03  0.16655236429E+03  0.00000000000E+00 0. -1.
         25    2    1    2    0    0  0.87374659975E+02  0.42214762731E+02 -0.77579630298E+02  0.17626484323E+03  0.12503710859E+03 0.  0.
          5    1    3    3  502    0  0.57671293073E+02 -0.40222022342E+02 -0.32260864487E+02  0.77502532239E+02  0.47000000000E+01 0. -1.
         -5    1    1    2    0  503 -0.67679468486E+02 -0.36787994051E+02  0.44302958382E+02  0.88987128745E+02  0.47000000000E+01 0.  1.
          5    1    1    2  503    0 -0.19695191489E+02 -0.54267686809E+01 -0.10933355430E+02  0.23642729264E+02  0.47000000000E+01 0. -1.
         -5    1    3    3    0  502  0.29703366902E+02  0.82436785073E+02 -0.45318765811E+02  0.98762310995E+02  0.47000000000E+01 0. -1.
<mgrwt>
<rscale>  0 0.14370877E+03</rscale>
<asrwt>0</asrwt>
<pdfrwt beam="1">  1        2 0.25623441E-01 0.15827412E+03</pdfrwt>
<pdfrwt beam="2">  1       -2 0.18821898E-01 0.15827412E+03</pdfrwt>
<totfact> 0.47116683E+03</totfact>
</mgrwt>
</event>
<event>
 8    1  0.6414246E-006  0.1785388E+03  0.7546771E-02  0.1179856E+00
          1   -1    0    0  501    0  0.00000000000E+00  0.00000000000E+00  0.71356931195E+03  0.71356931195E+03  0.00000000000E+00 0. -1.
         -1   -1    0    0    0  501 -0.00000000000E+00 -0.00000000000E+00 -0.39197616848E+02  0.39197616848E+02  0.00000000000E+00 0.  1.
         25    2    1    2    0    0  0.93464786627E+02  0.86737892540E+02  0.26081189516E+03  0.31606796874E+03  0.12496794735E+03 0.  0.
         23    2    1    2    0    0 -0.93464786627E+02 -0.86737892540E+02  0.41355979994E+03  0.43669896006E+03  0.58439244065E+02 0.  0.
          5    1    3    3  502    0  0.45856833701E+02 -0.12059355924E+02  0.16030090494E+03  0.16723261460E+03  0.47000000000E+01 0. -1.
         -5    1    3    3    0  502  0.47607952925E+02  0.98797248465E+02  0.10051099022E+03  0.14883535414E+03  0.47000000000E+01 0. -1.
          5    1    4    4  503    0 -0.73773918628E+02 -0.29572517877E+02  0.23584249819E+03  0.24891946255E+03  0.47000000000E+01 0. -1.
         -5    1    4    4    0  503 -0.19690867998E+02 -0.57165374663E+02  0.17771730175E+03  0.18777949750E+03  0.47000000000E+01 0.  1.
<mgrwt>
<rscale>  0 0.16808806E+03</rscale>
<asrwt>0</asrwt>
<pdfrwt beam="1">  1        1 0.10977988E+00 0.17853884E+03</pdfrwt>
<pdfrwt beam="2">  1       -1 0.60304031E-02 0.17853884E+03</pdfrwt>
<totfact> 0.35794893E+03</totfact>
</mgrwt>
</event>
<event>
 8    1  0.6414246E-006  0.1349436E+03  0.7546771E-02  0.1238432E+00
         -1   -1    0    0    0  501 -0.00000000000E+00  0.00000000000E+00  0.39807904324E+02  0.39807904324E+02  0.00000000000E+00 0.  1.
          1   -1    0    0  501    0  0.00000000000E+00 -0.00000000000E+00 -0.32685482674E+03  0.32685482674E+03  0.00000000000E+00 0. -1.
         25    2    1    2    0    0  0.50638596120E+02 -0.28506124797E+01 -0.15893962315E+03  0.20849839378E+03  0.12504952216E+03 0.  0.
         23    2    1    2    0    0 -0.50638596120E+02  0.28506124797E+01 -0.12810729927E+03  0.15816433729E+03  0.77666492484E+02 0.  0.
          5    1    4    4  502    0 -0.87203163413E+01  0.35462717338E+02 -0.34610886684E+02  0.50533669124E+02  0.47000000000E+01 0. -1.
         -5    1    4    4    0  502 -0.41918279779E+02 -0.32612104858E+02 -0.93496412586E+02  0.10763066816E+03  0.47000000000E+01 0.  1.
          5    1    3    3  503    0 -0.17951128665E+02  0.26741432112E+02  0.29414540897E+00  0.32550326162E+02  0.47000000000E+01 0. -1.
         -5    1    3    3    0  503  0.68589724785E+02 -0.29592044592E+02 -0.15923376856E+03  0.17594806762E+03  0.47000000000E+01 0. -1.
<mgrwt>
<rscale>  0 0.12287253E+03</rscale>
<asrwt>0</asrwt>
<pdfrwt beam="1">  1        1 0.50285357E-01 0.13494360E+03</pdfrwt>
<pdfrwt beam="2">  1       -1 0.61242930E-02 0.13494360E+03</pdfrwt>
<totfact> 0.96348632E+03</totfact>
</mgrwt>
</event>
<event>
 8    1  0.6721026E-006  0.1261766E+03  0.7546771E-02  0.1241927E+00
          2   -1    0    0  501    0  0.00000000000E+00  0.00000000000E+00  0.19292136184E+03  0.19292136184E+03  0.00000000000E+00 0.  1.
         -2   -1    0    0    0  501 -0.00000000000E+00 -0.00000000000E+00 -0.74536295808E+02  0.74536295808E+02  0.00000000000E+00 0. -1.
         25    2    1    2    0    0 -0.12721623619E+00 -0.17813731059E+02  0.30044689920E+02  0.12970436521E+03  0.12491274460E+03 0.  0.
         23    2    1    2    0    0  0.12721623619E+00  0.17813731059E+02  0.88340376114E+02  0.13775329244E+03  0.10418542282E+03 0.  0.
          5    1    4    4  502    0  0.97503338284E+01  0.57326427184E+02  0.27684444923E+02  0.64574815170E+02  0.47000000000E+01 0. -1.
         -5    1    4    4    0  502 -0.96231175922E+01 -0.39512696126E+02  0.60655931190E+02  0.73178477272E+02  0.47000000000E+01 0.  1.
          5    1    3    3  503    0  0.10714120082E+02  0.42364397994E+02  0.48702729446E+02  0.65601680176E+02  0.47000000000E+01 0.  1.
         -5    1    3    3    0  503 -0.10841336319E+02 -0.60178129052E+02 -0.18658039526E+02  0.64102685032E+02  0.47000000000E+01 0.  1.
<mgrwt>
<rscale>  0 0.12071195E+03</rscale>
<asrwt>0</asrwt>
<pdfrwt beam="1">  1        2 0.29680209E-01 0.12617662E+03</pdfrwt>
<pdfrwt beam="2">  1       -2 0.11467122E-01 0.12617662E+03</pdfrwt>
<totfact> 0.88756530E+03</totfact>
</mgrwt>
</event>
<event>
 8    1  0.6595310E-006  0.1876517E+03  0.7546771E-02  0.1160984E+00
         -3   -1    0    0    0  501 -0.00000000000E+00  0.00000000000E+00  0.18382662108E+03  0.18382662108E+03  0.00000000000E+00 0.  1.
          3   -1    0    0  501    0  0.00000000000E+00 -0.00000000000E+00 -0.25596961764E+03  0.25596961764E+03  0.00000000000E+00 0. -1.
         25    2    1    2    0    0  0.13526602504E+03  0.35821278519E+02 -0.14795745199E+03  0.23896565758E+03  0.12503246129E+03 0.  0.
         23    2    1    2    0    0 -0.13526602504E+03 -0.35821278519E+02  0.75814455431E+02  0.20083058115E+03  0.12249501684E+03 0.  0.
          5    1    4    4  502    0 -0.12550680345E+03  0.72029907883E+00  0.11566410194E+02  0.12612830129E+03  0.47000000000E+01 0. -1.
         -5    1    4    4    0  502 -0.97592215907E+01 -0.36541577598E+02  0.64248045238E+02  0.74702279860E+02  0.47000000000E+01 0.  1.
          5    1    3    3  503    0  0.63619900795E+02  0.76511663387E+02 -0.10912936467E+03  0.14775938090E+03  0.47000000000E+01 0. -1.
         -5    1    3    3    0  503  0.71646124242E+02 -0.40690384868E+02 -0.38828087321E+02  0.91206276673E+02  0.47000000000E+01 0. -1.
<mgrwt>
<rscale>  0 0.18723006E+03</rscale>
<asrwt>0</asrwt>
<pdfrwt beam="1">  1        3 0.39379941E-01 0.18765175E+03</pdfrwt>
<pdfrwt beam="2">  1       -3 0.28281019E-01 0.18765175E+03</pdfrwt>
<totfact> 0.18610344E+02</totfact>
</mgrwt>
</event>
<event>
 8    1  0.6414246E-006  0.1862431E+03  0.7546771E-02  0.1165038E+00
         -1   -1    0    0    0  501 -0.00000000000E+00  0.00000000000E+00  0.88053922929E+03  0.88053922929E+03  0.00000000000E+00 0.  1.
          1   -1    0    0  501    0  0.00000000000E+00 -0.00000000000E+00 -0.83189222982E+02  0.83189222982E+02  0.00000000000E+00 0. -1.
         25    2    1    2    0    0  0.90439564232E+02 -0.10440756460E+03  0.44862118772E+02  0.19157010436E+03  0.12492494090E+03 0.  0.
         23    2    1    2    0    0 -0.90439564232E+02  0.10440756460E+03  0.75248788754E+03  0.77215834791E+03  0.10445208967E+03 0.  0.
          5    1    3    3  502    0  0.92818528081E+02 -0.48828406702E+02 -0.19060784800E+02  0.10670002799E+03  0.47000000000E+01 0. -1.
         -5    1    3    3    0  502 -0.23789638485E+01 -0.55579157901E+02  0.63922903572E+02  0.84870076370E+02  0.47000000000E+01 0. -1.
          5    1    4    4  503    0  0.16254881244E+01  0.21863095833E+02  0.22526226029E+02  0.31782983342E+02  0.47000000000E+01 0. -1.
         -5    1    4    4    0  503 -0.92065052357E+02  0.82544468770E+02  0.72996166151E+03  0.74037536457E+03  0.47000000000E+01 0.  1.
<mgrwt>
<rscale>  0 0.18288711E+03</rscale>
<asrwt>0</asrwt>
<pdfrwt beam="1">  1        1 0.12798343E-01 0.18624311E+03</pdfrwt>
<pdfrwt beam="2">  1       -1 0.13546757E+00 0.18624311E+03</pdfrwt>
<totfact> 0.22813717E+02</totfact>
</mgrwt>
</event>
<event>
 8    1  0.6414246E-006  0.3039027E+03  0.7546771E-02  0.1084293E+00
          1   -1    0    0  501    0  0.00000000000E+00  0.00000000000E+00  0.12644096942E+04  0.12644096942E+04  0.00000000000E+00 0. -1.
         -1   -1    0    0    0  501 -0.00000000000E+00 -0.00000000000E+00 -0.71880161264E+02  0.71880161264E+02  0.00000000000E+00 0.  1.
         25    2    1    2    0    0 -0.26397038499E+03  0.84099094686E+02  0.53681859227E+03  0.61687199911E+03  0.12491533293E+03 0.  0.
         23    2    1    2    0    0  0.26397038499E+03 -0.84099094686E+02  0.65571094068E+03  0.71941785636E+03  0.10417385684E+03 0.  0.
          5    1    3    3  502    0 -0.97780786018E+02  0.22215297786E+02  0.32725131797E+03  0.34230120754E+03  0.47000000000E+01 0. -1.
         -5    1    4    4    0  503  0.81161324397E+02 -0.60060652478E+02  0.14782139513E+03  0.17907455825E+03  0.47000000000E+01 0.  1.
          5    1    4    4  503    0  0.18280906060E+03 -0.24038442208E+02  0.50788954555E+03  0.54034329812E+03  0.47000000000E+01 0. -1.
         -5    1    3    3    0  502 -0.16618959898E+03  0.61883796899E+02  0.20956727430E+03  0.27457079157E+03  0.47000000000E+01 0. -1.
<mgrwt>
<rscale>  0 0.30190283E+03</rscale>
<asrwt>0</asrwt>
<pdfrwt beam="1">  1        1 0.19452455E+00 0.30390272E+03</pdfrwt>
<pdfrwt beam="2">  1       -1 0.11058487E-01 0.30390272E+03</pdfrwt>
<totfact> 0.53776173E+02</totfact>
</mgrwt>
</event>
<event>
 7    1  0.6414246E-006  0.1463808E+03  0.7546771E-02  0.1205139E+00
          1   -1    0    0  501    0  0.00000000000E+00  0.00000000000E+00  0.56011462246E+03  0.56011462246E+03  0.00000000000E+00 0. -1.
         -1   -1    0    0    0  501 -0.00000000000E+00 -0.00000000000E+00 -0.53329463914E+02  0.53329463914E+02  0.00000000000E+00 0.  1.
         23    2    1    2    0    0  0.72555834367E+02  0.23745509059E+02  0.89384050920E+02  0.17111950807E+03  0.12435505291E+03 0.  0.
          5    1    1    2  502    0  0.20314034565E+02 -0.19671062606E+02  0.24259291676E+03  0.24428062544E+03  0.47000000000E+01 0.  1.
         -5    1    1    2    0  502 -0.92869868932E+02 -0.40744464526E+01  0.17480819086E+03  0.19804395285E+03  0.47000000000E+01 0.  1.
          5    1    3    3  503    0  0.81517725582E+02 -0.25494003002E+02  0.85111630250E+02  0.12066964563E+03  0.47000000000E+01 0. -1.
         -5    1    3    3    0  503 -0.89618912153E+01  0.49239512060E+02  0.42724206695E+01  0.50449862443E+02  0.47000000000E+01 0.  1.
<mgrwt>
<rscale>  0 0.14626526E+03</rscale>
<asrwt>0</asrwt>
<pdfrwt beam="1">  1        1 0.86171476E-01 0.14638083E+03</pdfrwt>
<pdfrwt beam="2">  1       -1 0.82045333E-02 0.14638083E+03</pdfrwt>
<totfact> 0.31325276E+03</totfact>
</mgrwt>
</event>
<event>
 6    1  0.6414246E-006  0.1588245E+03  0.7546771E-02  0.1211199E+00
         -4   -1    0    0    0  501 -0.00000000000E+00  0.00000000000E+00  0.16229975525E+03  0.16229975525E+03  0.00000000000E+00 0.  1.
          4   -1    0    0  501    0  0.00000000000E+00 -0.00000000000E+00 -0.14854453662E+03  0.14854453662E+03  0.00000000000E+00 0. -1.
          5    1    1    2  502    0  0.38022942002E+02 -0.38927865317E+02  0.31001048081E+02  0.62803485562E+02  0.47000000000E+01 0. -1.
         -5    1    1    2    0  502 -0.49702059248E+02  0.49418083465E+02  0.13012096066E+02  0.71441208773E+02  0.47000000000E+01 0.  1.
          5    1    1    2  503    0  0.52307593623E+02 -0.15936197153E+02 -0.89151606671E+02  0.10469071450E+03  0.47000000000E+01 0. -1.
         -5    1    1    2    0  503 -0.40628476376E+02  0.54459790055E+01  0.58893681155E+02  0.71908883039E+02  0.47000000000E+01 0.  1.
<mgrwt>
<rscale>  0 0.14159478E+03</rscale>
<asrwt>0</asrwt>
<pdfrwt beam="1">  1        4 0.22853006E-01 0.15882452E+03</pdfrwt>
<pdfrwt beam="2">  1       -4 0.24969193E-01 0.15882452E+03</pdfrwt>
<totfact> 0.45409043E+02</totfact>
</mgrwt>
</event>
<event>
 7    1  0.6414246E-006  0.2087118E+03  0.7546771E-02  0.1142590E+00
          1   -1    0    0  501    0  0.00000000000E+00  0.00000000000E+00  0.99626970682E+02  0.99626970682E+02  0.00000000000E+00 0. -1.
         -1   -1    0    0    0  501 -0.00000000000E+00 -0.00000000000E+00 -0.10930928971E+03  0.10930928971E+03  0.00000000000E+00 0.  1.
         23    2    1    2    0    0  0.61996961919E+01  0.25670998444E+02  0.12760022548E+02  0.79087158363E+02  0.73447423703E+02 0.  0.
          5    1    1    2  502    0  0.15239645366E+02  0.47601537290E+02 -0.17633521792E+02  0.53208873640E+02  0.47000000000E+01 0.  1.
         -5    1    1    2    0  502 -0.21439341557E+02 -0.73272535733E+02 -0.48088197806E+01  0.76640228385E+02  0.47000000000E+01 0.  1.
          5    1    3    3  503    0 -0.12886129451E+02  0.33558726917E+02  0.33559592761E+02  0.49402193786E+02  0.47000000000E+01 0. -1.
         -5    1    3    3    0  503  0.19085825642E+02 -0.78877284736E+01 -0.20799570214E+02  0.29684964578E+02  0.47000000000E+01 0.  1.
<mgrwt>
<rscale>  0 0.20871180E+03</rscale>
<asrwt>0</asrwt>
<pdfrwt beam="1">  1        1 0.15327226E-01 0.20871180E+03</pdfrwt>
<pdfrwt beam="2">  1       -1 0.16816814E-01 0.20871180E+03</pdfrwt>
<totfact> 0.94130163E+03</totfact>
</mgrwt>
</event>
<event>
 8    1  0.6414246E-006  0.1345267E+03  0.7546771E-02  0.1228348E+00
          3   -1    0    0  501    0  0.00000000000E+00  0.00000000000E+00  0.24251899537E+02  0.24251899537E+02  0.00000000000E+00 0. -1.
         -3   -1    0    0    0  501 -0.00000000000E+00 -0.00000000000E+00 -0.68776972724E+03  0.68776972724E+03  0.00000000000E+00 0.  1.
         25    2    1    2    0    0  0.37155926438E+02  0.33270494959E+02 -0.44668907100E+03  0.46650675868E+03  0.12493974964E+03 0.  0.
         23    2    1    2    0    0 -0.37155926438E+02 -0.33270494959E+02 -0.21682875670E+03  0.24551486809E+03  0.10380439306E+03 0.  0.
          5    1    4    4  502    0  0.21235738473E+02 -0.46035811515E+02 -0.67114971759E+02  0.84242281336E+02  0.47000000000E+01 0. -1.
         -5    1    4    4    0  502 -0.58391664911E+02  0.12765316556E+02 -0.14971378494E+03  0.16127258676E+03  0.47000000000E+01 0.  1.
          5    1    3    3  503    0  0.74233989277E+02  0.49969309491E+02 -0.35427866449E+03  0.36543546512E+03  0.47000000000E+01 0.  1.
         -5    1    3    3    0  503 -0.37078062839E+02 -0.16698814532E+02 -0.92410406508E+02  0.10107129356E+03  0.47000000000E+01 0.  1.
<mgrwt>
<rscale>  0 0.12940049E+03</rscale>
<asrwt>0</asrwt>
<pdfrwt beam="1">  1        3 0.37310615E-02 0.13452669E+03</pdfrwt>
<pdfrwt beam="2">  1       -3 0.10581073E+00 0.13452669E+03</pdfrwt>
<totfact> 0.66570395E+02</totfact>
</mgrwt>
</event>
<event>
 8    1  0.6414246E-006  0.1299093E+03  0.7546771E-02  0.1231592E+00
         -1   -1    0    0    0  501 -0.00000000000E+00  0.00000000000E+00  0.63301335069E+02  0.63301335069E+02  0.00000000000E+00 0.  1.
          1   -1    0    0  501    0  0.00000000000E+00 -0.00000000000E+00 -0.29512015667E+03  0.29512015667E+03  0.00000000000E+00 0. -1.
         25    2    1    2    0    0  0.14814356311E+02 -0.32258007533E+02 -0.19305719738E+03  0.23269616235E+03  0.12496550847E+03 0.  0.
         23    2    1    2    0    0 -0.14814356311E+02  0.32258007533E+02 -0.38761624216E+02  0.12572532939E+03  0.11421186775E+03 0.  0.
          5    1    4    4  502    0  0.23634425276E+02  0.47628581852E+02 -0.58860174360E+02  0.79458655872E+02  0.47000000000E+01 0. -1.
         -5    1    3    3    0  503 -0.35031604090E+02  0.90710603609E+01 -0.15098995886E+03  0.15533690836E+03  0.47000000000E+01 0.  1.
          5    1    3    3  503    0  0.49845960401E+02 -0.41329067894E+02 -0.42067238523E+02  0.77359253992E+02  0.47000000000E+01 0.  1.
         -5    1    4    4    0  502 -0.38448781587E+02 -0.15370574320E+02  0.20098550143E+02  0.46266673517E+02  0.47000000000E+01 0.  1.
<mgrwt>
<rscale>  0 0.12725177E+03</rscale>
<asrwt>0</asrwt>
<pdfrwt beam="1">  1        1 0.45403102E-01 0.12990929E+03</pdfrwt>
<pdfrwt beam="2">  1       -1 0.97386668E-02 0.12990929E+03</pdfrwt>
<totfact> 0.54249075E+03</totfact>
</mgrwt>
</event>
<event>
 7    1  0.6414246E-006  0.1624694E+03  0.7546771E-02  0.1197684E+00
          2   -1    0    0  501    0  0.00000000000E+00  0.00000000000E+00  0.84860332200E+03  0.84860332200E+03  0.00000000000E+00 0. -1.
         -2   -1    0    0    0  501 -0.00000000000E+00 -0.00000000000E+00 -0.27044300942E+02  0.27044300942E+02  0.00000000000E+00 0.  1.
         23    2    1    2    0    0  0.10067730771E+03 -0.24651880013E+02  0.49846620929E+03  0.51400516836E+03  0.70633673442E+02 0.  0.
          5    1    1    2  502    0 -0.74495221583E+02  0.20322801397E+02  0.32551683420E+03  0.33458310424E+03  0.47000000000E+01 0.  1.
         -5    1    1    2    0  502 -0.26182086128E+02  0.43290786162E+01 -0.24240224378E+01  0.27059350333E+02  0.47000000000E+01 0.  1.
          5    1    3    3  503    0  0.64865373024E+02 -0.34859311991E+02  0.42653228357E+03  0.43286784031E+03  0.47000000000E+01 0. -1.
         -5    1    3    3    0  503  0.35811934687E+02  0.10207431978E+02  0.71933925723E+02  0.81137328053E+02  0.47000000000E+01 0.  1.
<mgrwt>
<rscale>  0 0.15229275E+03</rscale>
<asrwt>0</asrwt>
<pdfrwt beam="1">  1        2 0.13055434E+00 0.16246938E+03</pdfrwt>
<pdfrwt beam="2">  1       -2 0.41606623E-02 0.16246938E+03</pdfrwt>
<totfact> 0.82831548E+03</totfact>
</mgrwt>
</event>
