<event>
 7    1  0.1028619E-012  0.9691829E+02  0.7546771E-02  0.1286913E+00
         -2   -1    0    0    0  501 -0.00000000000E+00  0.00000000000E+00  0.12272576664E+02  0.12272576664E+02  0.00000000000E+00 0.  1.
          2   -1    0    0  501    0  0.00000000000E+00 -0.00000000000E+00 -0.19134439691E+03  0.19134439691E+03  0.00000000000E+00 0. -1.
         23    2    1    2    0    0  0.00000000000E+00  0.00000000000E+00 -0.17907182024E+03  0.20361697357E+03  0.96918290954E+02 0.  0.
          5    1    3    3  502    0 -0.16480643200E+02 -0.20274745522E+02 -0.42713072587E+02  0.50290888599E+02  0.47000000000E+01 0. -1.
         -5    1    3    3    0  503  0.79564931917E+01  0.22179909845E+02 -0.40812649056E+02  0.47360495222E+02  0.47000000000E+01 0.  1.
          5    1    3    3  503    0  0.70276742276E+01 -0.22319637389E+02 -0.39970888807E+02  0.46554445226E+02  0.47000000000E+01 0. -1.
         -5    1    3    3    0  502  0.14964757806E+01  0.20414473066E+02 -0.55575209794E+02  0.59411144526E+02  0.47000000000E+01 0.  1.
<mgrwt>
<rscale>  0 0.96918291E+02</rscale>
<asrwt>0</asrwt>
<pdfrwt beam="1">  1        2 0.29437601E-01 0.96918291E+02</pdfrwt>
<pdfrwt beam="2">  1       -2 0.18880887E-02 0.96918291E+02</pdfrwt>
<totfact> 0.12903616E+05</totfact>
</mgrwt>
</event>
<event>
 7    1  0.1028619E-012  0.9955081E+02  0.7546771E-02  0.1281243E+00
         -2   -1    0    0    0  501 -0.00000000000E+00  0.00000000000E+00  0.17671216110E+02  0.17671216110E+02  0.00000000000E+00 0.  1.
          2   -1    0    0  501    0  0.00000000000E+00 -0.00000000000E+00 -0.14020488307E+03  0.14020488307E+03  0.00000000000E+00 0. -1.
         23    2    1    2    0    0  0.35527136788E-14  0.17763568394E-14 -0.12253366696E+03  0.15787609918E+03  0.99550806893E+02 0.  0.
          5    1    3    3  502    0  0.17975903669E+02 -0.11832693943E+02 -0.46134216250E+02  0.51123396480E+02  0.47000000000E+01 0. -1.
         -5    1    3    3    0  503 -0.18516484950E+02 -0.18561106946E+02 -0.32596612083E+02  0.42095178171E+02  0.47000000000E+01 0.  1.
          5    1    3    3  503    0  0.17531363081E+02  0.19026719850E+02 -0.27867094188E+02  0.38314875678E+02  0.47000000000E+01 0.  1.
         -5    1    3    3    0  502 -0.16990781800E+02  0.11367081039E+02 -0.15935744435E+02  0.26342648846E+02  0.47000000000E+01 0. -1.
<mgrwt>
<rscale>  0 0.99550807E+02</rscale>
<asrwt>0</asrwt>
<pdfrwt beam="1">  1        2 0.21569982E-01 0.99550807E+02</pdfrwt>
<pdfrwt beam="2">  1       -2 0.27186487E-02 0.99550807E+02</pdfrwt>
<totfact> 0.10744248E+05</totfact>
</mgrwt>
</event>
<event>
 7    1  0.1028619E-012  0.1003380E+03  0.7546771E-02  0.1279587E+00
          2   -1    0    0  501    0  0.00000000000E+00  0.00000000000E+00  0.50517566750E+02  0.50517566750E+02  0.00000000000E+00 0. -1.
         -2   -1    0    0    0  501 -0.00000000000E+00 -0.00000000000E+00 -0.49822859221E+02  0.49822859221E+02  0.00000000000E+00 0.  1.
         23    2    1    2    0    0  0.88817841970E-15  0.00000000000E+00  0.69470752913E+00  0.10034042597E+03  0.10033802104E+03 0.  0.
          5    1    3    3  502    0  0.95004242718E+01  0.19689798290E+02  0.13060497415E+01  0.22399597853E+02  0.47000000000E+01 0. -1.
         -5    1    3    3    0  502 -0.39718778304E+01 -0.20105155724E+02 -0.17342907659E+02  0.27255449845E+02  0.47000000000E+01 0.  1.
          5    1    3    3  503    0 -0.12144122999E+01  0.23335973563E+02  0.59642027473E+01  0.24570392218E+02  0.47000000000E+01 0.  1.
         -5    1    3    3    0  503 -0.43141341415E+01 -0.22920616129E+02  0.10767362699E+02  0.26114986054E+02  0.47000000000E+01 0. -1.
<mgrwt>
<rscale>  0 0.10033802E+03</rscale>
<asrwt>0</asrwt>
<pdfrwt beam="1">  1        2 0.77719334E-02 0.10033802E+03</pdfrwt>
<pdfrwt beam="2">  1       -2 0.76650552E-02 0.10033802E+03</pdfrwt>
<totfact> 0.76927181E+04</totfact>
</mgrwt>
</event>
<event>
 7    1  0.1028619E-012  0.9891119E+02  0.7546771E-02  0.1282602E+00
         -3   -1    0    0    0  501 -0.00000000000E+00  0.00000000000E+00  0.32727491607E+03  0.32727491607E+03  0.00000000000E+00 0.  1.
          3   -1    0    0  501    0  0.00000000000E+00 -0.00000000000E+00 -0.74733985219E+01  0.74733985219E+01  0.00000000000E+00 0. -1.
         23    2    1    2    0    0  0.00000000000E+00  0.17763568394E-14  0.31980151755E+03  0.33474831460E+03  0.98911189944E+02 0.  0.
          5    1    3    3  502    0  0.75031888164E+01 -0.19293057629E+02  0.36160222594E+02  0.41930557033E+02  0.47000000000E+01 0. -1.
         -5    1    3    3    0  503 -0.30129019152E+01  0.21078125713E+02  0.68352336873E+02  0.71746058550E+02  0.47000000000E+01 0.  1.
          5    1    3    3  503    0 -0.23382901197E+02 -0.13487159892E+02  0.12521331515E+03  0.12817615941E+03  0.47000000000E+01 0.  1.
         -5    1    3    3    0  502  0.18892614296E+02  0.11702091809E+02  0.90075642933E+02  0.92895539599E+02  0.47000000000E+01 0. -1.
<mgrwt>
<rscale>  0 0.98911190E+02</rscale>
<asrwt>0</asrwt>
<pdfrwt beam="1">  1        3 0.11497539E-02 0.98911190E+02</pdfrwt>
<pdfrwt beam="2">  1       -3 0.50349976E-01 0.98911190E+02</pdfrwt>
<totfact> 0.18255653E+04</totfact>
</mgrwt>
</event>
<event>
 7    1  0.1028619E-012  0.1020679E+03  0.7546771E-02  0.1276007E+00
         -2   -1    0    0    0  501 -0.00000000000E+00  0.00000000000E+00  0.45508361544E+01  0.45508361544E+01  0.00000000000E+00 0.  1.
          2   -1    0    0  501    0  0.00000000000E+00 -0.00000000000E+00 -0.57230491928E+03  0.57230491928E+03  0.00000000000E+00 0. -1.
         23    2    1    2    0    0  0.00000000000E+00  0.00000000000E+00 -0.56775408312E+03  0.57685575543E+03  0.10206793655E+03 0.  0.
          5    1    3    3  502    0 -0.20727890271E+02  0.41642957901E+01 -0.14224354252E+03  0.14388294612E+03  0.47000000000E+01 0. -1.
         -5    1    3    3    0  502  0.20750901552E+02  0.52815091244E+01 -0.15709608360E+03  0.15861829572E+03  0.47000000000E+01 0.  1.
          5    1    3    3  503    0  0.23964464851E+02  0.90622221702E+01 -0.11640204158E+03  0.11928094873E+03  0.47000000000E+01 0. -1.
         -5    1    3    3    0  503 -0.23987476131E+02 -0.18508027085E+02 -0.15201241543E+03  0.15507356487E+03  0.47000000000E+01 0.  1.
<mgrwt>
<rscale>  0 0.10206794E+03</rscale>
<asrwt>0</asrwt>
<pdfrwt beam="1">  1        2 0.88046927E-01 0.10206794E+03</pdfrwt>
<pdfrwt beam="2">  1       -2 0.70012851E-03 0.10206794E+03</pdfrwt>
<totfact> 0.16650444E+05</totfact>
</mgrwt>
</event>
<event>
 7    1  0.1028619E-012  0.9152514E+02  0.7546771E-02  0.1299200E+00
         -1   -1    0    0    0  501 -0.00000000000E+00  0.00000000000E+00  0.18476356627E+02  0.18476356627E+02  0.00000000000E+00 0.  1.
          1   -1    0    0  501    0  0.00000000000E+00 -0.00000000000E+00 -0.11334556126E+03  0.11334556126E+03  0.00000000000E+00 0. -1.
         23    2    1    2    0    0  0.00000000000E+00  0.13322676296E-14 -0.94869204638E+02  0.13182191789E+03  0.91525144349E+02 0.  0.
          5    1    3    3  502    0 -0.20474894427E+02  0.28618043195E+01 -0.31504430634E+02  0.37974075043E+02  0.47000000000E+01 0. -1.
         -5    1    3    3    0  503  0.17195058989E+02  0.14522111749E+02 -0.34558196287E+02  0.41508080104E+02  0.47000000000E+01 0.  1.
          5    1    3    3  503    0 -0.17182408004E+02 -0.13169775098E+02 -0.16680141552E+02  0.27730763479E+02  0.47000000000E+01 0. -1.
         -5    1    3    3    0  502  0.20462243442E+02 -0.42141409709E+01 -0.12126436165E+02  0.24608999266E+02  0.47000000000E+01 0.  1.
<mgrwt>
<rscale>  0 0.91525144E+02</rscale>
<asrwt>0</asrwt>
<pdfrwt beam="1">  1        1 0.17437779E-01 0.91525144E+02</pdfrwt>
<pdfrwt beam="2">  1       -1 0.28425164E-02 0.91525144E+02</pdfrwt>
<totfact> 0.10558330E+05</totfact>
</mgrwt>
</event>
<event>
 7    1  0.1028619E-012  0.9532372E+02  0.7546771E-02  0.1290449E+00
          1   -1    0    0  501    0  0.00000000000E+00  0.00000000000E+00  0.17963978329E+03  0.17963978329E+03  0.00000000000E+00 0. -1.
         -1   -1    0    0    0  501 -0.00000000000E+00 -0.00000000000E+00 -0.12645600970E+02  0.12645600970E+02  0.00000000000E+00 0.  1.
         23    2    1    2    0    0 -0.35527136788E-14 -0.17763568394E-14  0.16699418232E+03  0.19228538426E+03  0.95323722502E+02 0.  0.
          5    1    3    3  502    0  0.48187812301E+00 -0.20658356026E+02  0.46676600134E+02  0.51262021813E+02  0.47000000000E+01 0. -1.
         -5    1    3    3    0  502  0.22544822032E+02  0.73588177763E+01  0.27076436751E+02  0.36299375017E+02  0.47000000000E+01 0.  1.
          5    1    3    3  503    0 -0.22503980413E+02 -0.91082885337E+01  0.50766684391E+02  0.56468896735E+02  0.47000000000E+01 0.  1.
         -5    1    3    3    0  503 -0.52271974161E+00  0.22407826784E+02  0.42474461045E+02  0.48255090696E+02  0.47000000000E+01 0. -1.
<mgrwt>
<rscale>  0 0.95323723E+02</rscale>
<asrwt>0</asrwt>
<pdfrwt beam="1">  1        1 0.27636888E-01 0.95323723E+02</pdfrwt>
<pdfrwt beam="2">  1       -1 0.19454772E-02 0.95323723E+02</pdfrwt>
<totfact> 0.10287593E+05</totfact>
</mgrwt>
</event>
<event>
 7    1  0.1028619E-012  0.1021859E+03  0.7546771E-02  0.1275765E+00
          2   -1    0    0  501    0  0.00000000000E+00  0.00000000000E+00  0.97513458924E+02  0.97513458924E+02  0.00000000000E+00 0. -1.
         -2   -1    0    0    0  501 -0.00000000000E+00 -0.00000000000E+00 -0.26770539141E+02  0.26770539141E+02  0.00000000000E+00 0.  1.
         23    2    1    2    0    0  0.88817841970E-15 -0.17763568394E-14  0.70742919783E+02  0.12428399807E+03  0.10218586730E+03 0.  0.
          5    1    3    3  502    0  0.67636681515E+01  0.19304240046E+02  0.72497750904E+01  0.22204732141E+02  0.47000000000E+01 0.  1.
         -5    1    3    3    0  502 -0.29395948931E+01 -0.20369794907E+02  0.52742779168E+01  0.21759544348E+02  0.47000000000E+01 0. -1.
          5    1    3    3  503    0  0.21193215377E+02  0.82807327477E+01  0.45223615004E+02  0.50842779890E+02  0.47000000000E+01 0. -1.
         -5    1    3    3    0  503 -0.25017288636E+02 -0.72151778864E+01  0.12995251772E+02  0.29476941687E+02  0.47000000000E+01 0.  1.
<mgrwt>
<rscale>  0 0.10218587E+03</rscale>
<asrwt>0</asrwt>
<pdfrwt beam="1">  1        2 0.15002070E-01 0.10218587E+03</pdfrwt>
<pdfrwt beam="2">  1       -2 0.41185445E-02 0.10218587E+03</pdfrwt>
<totfact> 0.88664351E+04</totfact>
</mgrwt>
</event>
<event>
 7    1  0.1028619E-012  0.1028439E+03  0.7546771E-02  0.1274427E+00
         -1   -1    0    0    0  501 -0.00000000000E+00  0.00000000000E+00  0.10744386651E+03  0.10744386651E+03  0.00000000000E+00 0.  1.
          1   -1    0    0  501    0  0.00000000000E+00 -0.00000000000E+00 -0.24610237396E+02  0.24610237396E+02  0.00000000000E+00 0. -1.
         23    2    1    2    0    0  0.17763568394E-14 -0.88817841970E-15  0.82833629118E+02  0.13205410391E+03  0.10284394123E+03 0.  0.
          5    1    3    3  502    0  0.27761314785E+02  0.25127529126E+01  0.22879556122E+02  0.36367136458E+02  0.47000000000E+01 0.  1.
         -5    1    3    3    0  503 -0.29821431130E+01 -0.22594088350E+02  0.42261664520E+02  0.48244422412E+02  0.47000000000E+01 0.  1.
          5    1    3    3  503    0 -0.41759930563E+01  0.20451544700E+02  0.15012725961E+02  0.26137646019E+02  0.47000000000E+01 0. -1.
         -5    1    3    3    0  502 -0.20603178615E+02 -0.37020926235E+00  0.26796825153E+01  0.21304899022E+02  0.47000000000E+01 0. -1.
<mgrwt>
<rscale>  0 0.10284394E+03</rscale>
<asrwt>0</asrwt>
<pdfrwt beam="1">  1        1 0.37861904E-02 0.10284394E+03</pdfrwt>
<pdfrwt beam="2">  1       -1 0.16529825E-01 0.10284394E+03</pdfrwt>
<totfact> 0.58796269E+04</totfact>
</mgrwt>
</event>
<event>
 7    1  0.1028619E-012  0.9462244E+02  0.7546771E-02  0.1292029E+00
          1   -1    0    0  501    0  0.00000000000E+00  0.00000000000E+00  0.16117801792E+02  0.16117801792E+02  0.00000000000E+00 0. -1.
         -1   -1    0    0    0  501 -0.00000000000E+00 -0.00000000000E+00 -0.13887449450E+03  0.13887449450E+03  0.00000000000E+00 0.  1.
         23    2    1    2    0    0 -0.17763568394E-14  0.35527136788E-14 -0.12275669271E+03  0.15499229630E+03  0.94622440814E+02 0.  0.
          5    1    3    3  502    0  0.16701209918E+02 -0.16599148388E+02 -0.27805750652E+02  0.36738425514E+02  0.47000000000E+01 0. -1.
         -5    1    3    3    0  503  0.19150969449E+02  0.74582619688E+01 -0.96828817166E+01  0.23199859930E+02  0.47000000000E+01 0.  1.
          5    1    3    3  503    0 -0.15879215126E+02  0.13085854903E+02 -0.41998401014E+02  0.47003667509E+02  0.47000000000E+01 0. -1.
         -5    1    3    3    0  502 -0.19972964241E+02 -0.39449684843E+01 -0.43269659330E+02  0.48050343343E+02  0.47000000000E+01 0.  1.
<mgrwt>
<rscale>  0 0.94622441E+02</rscale>
<asrwt>0</asrwt>
<pdfrwt beam="1">  1        1 0.24796618E-02 0.94622441E+02</pdfrwt>
<pdfrwt beam="2">  1       -1 0.21365307E-01 0.94622441E+02</pdfrwt>
<totfact> 0.69128039E+04</totfact>
</mgrwt>
</event>
<event>
 7    1  0.1028619E-012  0.9835695E+02  0.7546771E-02  0.1283789E+00
          4   -1    0    0  501    0  0.00000000000E+00  0.00000000000E+00  0.58190147493E+02  0.58190147493E+02  0.00000000000E+00 0. -1.
         -4   -1    0    0    0  501 -0.00000000000E+00 -0.00000000000E+00 -0.41562404140E+02  0.41562404140E+02  0.00000000000E+00 0.  1.
         23    2    1    2    0    0  0.17763568394E-14 -0.88817841970E-15  0.16627743354E+02  0.99752551633E+02  0.98356950483E+02 0.  0.
          5    1    3    3  502    0  0.12775999482E+02 -0.19442470651E+02  0.27781949959E+01  0.23896531029E+02  0.47000000000E+01 0. -1.
         -5    1    3    3    0  502 -0.15579168427E+02  0.20428119860E+02  0.47847444493E+01  0.26551880336E+02  0.47000000000E+01 0.  1.
          5    1    3    3  503    0  0.24757745591E+02 -0.48635419857E+01  0.53986114712E+01  0.26226608878E+02  0.47000000000E+01 0.  1.
         -5    1    3    3    0  503 -0.21954576646E+02  0.38778927765E+01  0.36661924374E+01  0.23077531391E+02  0.47000000000E+01 0. -1.
<mgrwt>
<rscale>  0 0.98356950E+02</rscale>
<asrwt>0</asrwt>
<pdfrwt beam="1">  1        4 0.89523304E-02 0.98356950E+02</pdfrwt>
<pdfrwt beam="2">  1       -4 0.63942160E-02 0.98356950E+02</pdfrwt>
<totfact> 0.21527549E+04</totfact>
</mgrwt>
</event>
<event>
 7    1  0.1028619E-012  0.9308984E+02  0.7546771E-02  0.1295537E+00
         -3   -1    0    0    0  501 -0.00000000000E+00  0.00000000000E+00  0.85199037690E+01  0.85199037690E+01  0.00000000000E+00 0.  1.
          3   -1    0    0  501    0  0.00000000000E+00 -0.00000000000E+00 -0.25427864709E+03  0.25427864709E+03  0.00000000000E+00 0. -1.
         23    2    1    2    0    0 -0.88817841970E-15 -0.35527136788E-14 -0.24575874333E+03  0.26279855086E+03  0.93089840558E+02 0.  0.
          5    1    3    3  502    0  0.20158019357E+02  0.91688751761E+01 -0.54142525168E+02  0.58684896250E+02  0.47000000000E+01 0. -1.
         -5    1    3    3    0  503 -0.46798641247E+01  0.21533965917E+02 -0.70441250256E+02  0.73957234629E+02  0.47000000000E+01 0.  1.
          5    1    3    3  503    0  0.55519514476E+01 -0.20517388809E+02 -0.39819801974E+02  0.45381648688E+02  0.47000000000E+01 0.  1.
         -5    1    3    3    0  502 -0.21030106680E+02 -0.10185452284E+02 -0.81355165928E+02  0.84774771297E+02  0.47000000000E+01 0. -1.
<mgrwt>
<rscale>  0 0.93089841E+02</rscale>
<asrwt>0</asrwt>
<pdfrwt beam="1">  1        3 0.39119794E-01 0.93089841E+02</pdfrwt>
<pdfrwt beam="2">  1       -3 0.13107544E-02 0.93089841E+02</pdfrwt>
<totfact> 0.24155388E+04</totfact>
</mgrwt>
</event>
<event>
 7    1  0.1028619E-012  0.1020862E+03  0.7546771E-02  0.1275969E+00
         -2   -1    0    0    0  501 -0.00000000000E+00  0.00000000000E+00  0.12231076101E+02  0.12231076101E+02  0.00000000000E+00 0. -1.
          2   -1    0    0  501    0  0.00000000000E+00 -0.00000000000E+00 -0.21301465661E+03  0.21301465661E+03  0.00000000000E+00 0.  1.
         23    2    1    2    0    0  0.00000000000E+00  0.35527136788E-14 -0.20078358051E+03  0.22524573272E+03  0.10208620819E+03 0.  0.
          5    1    3    3  502    0  0.13710619443E+01  0.21086945132E+02 -0.28750532315E+02  0.35989195244E+02  0.47000000000E+01 0. -1.
         -5    1    3    3    0  503  0.20863588882E+02 -0.16068030109E+02 -0.97527281217E+02  0.10112928119E+03  0.47000000000E+01 0.  1.
          5    1    3    3  503    0 -0.15166606771E+02  0.16983944409E+02 -0.32606672403E+02  0.40047040013E+02  0.47000000000E+01 0. -1.
         -5    1    3    3    0  502 -0.70680440550E+01 -0.22002859432E+02 -0.41899094577E+02  0.48080216268E+02  0.47000000000E+01 0.  1.
<mgrwt>
<rscale>  0 0.10208621E+03</rscale>
<asrwt>0</asrwt>
<pdfrwt beam="1">  1        2 0.32771486E-01 0.10208621E+03</pdfrwt>
<pdfrwt beam="2">  1       -2 0.18817040E-02 0.10208621E+03</pdfrwt>
<totfact> 0.11654100E+05</totfact>
</mgrwt>
</event>
<event>
 7    1  0.1028619E-012  0.9198188E+02  0.7546771E-02  0.1298122E+00
          3   -1    0    0  501    0  0.00000000000E+00  0.00000000000E+00  0.90344332483E+01  0.90344332483E+01  0.00000000000E+00 0.  1.
         -3   -1    0    0    0  501 -0.00000000000E+00 -0.00000000000E+00 -0.23412278456E+03  0.23412278456E+03  0.00000000000E+00 0. -1.
         23    2    1    2    0    0  0.17763568394E-14  0.17763568394E-14 -0.22508835131E+03  0.24315721780E+03  0.91981882324E+02 0.  0.
          5    1    3    3  502    0  0.51038225330E+01 -0.22874084265E+02 -0.77025043575E+02  0.80648745019E+02  0.47000000000E+01 0. -1.
         -5    1    3    3    0  502 -0.34431462852E+01  0.21664610416E+02 -0.54646929395E+02  0.59072730537E+02  0.47000000000E+01 0. -1.
          5    1    3    3  503    0  0.14560700525E+02 -0.14637873102E+02 -0.41589304269E+02  0.46669492800E+02  0.47000000000E+01 0. -1.
         -5    1    3    3    0  503 -0.16221376773E+02  0.15847346951E+02 -0.51827074069E+02  0.56766249447E+02  0.47000000000E+01 0.  1.
<mgrwt>
<rscale>  0 0.91981882E+02</rscale>
<asrwt>0</asrwt>
<pdfrwt beam="1">  1        3 0.13899128E-02 0.91981882E+02</pdfrwt>
<pdfrwt beam="2">  1       -3 0.36018890E-01 0.91981882E+02</pdfrwt>
<totfact> 0.25788366E+04</totfact>
</mgrwt>
</event>
<event>
 7    1  0.1028619E-012  0.9116304E+02  0.7546771E-02  0.1300059E+00
         -1   -1    0    0    0  501 -0.00000000000E+00  0.00000000000E+00  0.49234232271E+01  0.49234232271E+01  0.00000000000E+00 0.  1.
          1   -1    0    0  501    0  0.00000000000E+00 -0.00000000000E+00 -0.42199801446E+03  0.42199801446E+03  0.00000000000E+00 0. -1.
         23    2    1    2    0    0  0.00000000000E+00 -0.17763568394E-14 -0.41707459124E+03  0.42692143769E+03  0.91163036943E+02 0.  0.
          5    1    3    3  502    0 -0.76050964575E+01  0.21577506582E+02 -0.83056140446E+02  0.86277683952E+02  0.47000000000E+01 0.  1.
         -5    1    3    3    0  503  0.91431249813E+01 -0.19614906524E+02 -0.11587513299E+03  0.11797236005E+03  0.47000000000E+01 0. -1.
          5    1    3    3  503    0 -0.17417956409E+02  0.12415070717E+02 -0.87434641538E+02  0.90135596339E+02  0.47000000000E+01 0. -1.
         -5    1    3    3    0  502  0.15879927885E+02 -0.14377670775E+02 -0.13070867627E+03  0.13253579734E+03  0.47000000000E+01 0.  1.
<mgrwt>
<rscale>  0 0.91163037E+02</rscale>
<asrwt>0</asrwt>
<pdfrwt beam="1">  1        1 0.64922751E-01 0.91163037E+02</pdfrwt>
<pdfrwt beam="2">  1       -1 0.75744997E-03 0.91163037E+02</pdfrwt>
<totfact> 0.13610295E+05</totfact>
</mgrwt>
</event>
<event>
 7    1  0.1028619E-012  0.9164032E+02  0.7546771E-02  0.1298927E+00
         -2   -1    0    0    0  501 -0.00000000000E+00  0.00000000000E+00  0.34864599859E+02  0.34864599859E+02  0.00000000000E+00 0.  1.
          2   -1    0    0  501    0  0.00000000000E+00 -0.00000000000E+00 -0.60218303658E+02  0.60218303658E+02  0.00000000000E+00 0. -1.
         23    2    1    2    0    0  0.00000000000E+00  0.88817841970E-15 -0.25353703799E+02  0.95082903517E+02  0.91640319973E+02 0.  0.
          5    1    3    3  502    0  0.18117547553E+02  0.12416727345E+02 -0.52989518102E+00  0.22467564092E+02  0.47000000000E+01 0. -1.
         -5    1    3    3    0  503 -0.21652503650E+02  0.85740779886E+01 -0.19730859606E+02  0.30882722491E+02  0.47000000000E+01 0. -1.
          5    1    3    3  503    0  0.18706238659E+02 -0.79295409006E+01 -0.28245367001E+01  0.21044452743E+02  0.47000000000E+01 0.  1.
         -5    1    3    3    0  502 -0.15171282563E+02 -0.13061264433E+02 -0.22684123120E+01  0.20688164191E+02  0.47000000000E+01 0.  1.
<mgrwt>
<rscale>  0 0.91640320E+02</rscale>
<asrwt>0</asrwt>
<pdfrwt beam="1">  1        2 0.92643543E-02 0.91640320E+02</pdfrwt>
<pdfrwt beam="2">  1       -2 0.53637846E-02 0.91640320E+02</pdfrwt>
<totfact> 0.10466325E+05</totfact>
</mgrwt>
</event>
<event>
 7    1  0.1028619E-012  0.9410940E+02  0.7546771E-02  0.1293195E+00
          3   -1    0    0  501    0  0.00000000000E+00  0.00000000000E+00  0.26028843560E+02  0.26028843560E+02  0.00000000000E+00 0. -1.
         -3   -1    0    0    0  501 -0.00000000000E+00 -0.00000000000E+00 -0.85065046594E+02  0.85065046594E+02  0.00000000000E+00 0.  1.
         23    2    1    2    0    0  0.00000000000E+00  0.17763568394E-14 -0.59036203034E+02  0.11109389015E+03  0.94109399960E+02 0.  0.
          5    1    3    3  502    0 -0.15106528492E+02  0.17734451088E+02 -0.31291976953E+01  0.23970812183E+02  0.47000000000E+01 0. -1.
         -5    1    3    3    0  503  0.14027564420E+02 -0.15980119191E+02 -0.18537414282E+02  0.28598295424E+02  0.47000000000E+01 0. -1.
          5    1    3    3  503    0  0.19961212524E+01  0.20832582990E+02 -0.22368032937E+02  0.30990319643E+02  0.47000000000E+01 0.  1.
         -5    1    3    3    0  502 -0.91715718003E+00 -0.22586914887E+02 -0.15001558119E+02  0.27534462904E+02  0.47000000000E+01 0.  1.
<mgrwt>
<rscale>  0 0.94109400E+02</rscale>
<asrwt>0</asrwt>
<pdfrwt beam="1">  1        3 0.40044375E-02 0.94109400E+02</pdfrwt>
<pdfrwt beam="2">  1       -3 0.13086930E-01 0.94109400E+02</pdfrwt>
<totfact> 0.31067183E+04</totfact>
</mgrwt>
</event>
<event>
 7    1  0.1028619E-012  0.1005292E+03  0.7546771E-02  0.1279187E+00
          2   -1    0    0  501    0  0.00000000000E+00  0.00000000000E+00  0.48397253190E+03  0.48397253190E+03  0.00000000000E+00 0. -1.
         -2   -1    0    0    0  501 -0.00000000000E+00 -0.00000000000E+00 -0.52204022274E+01  0.52204022274E+01  0.00000000000E+00 0.  1.
         23    2    1    2    0    0  0.00000000000E+00 -0.17763568394E-14  0.47875212968E+03  0.48919293413E+03  0.10052922527E+03 0.  0.
          5    1    3    3  502    0 -0.10107653994E+02 -0.20061197988E+02  0.72922749144E+02  0.76448895850E+02  0.47000000000E+01 0.  1.
         -5    1    3    3    0  502  0.93841280565E+01  0.21674759698E+02  0.85018833862E+02  0.88363732259E+02  0.47000000000E+01 0. -1.
          5    1    3    3  503    0 -0.21410007763E+02 -0.88454114551E+01  0.13446148311E+03  0.13652329536E+03  0.47000000000E+01 0. -1.
         -5    1    3    3    0  503  0.22133533700E+02  0.72318497444E+01  0.18634906356E+03  0.18785701066E+03  0.47000000000E+01 0.  1.
<mgrwt>
<rscale>  0 0.10052923E+03</rscale>
<asrwt>0</asrwt>
<pdfrwt beam="1">  1        2 0.74457277E-01 0.10052923E+03</pdfrwt>
<pdfrwt beam="2">  1       -2 0.80313919E-03 0.10052923E+03</pdfrwt>
<totfact> 0.16440276E+05</totfact>
</mgrwt>
</event>
<event>
 7    1  0.1028619E-012  0.9133167E+02  0.7546771E-02  0.1299659E+00
          1   -1    0    0  501    0  0.00000000000E+00  0.00000000000E+00  0.24504529036E+03  0.24504529036E+03  0.00000000000E+00 0. -1.
         -1   -1    0    0    0  501 -0.00000000000E+00 -0.00000000000E+00 -0.85101350819E+01  0.85101350819E+01  0.00000000000E+00 0.  1.
         23    2    1    2    0    0  0.00000000000E+00  0.00000000000E+00  0.23653515527E+03  0.25355542544E+03  0.91331670785E+02 0.  0.
          5    1    3    3  502    0 -0.11378163986E+02 -0.17342315820E+02  0.70779145095E+02  0.73905317225E+02  0.47000000000E+01 0. -1.
         -5    1    3    3    0  503  0.35776110316E+01 -0.20254528547E+02  0.47362405830E+02  0.51849134162E+02  0.47000000000E+01 0.  1.
          5    1    3    3  503    0  0.15488955660E+02  0.17938956007E+02  0.81815346522E+02  0.85308585831E+02  0.47000000000E+01 0. -1.
         -5    1    3    3    0  502 -0.76884027056E+01  0.19657888360E+02  0.36578257826E+02  0.42492388219E+02  0.47000000000E+01 0.  1.
<mgrwt>
<rscale>  0 0.91331671E+02</rscale>
<asrwt>0</asrwt>
<pdfrwt beam="1">  1        1 0.37699270E-01 0.91331671E+02</pdfrwt>
<pdfrwt beam="2">  1       -1 0.13092517E-02 0.91331671E+02</pdfrwt>
<totfact> 0.12263086E+05</totfact>
</mgrwt>
</event>
<event>
 7    1  0.1028619E-012  0.9801113E+02  0.7546771E-02  0.1284535E+00
          2   -1    0    0  501    0  0.00000000000E+00  0.00000000000E+00  0.48625046432E+03  0.48625046432E+03  0.00000000000E+00 0.  1.
         -2   -1    0    0    0  501 -0.00000000000E+00 -0.00000000000E+00 -0.49389065804E+01  0.49389065804E+01  0.00000000000E+00 0. -1.
         23    2    1    2    0    0  0.35527136788E-14 -0.13322676296E-14  0.48131155774E+03  0.49118937090E+03  0.98011134428E+02 0.  0.
          5    1    3    3  502    0  0.17529356116E+02  0.13286090935E+02  0.16567829701E+03  0.16719804616E+03  0.47000000000E+01 0. -1.
         -5    1    3    3    0  502 -0.20164963212E+02 -0.13704658037E+02  0.13670701068E+03  0.13894365823E+03  0.47000000000E+01 0.  1.
          5    1    3    3  503    0  0.24167321129E+02 -0.30142883684E+01  0.88373130951E+02  0.91788047256E+02  0.47000000000E+01 0. -1.
         -5    1    3    3    0  503 -0.21531714033E+02  0.34328554706E+01  0.90553119102E+02  0.93259619262E+02  0.47000000000E+01 0.  1.
<mgrwt>
<rscale>  0 0.98011134E+02</rscale>
<asrwt>0</asrwt>
<pdfrwt beam="1">  1        2 0.74807726E-01 0.98011134E+02</pdfrwt>
<pdfrwt beam="2">  1       -2 0.75983216E-03 0.98011134E+02</pdfrwt>
<totfact> 0.17620640E+05</totfact>
</mgrwt>
</event>
<event>
 7    1  0.1028619E-012  0.1030264E+03  0.7546771E-02  0.1274058E+00
          1   -1    0    0  501    0  0.00000000000E+00  0.00000000000E+00  0.10887217947E+03  0.10887217947E+03  0.00000000000E+00 0. -1.
         -1   -1    0    0    0  501 -0.00000000000E+00 -0.00000000000E+00 -0.24373604624E+02  0.24373604624E+02  0.00000000000E+00 0.  1.
         23    2    1    2    0    0 -0.26645352591E-14 -0.17763568394E-14  0.84498574844E+02  0.13324578409E+03  0.10302635501E+03 0.  0.
          5    1    3    3  502    0  0.87035507563E+00  0.23738344659E+02  0.53471841353E+01  0.24798163305E+02  0.47000000000E+01 0. -1.
         -5    1    3    3    0  502 -0.13884079134E+00 -0.20269081764E+02  0.28920235241E+02  0.35627587046E+02  0.47000000000E+01 0.  1.
          5    1    3    3  503    0 -0.17670148000E+02  0.93805937170E+01  0.46351224386E+02  0.50702619961E+02  0.47000000000E+01 0. -1.
         -5    1    3    3    0  503  0.16938633716E+02 -0.12849856612E+02  0.38799310826E+01  0.22117413780E+02  0.47000000000E+01 0.  1.
<mgrwt>
<rscale>  0 0.10302636E+03</rscale>
<asrwt>0</asrwt>
<pdfrwt beam="1">  1        1 0.16749566E-01 0.10302636E+03</pdfrwt>
<pdfrwt beam="2">  1       -1 0.37497854E-02 0.10302636E+03</pdfrwt>
<totfact> 0.75785973E+04</totfact>
</mgrwt>
</event>
<event>
 7    1  0.1028619E-012  0.9132695E+02  0.7546771E-02  0.1299670E+00
         -4   -1    0    0    0  501 -0.00000000000E+00  0.00000000000E+00  0.27720599787E+02  0.27720599787E+02  0.00000000000E+00 0.  1.
          4   -1    0    0  501    0  0.00000000000E+00 -0.00000000000E+00 -0.75220341730E+02  0.75220341730E+02  0.00000000000E+00 0. -1.
         23    2    1    2    0    0  0.66613381478E-15  0.35527136788E-14 -0.47499741942E+02  0.10294094152E+03  0.91326950873E+02 0.  0.
          5    1    3    3  502    0 -0.13394355932E+02  0.17305370153E+02 -0.16277603199E+02  0.27675530218E+02  0.47000000000E+01 0.  1.
         -5    1    3    3    0  502  0.15283013429E+02 -0.14112723183E+02 -0.10345557792E+02  0.23703586672E+02  0.47000000000E+01 0. -1.
          5    1    3    3  503    0 -0.32121630944E+01 -0.23840515675E+02 -0.17406267672E+02  0.30062540373E+02  0.47000000000E+01 0. -1.
         -5    1    3    3    0  503  0.13235055978E+01  0.20647868705E+02 -0.34703132787E+01  0.21499284253E+02  0.47000000000E+01 0.  1.
<mgrwt>
<rscale>  0 0.91326951E+02</rscale>
<asrwt>0</asrwt>
<pdfrwt beam="1">  1        4 0.11572360E-01 0.91326951E+02</pdfrwt>
<pdfrwt beam="2">  1       -4 0.42647078E-02 0.91326951E+02</pdfrwt>
<totfact> 0.26160440E+04</totfact>
</mgrwt>
</event>
<event>
 7    1  0.1028619E-012  0.9075494E+02  0.7546771E-02  0.1301034E+00
         -1   -1    0    0    0  501 -0.00000000000E+00  0.00000000000E+00  0.36734201863E+02  0.36734201863E+02  0.00000000000E+00 0.  1.
          1   -1    0    0  501    0  0.00000000000E+00 -0.00000000000E+00 -0.56054429491E+02  0.56054429491E+02  0.00000000000E+00 0. -1.
         23    2    1    2    0    0  0.00000000000E+00  0.88817841970E-15 -0.19320227628E+02  0.92788631354E+02  0.90754938780E+02 0.  0.
          5    1    3    3  502    0  0.19999779336E+02 -0.54411553345E+01 -0.16831277899E+02  0.27110500928E+02  0.47000000000E+01 0. -1.
         -5    1    3    3    0  503 -0.14000607990E+02 -0.17416755191E+02 -0.33087122178E+01  0.23073750497E+02  0.47000000000E+01 0.  1.
          5    1    3    3  503    0  0.13372424977E+02  0.15630585604E+02  0.29019369871E+01  0.21299018625E+02  0.47000000000E+01 0.  1.
         -5    1    3    3    0  502 -0.19371596324E+02  0.72273249213E+01 -0.20821744981E+01  0.21305361304E+02  0.47000000000E+01 0. -1.
<mgrwt>
<rscale>  0 0.90754939E+02</rscale>
<asrwt>0</asrwt>
<pdfrwt beam="1">  1        1 0.86237584E-02 0.90754939E+02</pdfrwt>
<pdfrwt beam="2">  1       -1 0.56514157E-02 0.90754939E+02</pdfrwt>
<totfact> 0.96624818E+04</totfact>
</mgrwt>
</event>
<event>
 7    1  0.1028619E-012  0.9663881E+02  0.7546771E-02  0.1287527E+00
         -2   -1    0    0    0  501 -0.00000000000E+00  0.00000000000E+00  0.72770327599E+03  0.72770327599E+03  0.00000000000E+00 0. -1.
          2   -1    0    0  501    0  0.00000000000E+00 -0.00000000000E+00 -0.32084022481E+01  0.32084022481E+01  0.00000000000E+00 0.  1.
         23    2    1    2    0    0  0.00000000000E+00  0.00000000000E+00  0.72449487374E+03  0.73091167824E+03  0.96638808491E+02 0.  0.
          5    1    3    3  502    0  0.26138325169E+02  0.83562058117E+00  0.22078149598E+03  0.22237461472E+03  0.47000000000E+01 0.  1.
         -5    1    3    3    0  503  0.13465253285E+02 -0.16088827902E+02  0.11681079631E+03  0.11877295804E+03  0.47000000000E+01 0.  1.
          5    1    3    3  503    0 -0.22808003364E+02 -0.72812025588E+00  0.20941273216E+03  0.21070481145E+03  0.47000000000E+01 0. -1.
         -5    1    3    3    0  502 -0.16795575090E+02  0.15981327577E+02  0.17748984929E+03  0.17905929402E+03  0.47000000000E+01 0. -1.
<mgrwt>
<rscale>  0 0.96638808E+02</rscale>
<asrwt>0</asrwt>
<pdfrwt beam="1">  1        2 0.49360093E-03 0.96638808E+02</pdfrwt>
<pdfrwt beam="2">  1       -2 0.11195422E+00 0.96638808E+02</pdfrwt>
<totfact> 0.22512915E+04</totfact>
</mgrwt>
</event>
<event>
 7    1  0.1028619E-012  0.8950620E+02  0.7546771E-02  0.1304052E+00
         -2   -1    0    0    0  501 -0.00000000000E+00  0.00000000000E+00  0.17022244615E+02  0.17022244615E+02  0.00000000000E+00 0.  1.
          2   -1    0    0  501    0  0.00000000000E+00 -0.00000000000E+00 -0.11766016142E+03  0.11766016142E+03  0.00000000000E+00 0. -1.
         23    2    1    2    0    0 -0.35527136788E-14  0.00000000000E+00 -0.10063791681E+03  0.13468240604E+03  0.89506202002E+02 0.  0.
          5    1    3    3  502    0  0.20898932689E+02 -0.78265620623E-01 -0.28505953917E+02  0.35657410474E+02  0.47000000000E+01 0.  1.
         -5    1    3    3    0  502  0.12344592422E+01  0.20548603971E+02 -0.22429661096E+02  0.30805011145E+02  0.47000000000E+01 0.  1.
          5    1    3    3  503    0  0.56585412706E+00 -0.20474574183E+02 -0.12693578728E+02  0.24550872078E+02  0.47000000000E+01 0. -1.
         -5    1    3    3    0  503 -0.22699246058E+02  0.42358318756E-02 -0.37008723069E+02  0.43669112342E+02  0.47000000000E+01 0. -1.
<mgrwt>
<rscale>  0 0.89506202E+02</rscale>
<asrwt>0</asrwt>
<pdfrwt beam="1">  1        2 0.18101563E-01 0.89506202E+02</pdfrwt>
<pdfrwt beam="2">  1       -2 0.26188069E-02 0.89506202E+02</pdfrwt>
<totfact> 0.13573333E+05</totfact>
</mgrwt>
</event>
<event>
 7    1  0.1028619E-012  0.9240425E+02  0.7546771E-02  0.1297132E+00
         -2   -1    0    0    0  501 -0.00000000000E+00  0.00000000000E+00  0.47400737827E+03  0.47400737827E+03  0.00000000000E+00 0.  1.
          2   -1    0    0  501    0  0.00000000000E+00 -0.00000000000E+00 -0.45033817610E+01  0.45033817610E+01  0.00000000000E+00 0. -1.
         23    2    1    2    0    0  0.17763568394E-14 -0.13322676296E-14  0.46950399651E+03  0.47851076003E+03  0.92404246264E+02 0.  0.
          5    1    3    3  502    0 -0.23052526049E+02  0.16015648829E+00  0.13106181707E+03  0.13315680418E+03  0.47000000000E+01 0.  1.
         -5    1    3    3    0  503  0.71796451764E+01  0.20604217269E+02  0.78386869230E+02  0.81502591013E+02  0.47000000000E+01 0. -1.
          5    1    3    3  503    0 -0.46164506891E+01 -0.22555645085E+02  0.13700559681E+03  0.13900608728E+03  0.47000000000E+01 0. -1.
         -5    1    3    3    0  502  0.20489331562E+02  0.17912713281E+01  0.12304971341E+03  0.12484527756E+03  0.47000000000E+01 0.  1.
<mgrwt>
<rscale>  0 0.92404246E+02</rscale>
<asrwt>0</asrwt>
<pdfrwt beam="1">  1        2 0.69282834E-03 0.92404246E+02</pdfrwt>
<pdfrwt beam="2">  1       -2 0.72924173E-01 0.92404246E+02</pdfrwt>
<totfact> 0.36530301E+04</totfact>
</mgrwt>
</event>
<event>
 7    1  0.1028619E-012  0.9456105E+02  0.7546771E-02  0.1292168E+00
         -3   -1    0    0    0  501 -0.00000000000E+00  0.00000000000E+00  0.22625452205E+03  0.22625452205E+03  0.00000000000E+00 0.  1.
          3   -1    0    0  501    0  0.00000000000E+00 -0.00000000000E+00 -0.98802360113E+01  0.98802360113E+01  0.00000000000E+00 0. -1.
         23    2    1    2    0    0  0.00000000000E+00 -0.88817841970E-15  0.21637428604E+03  0.23613475806E+03  0.94561050681E+02 0.  0.
          5    1    3    3  502    0 -0.11961785841E+02 -0.16456941539E+02  0.54144147467E+02  0.58030974059E+02  0.47000000000E+01 0. -1.
         -5    1    3    3    0  502  0.11866827136E+02  0.24399126134E+02  0.80340822750E+02  0.84928656780E+02  0.47000000000E+01 0.  1.
          5    1    3    3  503    0 -0.20582543536E+02 -0.26507944924E+01  0.51680548952E+02  0.55889506616E+02  0.47000000000E+01 0.  1.
         -5    1    3    3    0  503  0.20677502240E+02 -0.52913901021E+01  0.30208766869E+02  0.37285620605E+02  0.47000000000E+01 0. -1.
<mgrwt>
<rscale>  0 0.94561051E+02</rscale>
<asrwt>0</asrwt>
<pdfrwt beam="1">  1        3 0.15200365E-02 0.94561051E+02</pdfrwt>
<pdfrwt beam="2">  1       -3 0.34808384E-01 0.94561051E+02</pdfrwt>
<totfact> 0.24222489E+04</totfact>
</mgrwt>
</event>
<event>
 7    1  0.3494331E-012  0.9454860E+02  0.7546771E-02  0.1292196E+00
         -1   -1    0    0    0  501 -0.00000000000E+00  0.00000000000E+00  0.46169672785E+01  0.46169672785E+01  0.00000000000E+00 0.  1.
          1   -1    0    0  501    0  0.00000000000E+00 -0.00000000000E+00 -0.48405359963E+03  0.48405359963E+03  0.00000000000E+00 0. -1.
         23    2    1    2    0    0  0.22204460493E-15  0.00000000000E+00 -0.47943663235E+03  0.48867056691E+03  0.94548604020E+02 0.  0.
          5    1    3    3  502    0 -0.15281991602E+01 -0.21031686429E+02 -0.12161904293E+03  0.12352307004E+03  0.47000000000E+01 0.  1.
         -5    1    3    3    0  503  0.18547298316E+02  0.11663762969E+02 -0.19835629741E+03  0.19961802615E+03  0.47000000000E+01 0. -1.
          5    1    3    3  503    0 -0.18703752424E+02 -0.10989455324E+02 -0.10138638055E+03  0.10378769987E+03  0.47000000000E+01 0. -1.
         -5    1    3    3    0  502  0.16846532683E+01  0.20357378784E+02 -0.58074911460E+02  0.61741770858E+02  0.47000000000E+01 0.  1.
<mgrwt>
<rscale>  0 0.94548604E+02</rscale>
<asrwt>0</asrwt>
<pdfrwt beam="1">  1        1 0.74469815E-01 0.94548604E+02</pdfrwt>
<pdfrwt beam="2">  1       -1 0.71030237E-03 0.94548604E+02</pdfrwt>
<totfact> 0.12595892E+05</totfact>
</mgrwt>
</event>
<event>
 7    1  0.1028619E-012  0.9305416E+02  0.7546771E-02  0.1295620E+00
          3   -1    0    0  501    0  0.00000000000E+00  0.00000000000E+00  0.44087044189E+02  0.44087044189E+02  0.00000000000E+00 0. -1.
         -3   -1    0    0    0  501 -0.00000000000E+00 -0.00000000000E+00 -0.49102159145E+02  0.49102159145E+02  0.00000000000E+00 0.  1.
         23    2    1    2    0    0 -0.17763568394E-14  0.17763568394E-14 -0.50151149560E+01  0.93189203333E+02  0.93054157563E+02 0.  0.
          5    1    3    3  502    0 -0.51229328635E+01 -0.21343294491E+02 -0.45444135289E+01  0.22902453039E+02  0.47000000000E+01 0. -1.
         -5    1    3    3    0  502  0.68140447901E+01  0.20476246083E+02 -0.40965768668E+01  0.22462853827E+02  0.47000000000E+01 0.  1.
          5    1    3    3  503    0 -0.16296292556E+02 -0.13504556716E+02 -0.88062829649E+01  0.23400487662E+02  0.47000000000E+01 0.  1.
         -5    1    3    3    0  503  0.14605180630E+02  0.14371605124E+02  0.12432158405E+02  0.24423408805E+02  0.47000000000E+01 0. -1.
<mgrwt>
<rscale>  0 0.93054158E+02</rscale>
<asrwt>0</asrwt>
<pdfrwt beam="1">  1        3 0.67826222E-02 0.93054158E+02</pdfrwt>
<pdfrwt beam="2">  1       -3 0.75541783E-02 0.93054158E+02</pdfrwt>
<totfact> 0.33279080E+04</totfact>
</mgrwt>
</event>
<event>
 7    1  0.1028619E-012  0.1003958E+03  0.7546771E-02  0.1279466E+00
         -2   -1    0    0    0  501 -0.00000000000E+00  0.00000000000E+00  0.34597172724E+02  0.34597172724E+02  0.00000000000E+00 0.  1.
          2   -1    0    0  501    0  0.00000000000E+00 -0.00000000000E+00 -0.72833365835E+02  0.72833365835E+02  0.00000000000E+00 0. -1.
         23    2    1    2    0    0 -0.17763568394E-14  0.17763568394E-14 -0.38236193112E+02  0.10743053856E+03  0.10039578752E+03 0.  0.
          5    1    3    3  502    0  0.13798653371E+02  0.15688099266E+02 -0.10793186956E+01  0.21442346474E+02  0.47000000000E+01 0. -1.
         -5    1    3    3    0  502 -0.12256070748E+02 -0.16162586277E+02 -0.80378788498E+01  0.22319004498E+02  0.47000000000E+01 0. -1.
          5    1    3    3  503    0 -0.13806507427E+02  0.24805192817E+02 -0.12202478018E+02  0.31255522836E+02  0.47000000000E+01 0. -1.
         -5    1    3    3    0  503  0.12263924805E+02 -0.24330705806E+02 -0.16916517548E+02  0.32413664751E+02  0.47000000000E+01 0.  1.
<mgrwt>
<rscale>  0 0.10039579E+03</rscale>
<asrwt>0</asrwt>
<pdfrwt beam="1">  1        2 0.11205133E-01 0.10039579E+03</pdfrwt>
<pdfrwt beam="2">  1       -2 0.53226420E-02 0.10039579E+03</pdfrwt>
<totfact> 0.85269149E+04</totfact>
</mgrwt>
</event>
<event>
 7    1  0.1028619E-012  0.9339200E+02  0.7546771E-02  0.1294839E+00
          2   -1    0    0  501    0  0.00000000000E+00  0.00000000000E+00  0.19580773989E+02  0.19580773989E+02  0.00000000000E+00 0. -1.
         -2   -1    0    0    0  501 -0.00000000000E+00 -0.00000000000E+00 -0.11136007686E+03  0.11136007686E+03  0.00000000000E+00 0.  1.
         23    2    1    2    0    0  0.00000000000E+00 -0.17763568394E-14 -0.91779302876E+02  0.13094085085E+03  0.93392001723E+02 0.  0.
          5    1    3    3  502    0 -0.17574144989E+02 -0.12616454265E+02 -0.39656848434E+02  0.45417850213E+02  0.47000000000E+01 0. -1.
         -5    1    3    3    0  502  0.15217559936E+02  0.13271433907E+02 -0.57395826109E+01  0.21511343447E+02  0.47000000000E+01 0.  1.
          5    1    3    3  503    0  0.14390009051E+02 -0.17326481762E+02 -0.25054338780E+02  0.34016014206E+02  0.47000000000E+01 0. -1.
         -5    1    3    3    0  503 -0.12033423999E+02  0.16671502121E+02 -0.21328533051E+02  0.29995642987E+02  0.47000000000E+01 0.  1.
<mgrwt>
<rscale>  0 0.93392002E+02</rscale>
<asrwt>0</asrwt>
<pdfrwt beam="1">  1        2 0.30124268E-02 0.93392002E+02</pdfrwt>
<pdfrwt beam="2">  1       -2 0.17132319E-01 0.93392002E+02</pdfrwt>
<totfact> 0.72724580E+04</totfact>
</mgrwt>
</event>
<event>
 7    1  0.1028619E-012  0.9108539E+02  0.7546771E-02  0.1300244E+00
          1   -1    0    0  501    0  0.00000000000E+00  0.00000000000E+00  0.55710980329E+02  0.55710980329E+02  0.00000000000E+00 0. -1.
         -1   -1    0    0    0  501 -0.00000000000E+00 -0.00000000000E+00 -0.37230314070E+02  0.37230314070E+02  0.00000000000E+00 0.  1.
         23    2    1    2    0    0 -0.17763568394E-14 -0.35527136788E-14  0.18480666259E+02  0.92941294399E+02  0.91085394983E+02 0.  0.
          5    1    3    3  502    0  0.11155293659E+02 -0.18171815173E+02  0.40628629850E+01  0.22209284070E+02  0.47000000000E+01 0.  1.
         -5    1    3    3    0  503 -0.98640748873E+01  0.24802428848E+02  0.64262073018E+01  0.27854022877E+02  0.47000000000E+01 0.  1.
          5    1    3    3  503    0  0.19011284642E+02 -0.65359956964E+01  0.77047766651E+01  0.22036373725E+02  0.47000000000E+01 0. -1.
         -5    1    3    3    0  502 -0.20302503413E+02 -0.94617979490E-01  0.28681930718E+00  0.20841613727E+02  0.47000000000E+01 0. -1.
<mgrwt>
<rscale>  0 0.91085395E+02</rscale>
<asrwt>0</asrwt>
<pdfrwt beam="1">  1        1 0.85709200E-02 0.91085395E+02</pdfrwt>
<pdfrwt beam="2">  1       -1 0.57277406E-02 0.91085395E+02</pdfrwt>
<totfact> 0.95565712E+04</totfact>
</mgrwt>
</event>
<event>
 7    1  0.1028619E-012  0.9095693E+02  0.7546771E-02  0.1300551E+00
          1   -1    0    0  501    0  0.00000000000E+00  0.00000000000E+00  0.54270696244E+03  0.54270696244E+03  0.00000000000E+00 0. -1.
         -1   -1    0    0    0  501 -0.00000000000E+00 -0.00000000000E+00 -0.38110637287E+01  0.38110637287E+01  0.00000000000E+00 0.  1.
         23    2    1    2    0    0  0.35527136788E-14  0.00000000000E+00  0.53889589871E+03  0.54651802617E+03  0.90956930905E+02 0.  0.
          5    1    3    3  502    0 -0.23931813043E+02 -0.22658138511E+01  0.14425098769E+03  0.14631576483E+03  0.47000000000E+01 0. -1.
         -5    1    3    3    0  502 -0.73859803906E+01  0.19642018649E+02  0.85566479717E+02  0.88227399679E+02  0.47000000000E+01 0.  1.
          5    1    3    3  503    0  0.11248380387E+02 -0.16831515895E+02  0.12127177653E+03  0.12303966747E+03  0.47000000000E+01 0.  1.
         -5    1    3    3    0  503  0.20069413047E+02 -0.54468890336E+00  0.18780665478E+03  0.18893519419E+03  0.47000000000E+01 0. -1.
<mgrwt>
<rscale>  0 0.90956931E+02</rscale>
<asrwt>0</asrwt>
<pdfrwt beam="1">  1        1 0.83493318E-01 0.90956931E+02</pdfrwt>
<pdfrwt beam="2">  1       -1 0.58631793E-03 0.90956931E+02</pdfrwt>
<totfact> 0.14138842E+05</totfact>
</mgrwt>
</event>
<event>
 7    1  0.1028619E-012  0.9093006E+02  0.7546771E-02  0.1300615E+00
          2   -1    0    0  501    0  0.00000000000E+00  0.00000000000E+00  0.36735496894E+03  0.36735496894E+03  0.00000000000E+00 0.  1.
         -2   -1    0    0    0  501 -0.00000000000E+00 -0.00000000000E+00 -0.56268976753E+01  0.56268976753E+01  0.00000000000E+00 0. -1.
         23    2    1    2    0    0  0.00000000000E+00  0.00000000000E+00  0.36172807126E+03  0.37298186661E+03  0.90930057093E+02 0.  0.
          5    1    3    3  502    0 -0.12766048191E+02  0.16767261764E+02  0.11897624105E+03  0.12091959720E+03  0.47000000000E+01 0. -1.
         -5    1    3    3    0  503  0.15682532801E+02 -0.13700682950E+02  0.58548001152E+02  0.62318608676E+02  0.47000000000E+01 0. -1.
          5    1    3    3  503    0 -0.21617420381E+02  0.77067060963E+01  0.95265912015E+02  0.98103976345E+02  0.47000000000E+01 0.  1.
         -5    1    3    3    0  502  0.18700935771E+02 -0.10773284910E+02  0.88937917046E+02  0.91639684389E+02  0.47000000000E+01 0.  1.
<mgrwt>
<rscale>  0 0.90930057E+02</rscale>
<asrwt>0</asrwt>
<pdfrwt beam="1">  1        2 0.56516130E-01 0.90930057E+02</pdfrwt>
<pdfrwt beam="2">  1       -2 0.86567685E-03 0.90930057E+02</pdfrwt>
<totfact> 0.19498074E+05</totfact>
</mgrwt>
</event>
<event>
 7    1  0.1028619E-012  0.9559235E+02  0.7546771E-02  0.1289848E+00
         -4   -1    0    0    0  501 -0.00000000000E+00  0.00000000000E+00  0.17070656046E+03  0.17070656046E+03  0.00000000000E+00 0. -1.
          4   -1    0    0  501    0  0.00000000000E+00 -0.00000000000E+00 -0.13382463966E+02  0.13382463966E+02  0.00000000000E+00 0.  1.
         23    2    1    2    0    0  0.26645352591E-14  0.88817841970E-15  0.15732409649E+03  0.18408902442E+03  0.95592351036E+02 0.  0.
          5    1    3    3  502    0 -0.28564999006E+01  0.24685788886E+02  0.31449597326E+02  0.40357340554E+02  0.47000000000E+01 0. -1.
         -5    1    3    3    0  502  0.16078645915E+01 -0.21425221141E+02  0.30697947149E+02  0.37763464998E+02  0.47000000000E+01 0.  1.
          5    1    3    3  503    0  0.22572857876E+02 -0.53867691423E+00  0.35203755256E+02  0.42085846428E+02  0.47000000000E+01 0.  1.
         -5    1    3    3    0  503 -0.21324222567E+02 -0.27218908304E+01  0.59972796760E+02  0.63882372443E+02  0.47000000000E+01 0. -1.
<mgrwt>
<rscale>  0 0.95592351E+02</rscale>
<asrwt>0</asrwt>
<pdfrwt beam="1">  1        4 0.20588407E-02 0.95592351E+02</pdfrwt>
<pdfrwt beam="2">  1       -4 0.26262546E-01 0.95592351E+02</pdfrwt>
<totfact> 0.19429641E+04</totfact>
</mgrwt>
</event>
<event>
 7    1  0.1028619E-012  0.1033893E+03  0.7546771E-02  0.1273326E+00
         -2   -1    0    0    0  501 -0.00000000000E+00  0.00000000000E+00  0.67900248120E+02  0.67900248120E+02  0.00000000000E+00 0.  1.
          2   -1    0    0  501    0  0.00000000000E+00 -0.00000000000E+00 -0.39356811719E+02  0.39356811719E+02  0.00000000000E+00 0. -1.
         23    2    1    2    0    0 -0.17763568394E-14 -0.17763568394E-14  0.28543436401E+02  0.10725705984E+03  0.10338930856E+03 0.  0.
          5    1    3    3  502    0 -0.14978931043E+02 -0.16811060496E+02  0.65000627343E+01  0.23902320928E+02  0.47000000000E+01 0. -1.
         -5    1    3    3    0  503  0.20116273977E+02  0.50362306768E+01  0.24281846739E+02  0.32275783170E+02  0.47000000000E+01 0. -1.
          5    1    3    3  503    0 -0.23778194251E+02 -0.58420717466E+01 -0.18460009909E+01  0.25000600868E+02  0.47000000000E+01 0. -1.
         -5    1    3    3    0  502  0.18640851316E+02  0.17616901566E+02 -0.39247208168E+00  0.26078354873E+02  0.47000000000E+01 0.  1.
<mgrwt>
<rscale>  0 0.10338931E+03</rscale>
<asrwt>0</asrwt>
<pdfrwt beam="1">  1        2 0.60548941E-02 0.10338931E+03</pdfrwt>
<pdfrwt beam="2">  1       -2 0.10446192E-01 0.10338931E+03</pdfrwt>
<totfact> 0.65606188E+04</totfact>
</mgrwt>
</event>
<event>
 7    1  0.1028619E-012  0.9390106E+02  0.7546771E-02  0.1293671E+00
         -2   -1    0    0    0  501 -0.00000000000E+00  0.00000000000E+00  0.63595501770E+02  0.63595501770E+02  0.00000000000E+00 0.  1.
          2   -1    0    0  501    0  0.00000000000E+00 -0.00000000000E+00 -0.34662075007E+02  0.34662075007E+02  0.00000000000E+00 0. -1.
         23    2    1    2    0    0 -0.35527136788E-14  0.00000000000E+00  0.28933426764E+02  0.98257576777E+02  0.93901055424E+02 0.  0.
          5    1    3    3  502    0  0.22207838323E+02  0.12956217243E+02  0.62678232416E+01  0.26878006928E+02  0.47000000000E+01 0. -1.
         -5    1    3    3    0  503 -0.14904695335E+02 -0.13486096726E+02 -0.99615749598E+00  0.20666569083E+02  0.47000000000E+01 0. -1.
          5    1    3    3  503    0  0.13163794128E+01  0.21298888597E+02  0.10592904422E+02  0.24283227428E+02  0.47000000000E+01 0.  1.
         -5    1    3    3    0  502 -0.86195224006E+01 -0.20769009114E+02  0.13068856597E+02  0.26429773338E+02  0.47000000000E+01 0.  1.
<mgrwt>
<rscale>  0 0.93901055E+02</rscale>
<asrwt>0</asrwt>
<pdfrwt beam="1">  1        2 0.53326269E-02 0.93901055E+02</pdfrwt>
<pdfrwt beam="2">  1       -2 0.97839233E-02 0.93901055E+02</pdfrwt>
<totfact> 0.84275942E+04</totfact>
</mgrwt>
</event>
<event>
 7    1  0.1028619E-012  0.9089158E+02  0.7546771E-02  0.1300707E+00
         -1   -1    0    0    0  501 -0.00000000000E+00  0.00000000000E+00  0.31867800209E+03  0.31867800209E+03  0.00000000000E+00 0.  1.
          1   -1    0    0  501    0  0.00000000000E+00 -0.00000000000E+00 -0.64808981700E+01  0.64808981700E+01  0.00000000000E+00 0. -1.
         23    2    1    2    0    0  0.00000000000E+00 -0.13322676296E-14  0.31219710392E+03  0.32515890026E+03  0.90891576740E+02 0.  0.
          5    1    3    3  502    0  0.13971950504E+02 -0.18307481893E+02  0.10151861337E+03  0.10420411774E+03  0.47000000000E+01 0. -1.
         -5    1    3    3    0  503 -0.18659567538E+02  0.78744966708E+01  0.71255823177E+02  0.74227147966E+02  0.47000000000E+01 0. -1.
          5    1    3    3  503    0  0.20135183996E+02 -0.38972872284E+01  0.95445961202E+02  0.97737587406E+02  0.47000000000E+01 0.  1.
         -5    1    3    3    0  502 -0.15447566962E+02  0.14330272451E+02  0.43976706179E+02  0.48990047152E+02  0.47000000000E+01 0.  1.
<mgrwt>
<rscale>  0 0.90891577E+02</rscale>
<asrwt>0</asrwt>
<pdfrwt beam="1">  1        1 0.99706151E-03 0.90891577E+02</pdfrwt>
<pdfrwt beam="2">  1       -1 0.49027373E-01 0.90891577E+02</pdfrwt>
<totfact> 0.59613707E+04</totfact>
</mgrwt>
</event>
<event>
 7    1  0.1028619E-012  0.9309988E+02  0.7546771E-02  0.1295514E+00
          2   -1    0    0  501    0  0.00000000000E+00  0.00000000000E+00  0.51652654885E+03  0.51652654885E+03  0.00000000000E+00 0. -1.
         -2   -1    0    0    0  501 -0.00000000000E+00 -0.00000000000E+00 -0.41951316146E+01  0.41951316146E+01  0.00000000000E+00 0.  1.
         23    2    1    2    0    0  0.17763568394E-14  0.17763568394E-14  0.51233141724E+03  0.52072168047E+03  0.93099878729E+02 0.  0.
          5    1    3    3  502    0  0.88793154133E+00 -0.23788726162E+02  0.17280376952E+03  0.17449906783E+03  0.47000000000E+01 0. -1.
         -5    1    3    3    0  502 -0.53103071426E+01  0.19645918164E+02  0.95764516891E+02  0.98015785249E+02  0.47000000000E+01 0. -1.
          5    1    3    3  503    0  0.22489549283E+02 -0.68957012245E+01  0.15423478314E+03  0.15608904142E+03  0.47000000000E+01 0.  1.
         -5    1    3    3    0  503 -0.18067173682E+02  0.11038509222E+02  0.89528347692E+02  0.92117785965E+02  0.47000000000E+01 0.  1.
<mgrwt>
<rscale>  0 0.93099879E+02</rscale>
<asrwt>0</asrwt>
<pdfrwt beam="1">  1        2 0.79465573E-01 0.93099879E+02</pdfrwt>
<pdfrwt beam="2">  1       -2 0.64540527E-03 0.93099879E+02</pdfrwt>
<totfact> 0.20604846E+05</totfact>
</mgrwt>
</event>
<event>
 7    1  0.1028619E-012  0.9375160E+02  0.7546771E-02  0.1294013E+00
          3   -1    0    0  501    0  0.00000000000E+00  0.00000000000E+00  0.47600391539E+03  0.47600391539E+03  0.00000000000E+00 0. -1.
         -3   -1    0    0    0  501 -0.00000000000E+00 -0.00000000000E+00 -0.46162240360E+01  0.46162240360E+01  0.00000000000E+00 0.  1.
         23    2    1    2    0    0 -0.17763568394E-14  0.00000000000E+00  0.47138769135E+03  0.48062013942E+03  0.93751601915E+02 0.  0.
          5    1    3    3  502    0  0.22424360501E+02  0.10338932685E+02  0.14965848349E+03  0.15175472696E+03  0.47000000000E+01 0. -1.
         -5    1    3    3    0  503 -0.20076500290E+02 -0.10908033430E+02  0.15150782385E+03  0.15329305838E+03  0.47000000000E+01 0. -1.
          5    1    3    3  503    0  0.10898299188E+02  0.17363223463E+02  0.88875784073E+02  0.91330440976E+02  0.47000000000E+01 0.  1.
         -5    1    3    3    0  502 -0.13246159400E+02 -0.16794122719E+02  0.81345599929E+02  0.84241913111E+02  0.47000000000E+01 0.  1.
<mgrwt>
<rscale>  0 0.93751602E+02</rscale>
<asrwt>0</asrwt>
<pdfrwt beam="1">  1        3 0.73231333E-01 0.93751602E+02</pdfrwt>
<pdfrwt beam="2">  1       -3 0.71018869E-03 0.93751602E+02</pdfrwt>
<totfact> 0.17069866E+04</totfact>
</mgrwt>
</event>
<event>
 7    1  0.1028619E-012  0.9424098E+02  0.7546771E-02  0.1292895E+00
          3   -1    0    0  501    0  0.00000000000E+00  0.00000000000E+00  0.10134823385E+02  0.10134823385E+02  0.00000000000E+00 0. -1.
         -3   -1    0    0    0  501 -0.00000000000E+00 -0.00000000000E+00 -0.21908035623E+03  0.21908035623E+03  0.00000000000E+00 0.  1.
         23    2    1    2    0    0  0.17763568394E-14  0.00000000000E+00 -0.20894553285E+03  0.22921517962E+03  0.94240982964E+02 0.  0.
          5    1    3    3  502    0  0.11219482920E+02 -0.17400090246E+02 -0.46054976200E+02  0.50712826488E+02  0.47000000000E+01 0. -1.
         -5    1    3    3    0  502 -0.21029650352E+02  0.31404758779E+00 -0.62249681716E+02  0.65874560291E+02  0.47000000000E+01 0.  1.
          5    1    3    3  503    0  0.25395298749E+02  0.25948960104E+01 -0.35781824773E+02  0.44205018583E+02  0.47000000000E+01 0. -1.
         -5    1    3    3    0  503 -0.15585131316E+02  0.14491146648E+02 -0.64859050159E+02  0.68422774255E+02  0.47000000000E+01 0.  1.
<mgrwt>
<rscale>  0 0.94240983E+02</rscale>
<asrwt>0</asrwt>
<pdfrwt beam="1">  1        3 0.15592035E-02 0.94240983E+02</pdfrwt>
<pdfrwt beam="2">  1       -3 0.33704671E-01 0.94240983E+02</pdfrwt>
<totfact> 0.24740978E+04</totfact>
</mgrwt>
</event>
<event>
 7    1  0.1028619E-012  0.9072693E+02  0.7546771E-02  0.1301101E+00
         -2   -1    0    0    0  501 -0.00000000000E+00  0.00000000000E+00  0.34638216560E+01  0.34638216560E+01  0.00000000000E+00 0.  1.
          2   -1    0    0  501    0  0.00000000000E+00 -0.00000000000E+00 -0.59409638492E+03  0.59409638492E+03  0.00000000000E+00 0. -1.
         23    2    1    2    0    0 -0.17763568394E-14  0.00000000000E+00 -0.59063256326E+03  0.59756020657E+03  0.90726929273E+02 0.  0.
          5    1    3    3  502    0  0.72879749937E+01  0.20403106965E+02 -0.19598136326E+03  0.19723130102E+03  0.47000000000E+01 0. -1.
         -5    1    3    3    0  503 -0.16623008115E+02 -0.12547905484E+02 -0.10120272118E+03  0.10343043606E+03  0.47000000000E+01 0. -1.
          5    1    3    3  503    0  0.21059751803E+02  0.95722662690E+01 -0.15313832384E+03  0.15494701564E+03  0.47000000000E+01 0.  1.
         -5    1    3    3    0  502 -0.11724718681E+02 -0.17427467749E+02 -0.14031015498E+03  0.14195145385E+03  0.47000000000E+01 0.  1.
<mgrwt>
<rscale>  0 0.90726929E+02</rscale>
<asrwt>0</asrwt>
<pdfrwt beam="1">  1        2 0.91399423E-01 0.90726929E+02</pdfrwt>
<pdfrwt beam="2">  1       -2 0.53289576E-03 0.90726929E+02</pdfrwt>
<totfact> 0.23019630E+05</totfact>
</mgrwt>
</event>
<event>
 7    1  0.1028619E-012  0.1019687E+03  0.7546771E-02  0.1276210E+00
          2   -1    0    0  501    0  0.00000000000E+00  0.00000000000E+00  0.10036762637E+03  0.10036762637E+03  0.00000000000E+00 0. -1.
         -2   -1    0    0    0  501 -0.00000000000E+00 -0.00000000000E+00 -0.25898804748E+02  0.25898804748E+02  0.00000000000E+00 0.  1.
         23    2    1    2    0    0  0.17763568394E-14  0.00000000000E+00  0.74468821624E+02  0.12626643112E+03  0.10196865319E+03 0.  0.
          5    1    3    3  502    0  0.10804619777E+02  0.27042957450E+02  0.30975559195E+02  0.42774251876E+02  0.47000000000E+01 0.  1.
         -5    1    3    3    0  503 -0.23379015437E+02 -0.88998441130E+01  0.50875426859E+01  0.25956861879E+02  0.47000000000E+01 0.  1.
          5    1    3    3  503    0  0.21421101573E+02 -0.37691224971E-01  0.22651379336E+02  0.31528399881E+02  0.47000000000E+01 0. -1.
         -5    1    3    3    0  502 -0.88467059131E+01 -0.18105422112E+02  0.15754340407E+02  0.26006917484E+02  0.47000000000E+01 0. -1.
<mgrwt>
<rscale>  0 0.10196865E+03</rscale>
<asrwt>0</asrwt>
<pdfrwt beam="1">  1        2 0.15441173E-01 0.10196865E+03</pdfrwt>
<pdfrwt beam="2">  1       -2 0.39844316E-02 0.10196865E+03</pdfrwt>
<totfact> 0.90014338E+04</totfact>
</mgrwt>
</event>
<event>
 7    1  0.1028619E-012  0.9431383E+02  0.7546771E-02  0.1292729E+00
          3   -1    0    0  501    0  0.00000000000E+00  0.00000000000E+00  0.13278727179E+02  0.13278727179E+02  0.00000000000E+00 0. -1.
         -3   -1    0    0    0  501 -0.00000000000E+00 -0.00000000000E+00 -0.16746894309E+03  0.16746894309E+03  0.00000000000E+00 0.  1.
         23    2    1    2    0    0  0.35527136788E-14  0.35527136788E-14 -0.15419021591E+03  0.18074767027E+03  0.94313825207E+02 0.  0.
          5    1    3    3  502    0  0.36535811846E+01  0.19752416095E+02 -0.26467101252E+02  0.33557473769E+02  0.47000000000E+01 0. -1.
         -5    1    3    3    0  503 -0.19145572777E+02 -0.21154826037E+02 -0.46093794699E+02  0.54413302890E+02  0.47000000000E+01 0.  1.
          5    1    3    3  503    0  0.25532461129E+01  0.19934998025E+02 -0.44534502231E+02  0.49084978364E+02  0.47000000000E+01 0. -1.
         -5    1    3    3    0  502  0.12938745479E+02 -0.18532588083E+02 -0.37094817732E+02  0.43691915250E+02  0.47000000000E+01 0.  1.
<mgrwt>
<rscale>  0 0.94313825E+02</rscale>
<asrwt>0</asrwt>
<pdfrwt beam="1">  1        3 0.20428811E-02 0.94313825E+02</pdfrwt>
<pdfrwt beam="2">  1       -3 0.25764453E-01 0.94313825E+02</pdfrwt>
<totfact> 0.26937973E+04</totfact>
</mgrwt>
</event>
<event>
 7    1  0.1028619E-012  0.1007663E+03  0.7546771E-02  0.1278693E+00
         -2   -1    0    0    0  501 -0.00000000000E+00  0.00000000000E+00  0.47206561711E+01  0.47206561711E+01  0.00000000000E+00 0.  1.
          2   -1    0    0  501    0  0.00000000000E+00 -0.00000000000E+00 -0.53773519311E+03  0.53773519311E+03  0.00000000000E+00 0. -1.
         23    2    1    2    0    0  0.17763568394E-14 -0.17763568394E-14 -0.53301453694E+03  0.54245584928E+03  0.10076632290E+03 0.  0.
          5    1    3    3  502    0  0.24135696386E+02  0.13459927639E+02 -0.19282102876E+03  0.19484799363E+03  0.47000000000E+01 0. -1.
         -5    1    3    3    0  502 -0.22475839370E+02 -0.86102921931E+01 -0.11354441350E+03  0.11616249103E+03  0.47000000000E+01 0. -1.
          5    1    3    3  503    0  0.12111800853E+02 -0.21205999151E+02 -0.12848324130E+03  0.13086796176E+03  0.47000000000E+01 0.  1.
         -5    1    3    3    0  503 -0.13771657868E+02  0.16356363706E+02 -0.98165853387E+02  0.10057740286E+03  0.47000000000E+01 0.  1.
<mgrwt>
<rscale>  0 0.10076632E+03</rscale>
<asrwt>0</asrwt>
<pdfrwt beam="1">  1        2 0.82728443E-01 0.10076632E+03</pdfrwt>
<pdfrwt beam="2">  1       -2 0.72625522E-03 0.10076632E+03</pdfrwt>
<totfact> 0.16904874E+05</totfact>
</mgrwt>
</event>
<event>
 7    1  0.1028619E-012  0.9475008E+02  0.7546771E-02  0.1291740E+00
         -2   -1    0    0    0  501 -0.00000000000E+00  0.00000000000E+00  0.85939766068E+01  0.85939766068E+01  0.00000000000E+00 0.  1.
          2   -1    0    0  501    0  0.00000000000E+00 -0.00000000000E+00 -0.26115900306E+03  0.26115900306E+03  0.00000000000E+00 0. -1.
         23    2    1    2    0    0  0.17763568394E-14  0.00000000000E+00 -0.25256502646E+03  0.26975297967E+03  0.94750078902E+02 0.  0.
          5    1    3    3  502    0 -0.15331161564E+02  0.22185896854E+02 -0.63915784228E+02  0.69531115392E+02  0.47000000000E+01 0.  1.
         -5    1    3    3    0  502  0.68115975638E+01 -0.20561787386E+02 -0.59084719734E+02  0.63105301425E+02  0.47000000000E+01 0. -1.
          5    1    3    3  503    0  0.11655120731E+02  0.19389358497E+02 -0.65149024697E+02  0.69125064059E+02  0.47000000000E+01 0. -1.
         -5    1    3    3    0  503 -0.31355567309E+01 -0.21013467964E+02 -0.64415497795E+02  0.67991498793E+02  0.47000000000E+01 0.  1.
<mgrwt>
<rscale>  0 0.94750079E+02</rscale>
<asrwt>0</asrwt>
<pdfrwt beam="1">  1        2 0.40178304E-01 0.94750079E+02</pdfrwt>
<pdfrwt beam="2">  1       -2 0.13221504E-02 0.94750079E+02</pdfrwt>
<totfact> 0.15388510E+05</totfact>
</mgrwt>
</event>
<event>
 7    1  0.1028619E-012  0.1031199E+03  0.7546771E-02  0.1273869E+00
          1   -1    0    0  501    0  0.00000000000E+00  0.00000000000E+00  0.31271671266E+03  0.31271671266E+03  0.00000000000E+00 0. -1.
         -1   -1    0    0    0  501 -0.00000000000E+00 -0.00000000000E+00 -0.85010683342E+01  0.85010683342E+01  0.00000000000E+00 0.  1.
         23    2    1    2    0    0  0.17763568394E-14 -0.26645352591E-14  0.30421564432E+03  0.32121778099E+03  0.10311985538E+03 0.  0.
          5    1    3    3  502    0  0.25842830745E+02 -0.50689566157E+00  0.55938914349E+02  0.61800978817E+02  0.47000000000E+01 0.  1.
         -5    1    3    3    0  503  0.10560039134E+02 -0.18071801679E+02  0.53159722490E+02  0.57324955627E+02  0.47000000000E+01 0. -1.
          5    1    3    3  503    0 -0.15705698544E+02  0.19926147182E+02  0.60025274909E+02  0.65336390596E+02  0.47000000000E+01 0. -1.
         -5    1    3    3    0  502 -0.20697171335E+02 -0.13474498406E+01  0.13509173257E+03  0.13675545595E+03  0.47000000000E+01 0.  1.
<mgrwt>
<rscale>  0 0.10311986E+03</rscale>
<asrwt>0</asrwt>
<pdfrwt beam="1">  1        1 0.48110255E-01 0.10311986E+03</pdfrwt>
<pdfrwt beam="2">  1       -1 0.13078569E-02 0.10311986E+03</pdfrwt>
<totfact> 0.92837295E+04</totfact>
</mgrwt>
</event>
<event>
 7    1  0.1028619E-012  0.9339511E+02  0.7546771E-02  0.1294832E+00
         -2   -1    0    0    0  501 -0.00000000000E+00  0.00000000000E+00  0.57449474994E+01  0.57449474994E+01  0.00000000000E+00 0.  1.
          2   -1    0    0  501    0  0.00000000000E+00 -0.00000000000E+00 -0.37957903049E+03  0.37957903049E+03  0.00000000000E+00 0. -1.
         23    2    1    2    0    0  0.00000000000E+00 -0.35527136788E-14 -0.37383408299E+03  0.38532397799E+03  0.93395109123E+02 0.  0.
          5    1    3    3  502    0  0.14829314358E+01 -0.21079655095E+02 -0.80714040964E+02  0.83566723960E+02  0.47000000000E+01 0.  1.
         -5    1    3    3    0  502 -0.27026655652E+01  0.23778875743E+02 -0.12919817681E+03  0.13148002975E+03  0.47000000000E+01 0. -1.
          5    1    3    3  503    0  0.10341717965E+02 -0.21223433307E+02 -0.10314268016E+03  0.10591453027E+03  0.47000000000E+01 0. -1.
         -5    1    3    3    0  503 -0.91219838360E+01  0.18524212659E+02 -0.60779185064E+02  0.64362694014E+02  0.47000000000E+01 0.  1.
<mgrwt>
<rscale>  0 0.93395109E+02</rscale>
<asrwt>0</asrwt>
<pdfrwt beam="1">  1        2 0.58396808E-01 0.93395109E+02</pdfrwt>
<pdfrwt beam="2">  1       -2 0.88383755E-03 0.93395109E+02</pdfrwt>
<totfact> 0.18375246E+05</totfact>
</mgrwt>
</event>
<event>
 7    1  0.1028619E-012  0.1033801E+03  0.7546771E-02  0.1273344E+00
         -2   -1    0    0    0  501 -0.00000000000E+00  0.00000000000E+00  0.75915501056E+01  0.75915501056E+01  0.00000000000E+00 0.  1.
          2   -1    0    0  501    0  0.00000000000E+00 -0.00000000000E+00 -0.35195230537E+03  0.35195230537E+03  0.00000000000E+00 0. -1.
         23    2    1    2    0    0  0.00000000000E+00 -0.17763568394E-14 -0.34436075526E+03  0.35954385547E+03  0.10338014434E+03 0.  0.
          5    1    3    3  502    0 -0.24363560381E+02 -0.12702660768E+02 -0.10950481163E+03  0.11299705498E+03  0.47000000000E+01 0. -1.
         -5    1    3    3    0  503  0.81271613746E+01 -0.21872184708E+02 -0.74479983025E+02  0.78190799250E+02  0.47000000000E+01 0.  1.
          5    1    3    3  503    0 -0.83397111824E+01  0.18344506924E+02 -0.52423540430E+02  0.56359465116E+02  0.47000000000E+01 0. -1.
         -5    1    3    3    0  502  0.24576110189E+02  0.16230338552E+02 -0.10795242018E+03  0.11199653613E+03  0.47000000000E+01 0.  1.
<mgrwt>
<rscale>  0 0.10338014E+03</rscale>
<asrwt>0</asrwt>
<pdfrwt beam="1">  1        2 0.54146504E-01 0.10338014E+03</pdfrwt>
<pdfrwt beam="2">  1       -2 0.11679309E-02 0.10338014E+03</pdfrwt>
<totfact> 0.13611728E+05</totfact>
</mgrwt>
</event>
<event>
 7    1  0.1028619E-012  0.9295391E+02  0.7546771E-02  0.1295852E+00
         -1   -1    0    0    0  501 -0.00000000000E+00  0.00000000000E+00  0.77618617389E+01  0.77618617389E+01  0.00000000000E+00 0.  1.
          1   -1    0    0  501    0  0.00000000000E+00 -0.00000000000E+00 -0.27829757878E+03  0.27829757878E+03  0.00000000000E+00 0. -1.
         23    2    1    2    0    0  0.00000000000E+00 -0.17763568394E-14 -0.27053571704E+03  0.28605944052E+03  0.92953909628E+02 0.  0.
          5    1    3    3  502    0  0.19804924844E+02 -0.30172071489E+01 -0.74128273982E+02  0.76931330358E+02  0.47000000000E+01 0.  1.
         -5    1    3    3    0  503 -0.20528151634E+02  0.16138871145E+01 -0.75200177372E+02  0.78109962987E+02  0.47000000000E+01 0. -1.
          5    1    3    3  503    0  0.20469791955E+02  0.93602813585E+01 -0.90388192976E+02  0.93267050341E+02  0.47000000000E+01 0. -1.
         -5    1    3    3    0  502 -0.19746565165E+02 -0.79569613241E+01 -0.30819072712E+02  0.37751096834E+02  0.47000000000E+01 0.  1.
<mgrwt>
<rscale>  0 0.92953910E+02</rscale>
<asrwt>0</asrwt>
<pdfrwt beam="1">  1        1 0.42815014E-01 0.92953910E+02</pdfrwt>
<pdfrwt beam="2">  1       -1 0.11941325E-02 0.92953910E+02</pdfrwt>
<totfact> 0.11993622E+05</totfact>
</mgrwt>
</event>
<event>
 7    1  0.1028619E-012  0.9332249E+02  0.7546771E-02  0.1295000E+00
         -2   -1    0    0    0  501 -0.00000000000E+00  0.00000000000E+00  0.44892607681E+02  0.44892607681E+02  0.00000000000E+00 0.  1.
          2   -1    0    0  501    0  0.00000000000E+00 -0.00000000000E+00 -0.48499558050E+02  0.48499558050E+02  0.00000000000E+00 0. -1.
         23    2    1    2    0    0  0.35527136788E-14 -0.35527136788E-14 -0.36069503684E+01  0.93392165731E+02  0.93322486727E+02 0.  0.
          5    1    3    3  502    0 -0.20638845947E+02 -0.68944344580E+01  0.59243346244E+01  0.23036556367E+02  0.47000000000E+01 0. -1.
         -5    1    3    3    0  502  0.14356648859E+02 -0.18422476869E+02 -0.43609111022E+01  0.24220003429E+02  0.47000000000E+01 0.  1.
          5    1    3    3  503    0 -0.13542532352E+02  0.19342542313E+02  0.77145751065E+00  0.24087741121E+02  0.47000000000E+01 0.  1.
         -5    1    3    3    0  503  0.19824729440E+02  0.59743690137E+01 -0.59418314012E+01  0.22047864814E+02  0.47000000000E+01 0. -1.
<mgrwt>
<rscale>  0 0.93322487E+02</rscale>
<asrwt>0</asrwt>
<pdfrwt beam="1">  1        2 0.74614705E-02 0.93322487E+02</pdfrwt>
<pdfrwt beam="2">  1       -2 0.69065550E-02 0.93322487E+02</pdfrwt>
<totfact> 0.93806804E+04</totfact>
</mgrwt>
</event>
<event>
 7    1  0.1028619E-012  0.9065610E+02  0.7546771E-02  0.1301271E+00
          3   -1    0    0  501    0  0.00000000000E+00  0.00000000000E+00  0.38156580116E+03  0.38156580116E+03  0.00000000000E+00 0. -1.
         -3   -1    0    0    0  501 -0.00000000000E+00 -0.00000000000E+00 -0.53847384014E+01  0.53847384014E+01  0.00000000000E+00 0.  1.
         23    2    1    2    0    0 -0.17763568394E-14  0.13322676296E-14  0.37618106276E+03  0.38695053956E+03  0.90656097913E+02 0.  0.
          5    1    3    3  502    0  0.53382200748E+01  0.20939992746E+02  0.83402417423E+02  0.86284605358E+02  0.47000000000E+01 0.  1.
         -5    1    3    3    0  502 -0.63791928121E+01 -0.21556937494E+02  0.80782979940E+02  0.83984376541E+02  0.47000000000E+01 0.  1.
          5    1    3    3  503    0 -0.21115725471E+02  0.24309618915E+01  0.90677765466E+02  0.93254118342E+02  0.47000000000E+01 0. -1.
         -5    1    3    3    0  503  0.22156698209E+02 -0.18140171437E+01  0.12131789993E+03  0.12342743932E+03  0.47000000000E+01 0. -1.
<mgrwt>
<rscale>  0 0.90656098E+02</rscale>
<asrwt>0</asrwt>
<pdfrwt beam="1">  1        3 0.58702410E-01 0.90656098E+02</pdfrwt>
<pdfrwt beam="2">  1       -3 0.82842159E-03 0.90656098E+02</pdfrwt>
<totfact> 0.21338966E+04</totfact>
</mgrwt>
</event>
<event>
 7    1  0.1028619E-012  0.9653716E+02  0.7546771E-02  0.1287751E+00
          1   -1    0    0  501    0  0.00000000000E+00  0.00000000000E+00  0.43289279531E+01  0.43289279531E+01  0.00000000000E+00 0. -1.
         -1   -1    0    0    0  501 -0.00000000000E+00 -0.00000000000E+00 -0.53820618908E+03  0.53820618908E+03  0.00000000000E+00 0.  1.
         23    2    1    2    0    0  0.00000000000E+00  0.00000000000E+00 -0.53387726113E+03  0.54253511703E+03  0.96537160026E+02 0.  0.
          5    1    3    3  502    0  0.20126175282E+02 -0.35117690768E+01 -0.10629934114E+03  0.10834682912E+03  0.47000000000E+01 0. -1.
         -5    1    3    3    0  503  0.14184507941E+02  0.17093284925E+02 -0.16047995460E+03  0.16207802592E+03  0.47000000000E+01 0. -1.
          5    1    3    3  503    0 -0.13276273431E+02 -0.21134613445E+02 -0.19033450546E+03  0.19202147091E+03  0.47000000000E+01 0.  1.
         -5    1    3    3    0  502 -0.21034409792E+02  0.75530975968E+01 -0.76763459926E+02  0.80088791091E+02  0.47000000000E+01 0.  1.
<mgrwt>
<rscale>  0 0.96537160E+02</rscale>
<asrwt>0</asrwt>
<pdfrwt beam="1">  1        1 0.66598943E-03 0.96537160E+02</pdfrwt>
<pdfrwt beam="2">  1       -1 0.82800888E-01 0.96537160E+02</pdfrwt>
<totfact> 0.38620645E+04</totfact>
</mgrwt>
</event>
<event>
 7    1  0.1028619E-012  0.1017983E+03  0.7546771E-02  0.1276559E+00
         -1   -1    0    0    0  501 -0.00000000000E+00  0.00000000000E+00  0.21631790618E+03  0.21631790618E+03  0.00000000000E+00 0.  1.
          1   -1    0    0  501    0  0.00000000000E+00 -0.00000000000E+00 -0.11976454592E+02  0.11976454592E+02  0.00000000000E+00 0. -1.
         23    2    1    2    0    0  0.00000000000E+00  0.00000000000E+00  0.20434145159E+03  0.22829436077E+03  0.10179826287E+03 0.  0.
          5    1    3    3  502    0  0.10427300837E+02  0.23833337170E+02  0.34673480845E+02  0.43601569207E+02  0.47000000000E+01 0. -1.
         -5    1    3    3    0  502  0.27673730051E+01 -0.20664700039E+02  0.40377207274E+02  0.45684757286E+02  0.47000000000E+01 0.  1.
          5    1    3    3  503    0 -0.10088555582E+02  0.20797314625E+02  0.40510523490E+02  0.46877497403E+02  0.47000000000E+01 0.  1.
         -5    1    3    3    0  503 -0.31061182602E+01 -0.23965951756E+02  0.88780239981E+02  0.92130536877E+02  0.47000000000E+01 0. -1.
<mgrwt>
<rscale>  0 0.10179826E+03</rscale>
<asrwt>0</asrwt>
<pdfrwt beam="1">  1        1 0.18425316E-02 0.10179826E+03</pdfrwt>
<pdfrwt beam="2">  1       -1 0.33279675E-01 0.10179826E+03</pdfrwt>
<totfact> 0.50843014E+04</totfact>
</mgrwt>
</event>
<event>
 7    1  0.1028619E-012  0.9943646E+02  0.7546771E-02  0.1281485E+00
         -1   -1    0    0    0  501 -0.00000000000E+00  0.00000000000E+00  0.35183423215E+01  0.35183423215E+01  0.00000000000E+00 0.  1.
          1   -1    0    0  501    0  0.00000000000E+00 -0.00000000000E+00 -0.70257581374E+03  0.70257581374E+03  0.00000000000E+00 0. -1.
         23    2    1    2    0    0 -0.17763568394E-14  0.00000000000E+00 -0.69905747142E+03  0.70609415606E+03  0.99436456484E+02 0.  0.
          5    1    3    3  502    0 -0.18047377053E+02  0.90013301826E+01 -0.18280193503E+03  0.18397110973E+03  0.47000000000E+01 0. -1.
         -5    1    3    3    0  502  0.53457396320E+01 -0.21234458159E+02 -0.19204297333E+03  0.19334444071E+03  0.47000000000E+01 0.  1.
          5    1    3    3  503    0 -0.16393077328E+02  0.16498995245E+02 -0.11192880169E+03  0.11441632959E+03  0.47000000000E+01 0. -1.
         -5    1    3    3    0  503  0.29094714749E+02 -0.42658672691E+01 -0.21228376136E+03  0.21436227603E+03  0.47000000000E+01 0.  1.
<mgrwt>
<rscale>  0 0.99436456E+02</rscale>
<asrwt>0</asrwt>
<pdfrwt beam="1">  1        1 0.10808867E+00 0.99436456E+02</pdfrwt>
<pdfrwt beam="2">  1       -1 0.54128302E-03 0.99436456E+02</pdfrwt>
<totfact> 0.11292017E+05</totfact>
</mgrwt>
</event>
<event>
 7    1  0.1028619E-012  0.9271315E+02  0.7546771E-02  0.1296411E+00
         -1   -1    0    0    0  501 -0.00000000000E+00  0.00000000000E+00  0.23095430782E+02  0.23095430782E+02  0.00000000000E+00 0.  1.
          1   -1    0    0  501    0  0.00000000000E+00 -0.00000000000E+00 -0.93045761108E+02  0.93045761108E+02  0.00000000000E+00 0. -1.
         23    2    1    2    0    0  0.88817841970E-15  0.00000000000E+00 -0.69950330326E+02  0.11614119189E+03  0.92713147616E+02 0.  0.
          5    1    3    3  502    0  0.15489430408E+02  0.14510896097E+02 -0.31454518262E+02  0.38235654551E+02  0.47000000000E+01 0. -1.
         -5    1    3    3    0  502 -0.78022724678E+01 -0.21369511247E+02 -0.13502981331E+02  0.26869163951E+02  0.47000000000E+01 0.  1.
          5    1    3    3  503    0  0.11364059934E+02  0.17795566159E+02 -0.15686749514E+02  0.26720556570E+02  0.47000000000E+01 0.  1.
         -5    1    3    3    0  503 -0.19051217874E+02 -0.10936951009E+02 -0.93060812187E+01  0.24315816818E+02  0.47000000000E+01 0. -1.
<mgrwt>
<rscale>  0 0.92713148E+02</rscale>
<asrwt>0</asrwt>
<pdfrwt beam="1">  1        1 0.14314733E-01 0.92713148E+02</pdfrwt>
<pdfrwt beam="2">  1       -1 0.35531431E-02 0.92713148E+02</pdfrwt>
<totfact> 0.98603298E+04</totfact>
</mgrwt>
</event>
<event>
 7    1  0.1028619E-012  0.9617861E+02  0.7546771E-02  0.1288543E+00
         -2   -1    0    0    0  501 -0.00000000000E+00  0.00000000000E+00  0.13821333544E+03  0.13821333544E+03  0.00000000000E+00 0.  1.
          2   -1    0    0  501    0  0.00000000000E+00 -0.00000000000E+00 -0.16731969284E+02  0.16731969284E+02  0.00000000000E+00 0. -1.
         23    2    1    2    0    0 -0.35527136788E-14  0.00000000000E+00  0.12148136616E+03  0.15494530473E+03  0.96178610582E+02 0.  0.
          5    1    3    3  502    0  0.26237725662E+01 -0.19985798093E+02  0.50239897177E+02  0.54336484762E+02  0.47000000000E+01 0.  1.
         -5    1    3    3    0  503 -0.11079987891E+02  0.17945045474E+02  0.97470669604E+01  0.23704136834E+02  0.47000000000E+01 0.  1.
          5    1    3    3  503    0  0.11689325343E+01 -0.20921774100E+02  0.31916772443E+02  0.38468914697E+02  0.47000000000E+01 0. -1.
         -5    1    3    3    0  502  0.72872827906E+01  0.22962526719E+02  0.29577629580E+02  0.38435768437E+02  0.47000000000E+01 0. -1.
<mgrwt>
<rscale>  0 0.96178611E+02</rscale>
<asrwt>0</asrwt>
<pdfrwt beam="1">  1        2 0.25741492E-02 0.96178611E+02</pdfrwt>
<pdfrwt beam="2">  1       -2 0.21263589E-01 0.96178611E+02</pdfrwt>
<totfact> 0.62844565E+04</totfact>
</mgrwt>
</event>
<event>
 7    1  0.1028619E-012  0.9964967E+02  0.7546771E-02  0.1281034E+00
          2   -1    0    0  501    0  0.00000000000E+00  0.00000000000E+00  0.65733470736E+03  0.65733470736E+03  0.00000000000E+00 0.  1.
         -2   -1    0    0    0  501 -0.00000000000E+00 -0.00000000000E+00 -0.37766363266E+01  0.37766363266E+01  0.00000000000E+00 0. -1.
         23    2    1    2    0    0 -0.17763568394E-14  0.17763568394E-14  0.65355807103E+03  0.66111134368E+03  0.99649669032E+02 0.  0.
          5    1    3    3  502    0 -0.12003655832E+02 -0.17792499763E+02  0.11275357538E+03  0.11487436425E+03  0.47000000000E+01 0. -1.
         -5    1    3    3    0  502  0.18049524258E+02  0.12051862532E+02  0.16834405451E+03  0.16980236572E+03  0.47000000000E+01 0. -1.
          5    1    3    3  503    0  0.16375029835E+02 -0.13210613604E+02  0.96581719306E+02  0.98958478253E+02  0.47000000000E+01 0.  1.
         -5    1    3    3    0  503 -0.22420898260E+02  0.18951250835E+02  0.27587872184E+03  0.27747613546E+03  0.47000000000E+01 0.  1.
<mgrwt>
<rscale>  0 0.99649669E+02</rscale>
<asrwt>0</asrwt>
<pdfrwt beam="1">  1        2 0.10112833E+00 0.99649669E+02</pdfrwt>
<pdfrwt beam="2">  1       -2 0.58102149E-03 0.99649669E+02</pdfrwt>
<totfact> 0.18450766E+05</totfact>
</mgrwt>
</event>
<event>
 7    1  0.1028619E-012  0.9255754E+02  0.7546771E-02  0.1296774E+00
         -4   -1    0    0    0  501 -0.00000000000E+00  0.00000000000E+00  0.30388368692E+02  0.30388368692E+02  0.00000000000E+00 0.  1.
          4   -1    0    0  501    0  0.00000000000E+00 -0.00000000000E+00 -0.70478428756E+02  0.70478428756E+02  0.00000000000E+00 0. -1.
         23    2    1    2    0    0 -0.35527136788E-14  0.00000000000E+00 -0.40090060064E+02  0.10086679745E+03  0.92557538383E+02 0.  0.
          5    1    3    3  502    0  0.19828634839E+02 -0.29019644449E+01 -0.17137870187E+02  0.26784188466E+02  0.47000000000E+01 0. -1.
         -5    1    3    3    0  503 -0.22101223501E+02  0.79299390786E+01 -0.12312789830E+01  0.23978199723E+02  0.47000000000E+01 0.  1.
          5    1    3    3  503    0  0.20242085905E+02  0.56825463600E+01 -0.18552141716E+02  0.28430711162E+02  0.47000000000E+01 0.  1.
         -5    1    3    3    0  502 -0.17969497243E+02 -0.10710520994E+02 -0.31687691773E+01  0.21673698097E+02  0.47000000000E+01 0. -1.
<mgrwt>
<rscale>  0 0.92557538E+02</rscale>
<asrwt>0</asrwt>
<pdfrwt beam="1">  1        4 0.10842835E-01 0.92557538E+02</pdfrwt>
<pdfrwt beam="2">  1       -4 0.46751337E-02 0.92557538E+02</pdfrwt>
<totfact> 0.25347699E+04</totfact>
</mgrwt>
</event>
<event>
 7    1  0.1028619E-012  0.1019271E+03  0.7546771E-02  0.1276295E+00
         -1   -1    0    0    0  501 -0.00000000000E+00  0.00000000000E+00  0.26610105598E+03  0.26610105598E+03  0.00000000000E+00 0.  1.
          1   -1    0    0  501    0  0.00000000000E+00 -0.00000000000E+00 -0.97605210815E+01  0.97605210815E+01  0.00000000000E+00 0. -1.
         23    2    1    2    0    0  0.00000000000E+00  0.00000000000E+00  0.25634053490E+03  0.27586157706E+03  0.10192713018E+03 0.  0.
          5    1    3    3  502    0  0.19333723732E+02  0.17229034018E+02  0.90676913557E+02  0.94419410815E+02  0.47000000000E+01 0. -1.
         -5    1    3    3    0  502 -0.14735506967E+02 -0.14308416729E+02  0.58201421860E+02  0.61897992386E+02  0.47000000000E+01 0. -1.
          5    1    3    3  503    0  0.95702327200E+01 -0.18103945398E+02  0.88733362843E+02  0.91186851436E+02  0.47000000000E+01 0.  1.
         -5    1    3    3    0  503 -0.14168449486E+02  0.15183328109E+02  0.18728836641E+02  0.28357322427E+02  0.47000000000E+01 0.  1.
<mgrwt>
<rscale>  0 0.10192713E+03</rscale>
<asrwt>0</asrwt>
<pdfrwt beam="1">  1        1 0.15016188E-02 0.10192713E+03</pdfrwt>
<pdfrwt beam="2">  1       -1 0.40938619E-01 0.10192713E+03</pdfrwt>
<totfact> 0.47308253E+04</totfact>
</mgrwt>
</event>
<event>
 7    1  0.1028619E-012  0.9848636E+02  0.7546771E-02  0.1283512E+00
          2   -1    0    0  501    0  0.00000000000E+00  0.00000000000E+00  0.14008576760E+03  0.14008576760E+03  0.00000000000E+00 0. -1.
         -2   -1    0    0    0  501 -0.00000000000E+00 -0.00000000000E+00 -0.17310043182E+02  0.17310043182E+02  0.00000000000E+00 0.  1.
         23    2    1    2    0    0  0.00000000000E+00  0.00000000000E+00  0.12277572442E+03  0.15739581078E+03  0.98486358168E+02 0.  0.
          5    1    3    3  502    0  0.20903922565E+01 -0.27542315223E+02  0.18531245876E+02  0.33592349447E+02  0.47000000000E+01 0.  1.
         -5    1    3    3    0  502  0.17083528135E+01  0.22148424038E+02  0.35332118435E+02  0.41999044630E+02  0.47000000000E+01 0. -1.
          5    1    3    3  503    0 -0.17718953979E+02 -0.11169927831E+02  0.39906072272E+02  0.45313499336E+02  0.47000000000E+01 0.  1.
         -5    1    3    3    0  503  0.13920208909E+02  0.16563819016E+02  0.29006287835E+02  0.36490917369E+02  0.47000000000E+01 0. -1.
<mgrwt>
<rscale>  0 0.98486358E+02</rscale>
<asrwt>0</asrwt>
<pdfrwt beam="1">  1        2 0.21551656E-01 0.98486358E+02</pdfrwt>
<pdfrwt beam="2">  1       -2 0.26630837E-02 0.98486358E+02</pdfrwt>
<totfact> 0.11063546E+05</totfact>
</mgrwt>
</event>
<event>
 7    1  0.1028619E-012  0.9870626E+02  0.7546771E-02  0.1283040E+00
          2   -1    0    0  501    0  0.00000000000E+00  0.00000000000E+00  0.17165129339E+03  0.17165129339E+03  0.00000000000E+00 0. -1.
         -2   -1    0    0    0  501 -0.00000000000E+00 -0.00000000000E+00 -0.14189998107E+02  0.14189998107E+02  0.00000000000E+00 0.  1.
         23    2    1    2    0    0 -0.17763568394E-14  0.00000000000E+00  0.15746129528E+03  0.18584129149E+03  0.98706261771E+02 0.  0.
          5    1    3    3  502    0  0.21782990214E+02 -0.19511497357E+01  0.18391655699E+02  0.28959431060E+02  0.47000000000E+01 0. -1.
         -5    1    3    3    0  502 -0.15549905802E+02 -0.14865505393E+02  0.46974489606E+02  0.51879432290E+02  0.47000000000E+01 0.  1.
          5    1    3    3  503    0  0.17278001186E+02  0.19051735267E+02  0.52732925752E+02  0.58858724078E+02  0.47000000000E+01 0.  1.
         -5    1    3    3    0  503 -0.23511085597E+02 -0.22350801385E+01  0.39362224221E+02  0.46143704065E+02  0.47000000000E+01 0. -1.
<mgrwt>
<rscale>  0 0.98706262E+02</rscale>
<asrwt>0</asrwt>
<pdfrwt beam="1">  1        2 0.26407890E-01 0.98706262E+02</pdfrwt>
<pdfrwt beam="2">  1       -2 0.21830768E-02 0.98706262E+02</pdfrwt>
<totfact> 0.11805228E+05</totfact>
</mgrwt>
</event>
<event>
 7    1  0.1028619E-012  0.9281524E+02  0.7546771E-02  0.1296174E+00
         -4   -1    0    0    0  501 -0.00000000000E+00  0.00000000000E+00  0.19961555330E+02  0.19961555330E+02  0.00000000000E+00 0.  1.
          4   -1    0    0  501    0  0.00000000000E+00 -0.00000000000E+00 -0.10789074921E+03  0.10789074921E+03  0.00000000000E+00 0. -1.
         23    2    1    2    0    0  0.00000000000E+00  0.00000000000E+00 -0.87929193882E+02  0.12785230454E+03  0.92815239266E+02 0.  0.
          5    1    3    3  502    0  0.11089948015E+02  0.21206431897E+02 -0.18164466325E+02  0.30409497491E+02  0.47000000000E+01 0. -1.
         -5    1    3    3    0  503 -0.93965821830E+01  0.17968939755E+02 -0.29708688482E+02  0.36274987581E+02  0.47000000000E+01 0.  1.
          5    1    3    3  503    0  0.84521833793E+01 -0.21754585211E+02 -0.13077478094E+02  0.27162691599E+02  0.47000000000E+01 0. -1.
         -5    1    3    3    0  502 -0.10145549211E+02 -0.17420786440E+02 -0.26978560981E+02  0.34005127872E+02  0.47000000000E+01 0.  1.
<mgrwt>
<rscale>  0 0.92815239E+02</rscale>
<asrwt>0</asrwt>
<pdfrwt beam="1">  1        4 0.16598577E-01 0.92815239E+02</pdfrwt>
<pdfrwt beam="2">  1       -4 0.30710085E-02 0.92815239E+02</pdfrwt>
<totfact> 0.23666039E+04</totfact>
</mgrwt>
</event>
<event>
 7    1  0.1028619E-012  0.9412475E+02  0.7546771E-02  0.1293160E+00
          3   -1    0    0  501    0  0.00000000000E+00  0.00000000000E+00  0.20091558067E+02  0.20091558067E+02  0.00000000000E+00 0. -1.
         -3   -1    0    0    0  501 -0.00000000000E+00 -0.00000000000E+00 -0.11023869922E+03  0.11023869922E+03  0.00000000000E+00 0.  1.
         23    2    1    2    0    0  0.17763568394E-14  0.17763568394E-14 -0.90147141158E+02  0.13033025729E+03  0.94124751827E+02 0.  0.
          5    1    3    3  502    0 -0.38127965651E+01 -0.22398880656E+02 -0.22890501324E+02  0.32593133068E+02  0.47000000000E+01 0. -1.
         -5    1    3    3    0  503  0.26999303339E+02 -0.95784407190E+00 -0.24307118342E+02  0.36644315359E+02  0.47000000000E+01 0.  1.
          5    1    3    3  503    0 -0.20089568270E+02  0.30202080170E+01 -0.13413578989E+02  0.24793678853E+02  0.47000000000E+01 0. -1.
         -5    1    3    3    0  502 -0.30969385038E+01  0.20336516711E+02 -0.29535942503E+02  0.36299130011E+02  0.47000000000E+01 0.  1.
<mgrwt>
<rscale>  0 0.94124752E+02</rscale>
<asrwt>0</asrwt>
<pdfrwt beam="1">  1        3 0.30910090E-02 0.94124752E+02</pdfrwt>
<pdfrwt beam="2">  1       -3 0.16959800E-01 0.94124752E+02</pdfrwt>
<totfact> 0.29854278E+04</totfact>
</mgrwt>
</event>
<event>
 7    1  0.1028619E-012  0.8959556E+02  0.7546771E-02  0.1303834E+00
         -2   -1    0    0    0  501 -0.00000000000E+00  0.00000000000E+00  0.65982578070E+01  0.65982578070E+01  0.00000000000E+00 0.  1.
          2   -1    0    0  501    0  0.00000000000E+00 -0.00000000000E+00 -0.30414709290E+03  0.30414709290E+03  0.00000000000E+00 0. -1.
         23    2    1    2    0    0  0.00000000000E+00  0.00000000000E+00 -0.29754883510E+03  0.31074535071E+03  0.89595556369E+02 0.  0.
          5    1    3    3  502    0  0.27996310534E+01  0.22378735516E+02 -0.90336329901E+02  0.93227615207E+02  0.47000000000E+01 0. -1.
         -5    1    3    3    0  503 -0.22662553301E+01 -0.20282035649E+02 -0.50021120121E+02  0.54228215362E+02  0.47000000000E+01 0.  1.
          5    1    3    3  503    0  0.13916327358E+02 -0.16066794395E+02 -0.10355888118E+03  0.10582219956E+03  0.47000000000E+01 0.  1.
         -5    1    3    3    0  502 -0.14449703081E+02  0.13970094528E+02 -0.53632503900E+02  0.57467320582E+02  0.47000000000E+01 0. -1.
<mgrwt>
<rscale>  0 0.89595556E+02</rscale>
<asrwt>0</asrwt>
<pdfrwt beam="1">  1        2 0.46791851E-01 0.89595556E+02</pdfrwt>
<pdfrwt beam="2">  1       -2 0.10151168E-02 0.89595556E+02</pdfrwt>
<totfact> 0.18919454E+05</totfact>
</mgrwt>
</event>
<event>
 7    1  0.1028619E-012  0.9777536E+02  0.7546771E-02  0.1285045E+00
          2   -1    0    0  501    0  0.00000000000E+00  0.00000000000E+00  0.27254238740E+03  0.27254238740E+03  0.00000000000E+00 0. -1.
         -2   -1    0    0    0  501 -0.00000000000E+00 -0.00000000000E+00 -0.87692977656E+01  0.87692977656E+01  0.00000000000E+00 0.  1.
         23    2    1    2    0    0  0.00000000000E+00  0.00000000000E+00  0.26377308964E+03  0.28131168517E+03  0.97775361905E+02 0.  0.
          5    1    3    3  502    0  0.17369903247E+02  0.12400123857E+02  0.66691963429E+02  0.70181084321E+02  0.47000000000E+01 0. -1.
         -5    1    3    3    0  502 -0.29230454532E+02  0.30073352309E+01  0.96504341703E+02  0.10098832361E+03  0.47000000000E+01 0.  1.
          5    1    3    3  503    0  0.23528394882E+02  0.99004093719E+00  0.48644198010E+02  0.54248627142E+02  0.47000000000E+01 0. -1.
         -5    1    3    3    0  503 -0.11667843597E+02 -0.16397500025E+02  0.51932586495E+02  0.55893650098E+02  0.47000000000E+01 0.  1.
<mgrwt>
<rscale>  0 0.97775362E+02</rscale>
<asrwt>0</asrwt>
<pdfrwt beam="1">  1        2 0.41929592E-01 0.97775362E+02</pdfrwt>
<pdfrwt beam="2">  1       -2 0.13491229E-02 0.97775362E+02</pdfrwt>
<totfact> 0.14368827E+05</totfact>
</mgrwt>
</event>
<event>
 7    1  0.1028619E-012  0.9103647E+02  0.7546771E-02  0.1300361E+00
          2   -1    0    0  501    0  0.00000000000E+00  0.00000000000E+00  0.30981508175E+03  0.30981508175E+03  0.00000000000E+00 0. -1.
         -2   -1    0    0    0  501 -0.00000000000E+00 -0.00000000000E+00 -0.66875693307E+01  0.66875693307E+01  0.00000000000E+00 0.  1.
         23    2    1    2    0    0 -0.71054273576E-14  0.00000000000E+00  0.30312751242E+03  0.31650265108E+03  0.91036472666E+02 0.  0.
          5    1    3    3  502    0  0.20995911468E+02  0.77930415339E+01  0.71115610054E+02  0.74706624794E+02  0.47000000000E+01 0.  1.
         -5    1    3    3    0  503 -0.19311434447E+02 -0.53254420399E+01  0.48525982644E+02  0.52708185558E+02  0.47000000000E+01 0. -1.
          5    1    3    3  503    0 -0.16239909459E+02  0.14803910886E+02  0.83078734170E+02  0.86064258017E+02  0.47000000000E+01 0. -1.
         -5    1    3    3    0  502  0.14555432437E+02 -0.17271510380E+02  0.10040718555E+03  0.10302358271E+03  0.47000000000E+01 0.  1.
<mgrwt>
<rscale>  0 0.91036473E+02</rscale>
<asrwt>0</asrwt>
<pdfrwt beam="1">  1        2 0.47663847E-01 0.91036473E+02</pdfrwt>
<pdfrwt beam="2">  1       -2 0.10288571E-02 0.91036473E+02</pdfrwt>
<totfact> 0.18257360E+05</totfact>
</mgrwt>
</event>
<event>
 7    1  0.1028619E-012  0.9138139E+02  0.7546771E-02  0.1299541E+00
          3   -1    0    0  501    0  0.00000000000E+00  0.00000000000E+00  0.14086712809E+03  0.14086712809E+03  0.00000000000E+00 0. -1.
         -3   -1    0    0    0  501 -0.00000000000E+00 -0.00000000000E+00 -0.14819920829E+02  0.14819920829E+02  0.00000000000E+00 0.  1.
         23    2    1    2    0    0  0.35527136788E-14  0.00000000000E+00  0.12604720726E+03  0.15568704892E+03  0.91381391667E+02 0.  0.
          5    1    3    3  502    0  0.21708957978E+02 -0.11514551159E+01  0.30358562997E+02  0.37634253714E+02  0.47000000000E+01 0.  1.
         -5    1    3    3    0  502 -0.20515608179E+02 -0.52610876021E+01  0.27792600636E+02  0.35257451295E+02  0.47000000000E+01 0.  1.
          5    1    3    3  503    0  0.16980296725E+02 -0.11158030011E+02  0.38141856604E+02  0.43470948182E+02  0.47000000000E+01 0. -1.
         -5    1    3    3    0  503 -0.18173646524E+02  0.17570572729E+02  0.29754187023E+02  0.39324395728E+02  0.47000000000E+01 0. -1.
<mgrwt>
<rscale>  0 0.91381392E+02</rscale>
<asrwt>0</asrwt>
<pdfrwt beam="1">  1        3 0.21671865E-01 0.91381392E+02</pdfrwt>
<pdfrwt beam="2">  1       -3 0.22799879E-02 0.91381392E+02</pdfrwt>
<totfact> 0.30775125E+04</totfact>
</mgrwt>
</event>
<event>
 7    1  0.1028619E-012  0.9014779E+02  0.7546771E-02  0.1302494E+00
          1   -1    0    0  501    0  0.00000000000E+00  0.00000000000E+00  0.42128088749E+03  0.42128088749E+03  0.00000000000E+00 0. -1.
         -1   -1    0    0    0  501 -0.00000000000E+00 -0.00000000000E+00 -0.48225684794E+01  0.48225684794E+01  0.00000000000E+00 0.  1.
         23    2    1    2    0    0  0.17763568394E-14  0.33306690739E-15  0.41645831901E+03  0.42610345597E+03  0.90147788192E+02 0.  0.
          5    1    3    3  502    0 -0.10845590730E+02 -0.19206633724E+02  0.15132672085E+03  0.15299800019E+03  0.47000000000E+01 0. -1.
         -5    1    3    3    0  502  0.88726348344E+01  0.19512639848E+02  0.94424890912E+02  0.96941305884E+02  0.47000000000E+01 0. -1.
          5    1    3    3  503    0 -0.20209622609E+02  0.81331298573E+00  0.77716817228E+02  0.80443048202E+02  0.47000000000E+01 0.  1.
         -5    1    3    3    0  503  0.22182578504E+02 -0.11193191100E+01  0.92989890015E+02  0.95721101693E+02  0.47000000000E+01 0.  1.
<mgrwt>
<rscale>  0 0.90147788E+02</rscale>
<asrwt>0</asrwt>
<pdfrwt beam="1">  1        1 0.64812415E-01 0.90147788E+02</pdfrwt>
<pdfrwt beam="2">  1       -1 0.74193395E-03 0.90147788E+02</pdfrwt>
<totfact> 0.14016804E+05</totfact>
</mgrwt>
</event>
<event>
 7    1  0.1028619E-012  0.9214753E+02  0.7546771E-02  0.1297733E+00
         -2   -1    0    0    0  501 -0.00000000000E+00  0.00000000000E+00  0.11665174835E+02  0.11665174835E+02  0.00000000000E+00 0.  1.
          2   -1    0    0  501    0  0.00000000000E+00 -0.00000000000E+00 -0.18197686663E+03  0.18197686663E+03  0.00000000000E+00 0. -1.
         23    2    1    2    0    0  0.00000000000E+00  0.35527136788E-14 -0.17031169179E+03  0.19364204146E+03  0.92147533121E+02 0.  0.
          5    1    3    3  502    0  0.10184470583E+02  0.18397847053E+02 -0.25649925212E+02  0.33499445975E+02  0.47000000000E+01 0.  1.
         -5    1    3    3    0  503 -0.47089769690E+01  0.22062633648E+02 -0.34596485210E+02  0.41568510395E+02  0.47000000000E+01 0. -1.
          5    1    3    3  503    0  0.40930423810E+01 -0.21082684832E+02 -0.55844648089E+02  0.60016225438E+02  0.47000000000E+01 0. -1.
         -5    1    3    3    0  502 -0.95685359952E+01 -0.19377795868E+02 -0.54220633281E+02  0.58557859654E+02  0.47000000000E+01 0.  1.
<mgrwt>
<rscale>  0 0.92147533E+02</rscale>
<asrwt>0</asrwt>
<pdfrwt beam="1">  1        2 0.27996439E-01 0.92147533E+02</pdfrwt>
<pdfrwt beam="2">  1       -2 0.17946424E-02 0.92147533E+02</pdfrwt>
<totfact> 0.14530670E+05</totfact>
</mgrwt>
</event>
<event>
 7    1  0.1028619E-012  0.9422945E+02  0.7546771E-02  0.1292921E+00
          2   -1    0    0  501    0  0.00000000000E+00  0.00000000000E+00  0.68732582290E+01  0.68732582290E+01  0.00000000000E+00 0. -1.
         -2   -1    0    0    0  501 -0.00000000000E+00 -0.00000000000E+00 -0.32296142116E+03  0.32296142116E+03  0.00000000000E+00 0.  1.
         23    2    1    2    0    0  0.00000000000E+00 -0.35527136788E-14 -0.31608816293E+03  0.32983467939E+03  0.94229448596E+02 0.  0.
          5    1    3    3  502    0  0.20926990627E+02 -0.19808620211E+01 -0.43456943147E+02  0.48502151073E+02  0.47000000000E+01 0.  1.
         -5    1    3    3    0  502  0.97706784944E+00 -0.21118229877E+02 -0.98323403779E+02  0.10068026632E+03  0.47000000000E+01 0. -1.
          5    1    3    3  503    0 -0.24109731945E+02  0.11796993843E+01 -0.80173975357E+02  0.83860760727E+02  0.47000000000E+01 0. -1.
         -5    1    3    3    0  503  0.22056734693E+01  0.21919392514E+02 -0.94133840649E+02  0.96791501275E+02  0.47000000000E+01 0.  1.
<mgrwt>
<rscale>  0 0.94229449E+02</rscale>
<asrwt>0</asrwt>
<pdfrwt beam="1">  1        2 0.10574244E-02 0.94229449E+02</pdfrwt>
<pdfrwt beam="2">  1       -2 0.49686371E-01 0.94229449E+02</pdfrwt>
<totfact> 0.44895621E+04</totfact>
</mgrwt>
</event>
<event>
 7    1  0.1028619E-012  0.1020143E+03  0.7546771E-02  0.1276116E+00
         -1   -1    0    0    0  501 -0.00000000000E+00  0.00000000000E+00  0.38977679577E+03  0.38977679577E+03  0.00000000000E+00 0.  1.
          1   -1    0    0  501    0  0.00000000000E+00 -0.00000000000E+00 -0.66749176290E+01  0.66749176290E+01  0.00000000000E+00 0. -1.
         23    2    1    2    0    0  0.88817841970E-15  0.00000000000E+00  0.38310187814E+03  0.39645171340E+03  0.10201427362E+03 0.  0.
          5    1    3    3  502    0  0.83521307787E+00 -0.27451307124E+02  0.11280200522E+03  0.11619231569E+03  0.47000000000E+01 0. -1.
         -5    1    3    3    0  502 -0.45943369614E+01  0.22115928821E+02  0.71295409570E+02  0.74935623474E+02  0.47000000000E+01 0.  1.
          5    1    3    3  503    0 -0.10793619050E+02 -0.18343277167E+02  0.71891246575E+02  0.75122695396E+02  0.47000000000E+01 0. -1.
         -5    1    3    3    0  503  0.14552742934E+02  0.23678655470E+02  0.12711321677E+03  0.13020107884E+03  0.47000000000E+01 0.  1.
<mgrwt>
<rscale>  0 0.10201427E+03</rscale>
<asrwt>0</asrwt>
<pdfrwt beam="1">  1        1 0.10269107E-02 0.10201427E+03</pdfrwt>
<pdfrwt beam="2">  1       -1 0.59965643E-01 0.10201427E+03</pdfrwt>
<totfact> 0.40172821E+04</totfact>
</mgrwt>
</event>
<event>
 7    1  0.1028619E-012  0.9382439E+02  0.7546771E-02  0.1293846E+00
          2   -1    0    0  501    0  0.00000000000E+00  0.00000000000E+00  0.31344125404E+03  0.31344125404E+03  0.00000000000E+00 0. -1.
         -2   -1    0    0    0  501 -0.00000000000E+00 -0.00000000000E+00 -0.70212642109E+01  0.70212642109E+01  0.00000000000E+00 0.  1.
         23    2    1    2    0    0  0.00000000000E+00  0.00000000000E+00  0.30641998983E+03  0.32046251825E+03  0.93824386153E+02 0.  0.
          5    1    3    3  502    0 -0.17582398194E+02 -0.17132507014E+02  0.98444981325E+02  0.10156853780E+03  0.47000000000E+01 0. -1.
         -5    1    3    3    0  502  0.18766651182E+02  0.82043231243E+01  0.77512460965E+02  0.80310458344E+02  0.47000000000E+01 0.  1.
          5    1    3    3  503    0  0.21778369637E+02  0.24020681646E+01  0.61650380719E+02  0.65596697770E+02  0.47000000000E+01 0. -1.
         -5    1    3    3    0  503 -0.22962622626E+02  0.65261157252E+01  0.68812166823E+02  0.72986824339E+02  0.47000000000E+01 0.  1.
<mgrwt>
<rscale>  0 0.93824386E+02</rscale>
<asrwt>0</asrwt>
<pdfrwt beam="1">  1        2 0.48221721E-01 0.93824386E+02</pdfrwt>
<pdfrwt beam="2">  1       -2 0.10801947E-02 0.93824386E+02</pdfrwt>
<totfact> 0.16916732E+05</totfact>
</mgrwt>
</event>
<event>
 7    1  0.1028619E-012  0.9919686E+02  0.7546771E-02  0.1281994E+00
          1   -1    0    0  501    0  0.00000000000E+00  0.00000000000E+00  0.31644121798E+02  0.31644121798E+02  0.00000000000E+00 0. -1.
         -1   -1    0    0    0  501 -0.00000000000E+00 -0.00000000000E+00 -0.77739688829E+02  0.77739688829E+02  0.00000000000E+00 0.  1.
         23    2    1    2    0    0  0.00000000000E+00  0.17763568394E-14 -0.46095567030E+02  0.10938381063E+03  0.99196858455E+02 0.  0.
          5    1    3    3  502    0 -0.24201408188E+00 -0.20983105542E+02  0.26027305780E+00  0.21505976636E+02  0.47000000000E+01 0. -1.
         -5    1    3    3    0  502 -0.19739157100E+02  0.10407835386E+02 -0.19590132610E+02  0.30063610164E+02  0.47000000000E+01 0.  1.
          5    1    3    3  503    0  0.66586347271E+01  0.27088649853E+02 -0.21285979932E+02  0.35402193562E+02  0.47000000000E+01 0. -1.
         -5    1    3    3    0  503  0.13322536455E+02 -0.16513379697E+02 -0.54797275461E+01  0.22412030265E+02  0.47000000000E+01 0.  1.
<mgrwt>
<rscale>  0 0.99196858E+02</rscale>
<asrwt>0</asrwt>
<pdfrwt beam="1">  1        1 0.48683265E-02 0.99196858E+02</pdfrwt>
<pdfrwt beam="2">  1       -1 0.11959952E-01 0.99196858E+02</pdfrwt>
<totfact> 0.68539748E+04</totfact>
</mgrwt>
</event>
<event>
 7    1  0.1028619E-012  0.8971130E+02  0.7546771E-02  0.1303552E+00
          1   -1    0    0  501    0  0.00000000000E+00  0.00000000000E+00  0.58250481619E+02  0.58250481619E+02  0.00000000000E+00 0. -1.
         -1   -1    0    0    0  501 -0.00000000000E+00 -0.00000000000E+00 -0.34540988734E+02  0.34540988734E+02  0.00000000000E+00 0.  1.
         23    2    1    2    0    0  0.26645352591E-14  0.88817841970E-15  0.23709492885E+02  0.92791470352E+02  0.89711297601E+02 0.  0.
          5    1    3    3  502    0 -0.21226083802E+02 -0.59470489306E+01  0.63761802881E+01  0.23423486069E+02  0.47000000000E+01 0. -1.
         -5    1    3    3    0  502  0.21357825137E+02  0.47160128112E+01  0.10275679685E+02  0.24618632464E+02  0.47000000000E+01 0.  1.
          5    1    3    3  503    0  0.11216621591E+01 -0.20775453610E+02  0.61268294637E+01  0.22192468046E+02  0.47000000000E+01 0.  1.
         -5    1    3    3    0  503 -0.12534034946E+01  0.22006489729E+02  0.93080344822E+00  0.22556883774E+02  0.47000000000E+01 0. -1.
<mgrwt>
<rscale>  0 0.89711298E+02</rscale>
<asrwt>0</asrwt>
<pdfrwt beam="1">  1        1 0.89616126E-02 0.89711298E+02</pdfrwt>
<pdfrwt beam="2">  1       -1 0.53139983E-02 0.89711298E+02</pdfrwt>
<totfact> 0.10034798E+05</totfact>
</mgrwt>
</event>
<event>
 7    1  0.1028619E-012  0.9425035E+02  0.7546771E-02  0.1292873E+00
         -2   -1    0    0    0  501 -0.00000000000E+00  0.00000000000E+00  0.40382335237E+01  0.40382335237E+01  0.00000000000E+00 0.  1.
          2   -1    0    0  501    0  0.00000000000E+00 -0.00000000000E+00 -0.54993895796E+03  0.54993895796E+03  0.00000000000E+00 0. -1.
         23    2    1    2    0    0  0.00000000000E+00  0.00000000000E+00 -0.54590072444E+03  0.55397719149E+03  0.94250346123E+02 0.  0.
          5    1    3    3  502    0 -0.15350412187E+02 -0.14339991426E+02 -0.15073164530E+03  0.15226092540E+03  0.47000000000E+01 0. -1.
         -5    1    3    3    0  503  0.15126066994E+02  0.14242458633E+02 -0.16367626931E+03  0.16505652566E+03  0.47000000000E+01 0. -1.
          5    1    3    3  503    0 -0.18801880202E+02 -0.14942387217E+02 -0.11327353918E+03  0.11588688586E+03  0.47000000000E+01 0.  1.
         -5    1    3    3    0  502  0.19026225395E+02  0.15039920010E+02 -0.11821927065E+03  0.12077285457E+03  0.47000000000E+01 0.  1.
<mgrwt>
<rscale>  0 0.94250346E+02</rscale>
<asrwt>0</asrwt>
<pdfrwt beam="1">  1        2 0.84605935E-01 0.94250346E+02</pdfrwt>
<pdfrwt beam="2">  1       -2 0.62126713E-03 0.94250346E+02</pdfrwt>
<totfact> 0.20339627E+05</totfact>
</mgrwt>
</event>
<event>
 7    1  0.1028619E-012  0.9398471E+02  0.7546771E-02  0.1293479E+00
          1   -1    0    0  501    0  0.00000000000E+00  0.00000000000E+00  0.25306458011E+03  0.25306458011E+03  0.00000000000E+00 0. -1.
         -1   -1    0    0    0  501 -0.00000000000E+00 -0.00000000000E+00 -0.87261579363E+01  0.87261579363E+01  0.00000000000E+00 0.  1.
         23    2    1    2    0    0  0.00000000000E+00  0.35527136788E-14  0.24433842217E+03  0.26179073805E+03  0.93984711398E+02 0.  0.
          5    1    3    3  502    0  0.13861004729E+02  0.18770999397E+02  0.63449544061E+02  0.67767341042E+02  0.47000000000E+01 0. -1.
         -5    1    3    3    0  503  0.19284355363E+02 -0.11785940175E+02  0.43885902304E+02  0.49586864880E+02  0.47000000000E+01 0.  1.
          5    1    3    3  503    0 -0.20045448889E+02  0.10234416108E+02  0.58042275925E+02  0.62430433995E+02  0.47000000000E+01 0.  1.
         -5    1    3    3    0  502 -0.13099911203E+02 -0.17219475329E+02  0.78960699885E+02  0.82006098130E+02  0.47000000000E+01 0. -1.
<mgrwt>
<rscale>  0 0.93984711E+02</rscale>
<asrwt>0</asrwt>
<pdfrwt beam="1">  1        1 0.38933007E-01 0.93984711E+02</pdfrwt>
<pdfrwt beam="2">  1       -1 0.13424860E-02 0.93984711E+02</pdfrwt>
<totfact> 0.11429598E+05</totfact>
</mgrwt>
</event>
<event>
 7    1  0.1028619E-012  0.9103149E+02  0.7546771E-02  0.1300373E+00
         -2   -1    0    0    0  501 -0.00000000000E+00  0.00000000000E+00  0.28164458499E+03  0.28164458499E+03  0.00000000000E+00 0.  1.
          2   -1    0    0  501    0  0.00000000000E+00 -0.00000000000E+00 -0.73556640734E+01  0.73556640734E+01  0.00000000000E+00 0. -1.
         23    2    1    2    0    0  0.11102230246E-14  0.00000000000E+00  0.27428892092E+03  0.28900024907E+03  0.91031488076E+02 0.  0.
          5    1    3    3  502    0 -0.17869555404E+01 -0.20776969879E+02  0.82987369395E+02  0.85696377792E+02  0.47000000000E+01 0.  1.
         -5    1    3    3    0  502  0.24101611726E+01  0.20780120961E+02  0.52298339635E+02  0.56522815151E+02  0.47000000000E+01 0. -1.
          5    1    3    3  503    0  0.22174786770E+02 -0.51534093092E+01  0.64918539123E+02  0.68954952814E+02  0.47000000000E+01 0. -1.
         -5    1    3    3    0  503 -0.22797992402E+02  0.51502582280E+01  0.74084672768E+02  0.77826103311E+02  0.47000000000E+01 0.  1.
<mgrwt>
<rscale>  0 0.91031488E+02</rscale>
<asrwt>0</asrwt>
<pdfrwt beam="1">  1        2 0.11316408E-02 0.91031488E+02</pdfrwt>
<pdfrwt beam="2">  1       -2 0.43329928E-01 0.91031488E+02</pdfrwt>
<totfact> 0.53023757E+04</totfact>
</mgrwt>
</event>
<event>
 7    1  0.1028619E-012  0.9402418E+02  0.7546771E-02  0.1293389E+00
         -2   -1    0    0    0  501 -0.00000000000E+00  0.00000000000E+00  0.84872408997E+01  0.84872408997E+01  0.00000000000E+00 0. -1.
          2   -1    0    0  501    0  0.00000000000E+00 -0.00000000000E+00 -0.26040697508E+03  0.26040697508E+03  0.00000000000E+00 0.  1.
         23    2    1    2    0    0  0.35527136788E-14 -0.17763568394E-14 -0.25191973418E+03  0.26889421598E+03  0.94024182622E+02 0.  0.
          5    1    3    3  502    0 -0.13395255404E+02 -0.16868383244E+02 -0.74608137318E+02  0.77797425245E+02  0.47000000000E+01 0. -1.
         -5    1    3    3    0  503  0.14097671170E+02  0.14341132529E+02 -0.42404271732E+02  0.47165927064E+02  0.47000000000E+01 0. -1.
          5    1    3    3  503    0  0.31281281117E+01 -0.20306830665E+02 -0.97004326623E+02  0.99267728596E+02  0.47000000000E+01 0.  1.
         -5    1    3    3    0  502 -0.38305438771E+01  0.22834081380E+02 -0.37902998505E+02  0.44663135073E+02  0.47000000000E+01 0.  1.
<mgrwt>
<rscale>  0 0.94024183E+02</rscale>
<asrwt>0</asrwt>
<pdfrwt beam="1">  1        2 0.40062605E-01 0.94024183E+02</pdfrwt>
<pdfrwt beam="2">  1       -2 0.13057296E-02 0.94024183E+02</pdfrwt>
<totfact> 0.15692925E+05</totfact>
</mgrwt>
</event>
<event>
 7    1  0.1028619E-012  0.1027159E+03  0.7546771E-02  0.1274686E+00
          3   -1    0    0  501    0  0.00000000000E+00  0.00000000000E+00  0.17433834802E+03  0.17433834802E+03  0.00000000000E+00 0. -1.
         -3   -1    0    0    0  501 -0.00000000000E+00 -0.00000000000E+00 -0.15129421747E+02  0.15129421747E+02  0.00000000000E+00 0.  1.
         23    2    1    2    0    0  0.17763568394E-14  0.00000000000E+00  0.15920892627E+03  0.18946776977E+03  0.10271588765E+03 0.  0.
          5    1    3    3  502    0  0.16082092441E+02  0.23173071538E+02  0.44385625233E+02  0.52799608608E+02  0.47000000000E+01 0. -1.
         -5    1    3    3    0  502 -0.22572544877E+02  0.16582296878E+01  0.20189525319E+02  0.30691634699E+02  0.47000000000E+01 0.  1.
          5    1    3    3  503    0  0.19863699493E+02 -0.41048925125E+01  0.28973889116E+02  0.35679026761E+02  0.47000000000E+01 0. -1.
         -5    1    3    3    0  503 -0.13373247057E+02 -0.20726408713E+02  0.65659886603E+02  0.70297499697E+02  0.47000000000E+01 0.  1.
<mgrwt>
<rscale>  0 0.10271589E+03</rscale>
<asrwt>0</asrwt>
<pdfrwt beam="1">  1        3 0.26821283E-01 0.10271589E+03</pdfrwt>
<pdfrwt beam="2">  1       -3 0.23276035E-02 0.10271589E+03</pdfrwt>
<totfact> 0.21005964E+04</totfact>
</mgrwt>
</event>
<event>
 7    1  0.1028619E-012  0.1028562E+03  0.7546771E-02  0.1274402E+00
         -2   -1    0    0    0  501 -0.00000000000E+00  0.00000000000E+00  0.97222239637E+01  0.97222239637E+01  0.00000000000E+00 0. -1.
          2   -1    0    0  501    0  0.00000000000E+00 -0.00000000000E+00 -0.27204136919E+03  0.27204136919E+03  0.00000000000E+00 0.  1.
         23    2    1    2    0    0 -0.88817841970E-15  0.17763568394E-14 -0.26231914523E+03  0.28176359316E+03  0.10285615429E+03 0.  0.
          5    1    3    3  502    0  0.30376752130E+02 -0.24544357692E+00 -0.42713009438E+02  0.52624124580E+02  0.47000000000E+01 0. -1.
         -5    1    3    3    0  502 -0.22454063842E+02 -0.15033705378E+01 -0.66966017752E+02  0.70802419730E+02  0.47000000000E+01 0.  1.
          5    1    3    3  503    0 -0.72355621532E+01 -0.18921586038E+02 -0.70528531797E+02  0.73530562185E+02  0.47000000000E+01 0. -1.
         -5    1    3    3    0  503 -0.68712613423E+00  0.20670400152E+02 -0.82111586243E+02  0.84806486663E+02  0.47000000000E+01 0.  1.
<mgrwt>
<rscale>  0 0.10285615E+03</rscale>
<asrwt>0</asrwt>
<pdfrwt beam="1">  1        2 0.41852517E-01 0.10285615E+03</pdfrwt>
<pdfrwt beam="2">  1       -2 0.14957268E-02 0.10285615E+03</pdfrwt>
<totfact> 0.12521266E+05</totfact>
</mgrwt>
</event>
<event>
 7    1  0.1028619E-012  0.9063706E+02  0.7546771E-02  0.1301316E+00
         -1   -1    0    0    0  501 -0.00000000000E+00  0.00000000000E+00  0.60548781263E+02  0.60548781263E+02  0.00000000000E+00 0.  1.
          1   -1    0    0  501    0  0.00000000000E+00 -0.00000000000E+00 -0.33919248398E+02  0.33919248398E+02  0.00000000000E+00 0. -1.
         23    2    1    2    0    0 -0.17763568394E-14  0.00000000000E+00  0.26629532865E+02  0.94468029660E+02  0.90637059790E+02 0.  0.
          5    1    3    3  502    0 -0.19753976895E+02  0.61895670938E+01  0.18084224362E+02  0.27886547200E+02  0.47000000000E+01 0.  1.
         -5    1    3    3    0  503  0.13077669255E+02 -0.18557845992E+02 -0.24742124618E+01  0.23315891755E+02  0.47000000000E+01 0.  1.
          5    1    3    3  503    0 -0.13306891915E+02  0.15537522503E+02  0.68514246993E+01  0.22079855035E+02  0.47000000000E+01 0. -1.
         -5    1    3    3    0  502  0.19983199554E+02 -0.31692436050E+01  0.41680962654E+01  0.21185735671E+02  0.47000000000E+01 0. -1.
<mgrwt>
<rscale>  0 0.90637060E+02</rscale>
<asrwt>0</asrwt>
<pdfrwt beam="1">  1        1 0.52183459E-02 0.90637060E+02</pdfrwt>
<pdfrwt beam="2">  1       -1 0.93151971E-02 0.90637060E+02</pdfrwt>
<totfact> 0.89897712E+04</totfact>
</mgrwt>
</event>
<event>
 7    1  0.1028619E-012  0.9126198E+02  0.7546771E-02  0.1299824E+00
          2   -1    0    0  501    0  0.00000000000E+00  0.00000000000E+00  0.52343530602E+03  0.52343530602E+03  0.00000000000E+00 0. -1.
         -2   -1    0    0    0  501 -0.00000000000E+00 -0.00000000000E+00 -0.39779265639E+01  0.39779265639E+01  0.00000000000E+00 0.  1.
         23    2    1    2    0    0  0.00000000000E+00 -0.88817841970E-15  0.51945737945E+03  0.52741323258E+03  0.91261979122E+02 0.  0.
          5    1    3    3  502    0 -0.20583522566E+02  0.62023494276E+01  0.13414432456E+03  0.13593726624E+03  0.47000000000E+01 0. -1.
         -5    1    3    3    0  502  0.21283931658E+02 -0.43184922879E+01  0.88279698197E+02  0.91033236986E+02  0.47000000000E+01 0.  1.
          5    1    3    3  503    0 -0.12059767205E+02  0.16329701793E+02  0.19251746621E+03  0.19364183934E+03  0.47000000000E+01 0.  1.
         -5    1    3    3    0  503  0.11359358114E+02 -0.18213558933E+02  0.10451589048E+03  0.10680089002E+03  0.47000000000E+01 0. -1.
<mgrwt>
<rscale>  0 0.91261979E+02</rscale>
<asrwt>0</asrwt>
<pdfrwt beam="1">  1        2 0.80528454E-01 0.91261979E+02</pdfrwt>
<pdfrwt beam="2">  1       -2 0.61198912E-03 0.91261979E+02</pdfrwt>
<totfact> 0.21814403E+05</totfact>
</mgrwt>
</event>
<event>
 7    1  0.1028619E-012  0.9107197E+02  0.7546771E-02  0.1300276E+00
         -1   -1    0    0    0  501 -0.00000000000E+00  0.00000000000E+00  0.15699023141E+02  0.15699023141E+02  0.00000000000E+00 0.  1.
          1   -1    0    0  501    0  0.00000000000E+00 -0.00000000000E+00 -0.13207992593E+03  0.13207992593E+03  0.00000000000E+00 0. -1.
         23    2    1    2    0    0 -0.17763568394E-14  0.17763568394E-14 -0.11638090279E+03  0.14777894907E+03  0.91071967445E+02 0.  0.
          5    1    3    3  502    0  0.52702214463E+01 -0.20189153882E+02 -0.35096819643E+02  0.41100534274E+02  0.47000000000E+01 0. -1.
         -5    1    3    3    0  503 -0.34412526595E+01  0.20569450658E+02 -0.29628260952E+02  0.36535850439E+02  0.47000000000E+01 0. -1.
          5    1    3    3  503    0  0.19415126955E+02 -0.48041097869E+01 -0.40228835145E+02  0.45171626079E+02  0.47000000000E+01 0.  1.
         -5    1    3    3    0  502 -0.21244095741E+02  0.44238130112E+01 -0.11426987046E+02  0.24970938276E+02  0.47000000000E+01 0.  1.
<mgrwt>
<rscale>  0 0.91071967E+02</rscale>
<asrwt>0</asrwt>
<pdfrwt beam="1">  1        1 0.20319989E-01 0.91071967E+02</pdfrwt>
<pdfrwt beam="2">  1       -1 0.24152342E-02 0.91071967E+02</pdfrwt>
<totfact> 0.10991869E+05</totfact>
</mgrwt>
</event>
<event>
 7    1  0.1028619E-012  0.9165341E+02  0.7546771E-02  0.1298896E+00
          3   -1    0    0  501    0  0.00000000000E+00  0.00000000000E+00  0.49894685350E+02  0.49894685350E+02  0.00000000000E+00 0. -1.
         -3   -1    0    0    0  501 -0.00000000000E+00 -0.00000000000E+00 -0.42090394215E+02  0.42090394215E+02  0.00000000000E+00 0.  1.
         23    2    1    2    0    0  0.00000000000E+00  0.00000000000E+00  0.78042911346E+01  0.91985079564E+02  0.91653411842E+02 0.  0.
          5    1    3    3  502    0  0.18133672691E+02 -0.99529313189E+01 -0.41657454803E+01  0.21617917627E+02  0.47000000000E+01 0. -1.
         -5    1    3    3    0  502 -0.22817734549E+02  0.34738582853E+01  0.34629138899E+01  0.23807529774E+02  0.47000000000E+01 0.  1.
          5    1    3    3  503    0  0.21545885984E+02 -0.59234573042E+01  0.10263452956E+02  0.25034796102E+02  0.47000000000E+01 0.  1.
         -5    1    3    3    0  503 -0.16861824126E+02  0.12402530338E+02 -0.17563302312E+01  0.21524836063E+02  0.47000000000E+01 0. -1.
<mgrwt>
<rscale>  0 0.91653412E+02</rscale>
<asrwt>0</asrwt>
<pdfrwt beam="1">  1        3 0.76761054E-02 0.91653412E+02</pdfrwt>
<pdfrwt beam="2">  1       -3 0.64754453E-02 0.91653412E+02</pdfrwt>
<totfact> 0.34778079E+04</totfact>
</mgrwt>
</event>
<event>
 7    1  0.1028619E-012  0.1020836E+03  0.7546771E-02  0.1275974E+00
         -1   -1    0    0    0  501 -0.00000000000E+00  0.00000000000E+00  0.10848476082E+03  0.10848476082E+03  0.00000000000E+00 0.  1.
          1   -1    0    0  501    0  0.00000000000E+00 -0.00000000000E+00 -0.24015034294E+02  0.24015034294E+02  0.00000000000E+00 0. -1.
         23    2    1    2    0    0 -0.17763568394E-14  0.00000000000E+00  0.84469726524E+02  0.13249979511E+03  0.10208359812E+03 0.  0.
          5    1    3    3  502    0  0.19124947493E+02 -0.15713473735E+02  0.10776761909E+02  0.27402654446E+02  0.47000000000E+01 0.  1.
         -5    1    3    3    0  502 -0.11066675369E+02  0.19789033763E+02  0.24171427212E+02  0.33472750925E+02  0.47000000000E+01 0. -1.
          5    1    3    3  503    0 -0.28481361300E+02 -0.81275868852E+01  0.24415945623E+02  0.38671359049E+02  0.47000000000E+01 0. -1.
         -5    1    3    3    0  503  0.20423089176E+02  0.40520268568E+01  0.25105591780E+02  0.32953030692E+02  0.47000000000E+01 0.  1.
<mgrwt>
<rscale>  0 0.10208360E+03</rscale>
<asrwt>0</asrwt>
<pdfrwt beam="1">  1        1 0.36946207E-02 0.10208360E+03</pdfrwt>
<pdfrwt beam="2">  1       -1 0.16689963E-01 0.10208360E+03</pdfrwt>
<totfact> 0.59820819E+04</totfact>
</mgrwt>
</event>
<event>
 7    1  0.1028619E-012  0.9311637E+02  0.7546771E-02  0.1295476E+00
         -1   -1    0    0    0  501 -0.00000000000E+00  0.00000000000E+00  0.18932122151E+03  0.18932122151E+03  0.00000000000E+00 0.  1.
          1   -1    0    0  501    0  0.00000000000E+00 -0.00000000000E+00 -0.11449664782E+02  0.11449664782E+02  0.00000000000E+00 0. -1.
         23    2    1    2    0    0  0.00000000000E+00  0.17763568394E-14  0.17787155673E+03  0.20077088629E+03  0.93116368538E+02 0.  0.
          5    1    3    3  502    0  0.14830543764E+01  0.23920883184E+02  0.52252984999E+02  0.57679047702E+02  0.47000000000E+01 0. -1.
         -5    1    3    3    0  503 -0.13593881886E+02  0.15991998324E+02  0.56124555656E+02  0.60104853238E+02  0.47000000000E+01 0.  1.
          5    1    3    3  503    0  0.15228369937E+01 -0.22175965566E+02  0.46302254714E+02  0.51575975734E+02  0.47000000000E+01 0.  1.
         -5    1    3    3    0  502  0.10587990516E+02 -0.17736915942E+02  0.23191761361E+02  0.31411009620E+02  0.47000000000E+01 0. -1.
<mgrwt>
<rscale>  0 0.93116369E+02</rscale>
<asrwt>0</asrwt>
<pdfrwt beam="1">  1        1 0.17614870E-02 0.93116369E+02</pdfrwt>
<pdfrwt beam="2">  1       -1 0.29126340E-01 0.93116369E+02</pdfrwt>
<totfact> 0.66736231E+04</totfact>
</mgrwt>
</event>
<event>
 7    1  0.1028619E-012  0.9149179E+02  0.7546771E-02  0.1299279E+00
         -2   -1    0    0    0  501 -0.00000000000E+00  0.00000000000E+00  0.30517108592E+02  0.30517108592E+02  0.00000000000E+00 0.  1.
          2   -1    0    0  501    0  0.00000000000E+00 -0.00000000000E+00 -0.68574226803E+02  0.68574226803E+02  0.00000000000E+00 0. -1.
         23    2    1    2    0    0  0.00000000000E+00  0.00000000000E+00 -0.38057118211E+02  0.99091335395E+02  0.91491794735E+02 0.  0.
          5    1    3    3  502    0 -0.21530341180E+02  0.16547519076E+01 -0.19442111304E+02  0.29434324982E+02  0.47000000000E+01 0.  1.
         -5    1    3    3    0  503  0.20952231604E+02 -0.75161475666E+01 -0.86516187532E+00  0.22766795745E+02  0.47000000000E+01 0.  1.
          5    1    3    3  503    0 -0.20323880223E+02  0.15157890938E+01 -0.47195458958E+01  0.21441124909E+02  0.47000000000E+01 0. -1.
         -5    1    3    3    0  502  0.20901989799E+02  0.43456065653E+01 -0.13030299136E+02  0.25449089759E+02  0.47000000000E+01 0. -1.
<mgrwt>
<rscale>  0 0.91491795E+02</rscale>
<asrwt>0</asrwt>
<pdfrwt beam="1">  1        2 0.10549881E-01 0.91491795E+02</pdfrwt>
<pdfrwt beam="2">  1       -2 0.46949398E-02 0.91491795E+02</pdfrwt>
<totfact> 0.10893365E+05</totfact>
</mgrwt>
</event>
<event>
 7    1  0.1028619E-012  0.9016815E+02  0.7546771E-02  0.1302445E+00
         -1   -1    0    0    0  501 -0.00000000000E+00  0.00000000000E+00  0.64474871855E+01  0.64474871855E+01  0.00000000000E+00 0.  1.
          1   -1    0    0  501    0  0.00000000000E+00 -0.00000000000E+00 -0.31525050689E+03  0.31525050689E+03  0.00000000000E+00 0. -1.
         23    2    1    2    0    0  0.00000000000E+00  0.00000000000E+00 -0.30880301970E+03  0.32169799407E+03  0.90168145226E+02 0.  0.
          5    1    3    3  502    0 -0.87092058298E+01 -0.21701570079E+02 -0.63904162222E+02  0.68210265791E+02  0.47000000000E+01 0. -1.
         -5    1    3    3    0  503  0.92286182696E+01  0.20242417254E+02 -0.68692632052E+02  0.72358071766E+02  0.47000000000E+01 0.  1.
          5    1    3    3  503    0 -0.14914715785E+02 -0.13479657055E+02 -0.83539641991E+02  0.86052958609E+02  0.47000000000E+01 0. -1.
         -5    1    3    3    0  502  0.14395303345E+02  0.14938809879E+02 -0.92666583435E+02  0.95076697905E+02  0.47000000000E+01 0.  1.
<mgrwt>
<rscale>  0 0.90168145E+02</rscale>
<asrwt>0</asrwt>
<pdfrwt beam="1">  1        1 0.48500060E-01 0.90168145E+02</pdfrwt>
<pdfrwt beam="2">  1       -1 0.99192148E-03 0.90168145E+02</pdfrwt>
<totfact> 0.13321360E+05</totfact>
</mgrwt>
</event>
<event>
 7    1  0.1028619E-012  0.9687634E+02  0.7546771E-02  0.1287005E+00
          3   -1    0    0  501    0  0.00000000000E+00  0.00000000000E+00  0.20446240321E+02  0.20446240321E+02  0.00000000000E+00 0. -1.
         -3   -1    0    0    0  501 -0.00000000000E+00 -0.00000000000E+00 -0.11475245324E+03  0.11475245324E+03  0.00000000000E+00 0.  1.
         23    2    1    2    0    0 -0.35527136788E-14  0.35527136788E-14 -0.94306212914E+02  0.13519869356E+03  0.96876338417E+02 0.  0.
          5    1    3    3  502    0  0.10234854692E+02  0.20914062373E+02 -0.45280067838E+02  0.51132424145E+02  0.47000000000E+01 0.  1.
         -5    1    3    3    0  502 -0.18032413930E+02 -0.17787484757E+02 -0.17806201372E+02  0.31316343552E+02  0.47000000000E+01 0.  1.
          5    1    3    3  503    0  0.12149905840E+02  0.16807411230E+02 -0.12518909359E+02  0.24676352561E+02  0.47000000000E+01 0. -1.
         -5    1    3    3    0  503 -0.43523466022E+01 -0.19933988845E+02 -0.18701034344E+02  0.28073573299E+02  0.47000000000E+01 0. -1.
<mgrwt>
<rscale>  0 0.96876338E+02</rscale>
<asrwt>0</asrwt>
<pdfrwt beam="1">  1        3 0.31455754E-02 0.96876338E+02</pdfrwt>
<pdfrwt beam="2">  1       -3 0.17654224E-01 0.96876338E+02</pdfrwt>
<totfact> 0.27328442E+04</totfact>
</mgrwt>
</event>
<event>
 7    1  0.1028619E-012  0.9792540E+02  0.7546771E-02  0.1284720E+00
          2   -1    0    0  501    0  0.00000000000E+00  0.00000000000E+00  0.27699304746E+03  0.27699304746E+03  0.00000000000E+00 0. -1.
         -2   -1    0    0    0  501 -0.00000000000E+00 -0.00000000000E+00 -0.86548962933E+01  0.86548962933E+01  0.00000000000E+00 0.  1.
         23    2    1    2    0    0  0.17763568394E-14  0.00000000000E+00  0.26833815117E+03  0.28564794376E+03  0.97925402216E+02 0.  0.
          5    1    3    3  502    0 -0.19870389485E+02 -0.79843782957E+01  0.60565849808E+02  0.64411915342E+02  0.47000000000E+01 0. -1.
         -5    1    3    3    0  502  0.18072870181E+02  0.11007389116E+02  0.63506688960E+02  0.67104253177E+02  0.47000000000E+01 0. -1.
          5    1    3    3  503    0  0.11355707930E+02  0.21254539835E+02  0.43640640809E+02  0.50072977707E+02  0.47000000000E+01 0.  1.
         -5    1    3    3    0  503 -0.95581886268E+01 -0.24277550655E+02  0.10062497159E+03  0.10405879753E+03  0.47000000000E+01 0.  1.
<mgrwt>
<rscale>  0 0.97925402E+02</rscale>
<asrwt>0</asrwt>
<pdfrwt beam="1">  1        2 0.42614308E-01 0.97925402E+02</pdfrwt>
<pdfrwt beam="2">  1       -2 0.13315227E-02 0.97925402E+02</pdfrwt>
<totfact> 0.14397280E+05</totfact>
</mgrwt>
</event>
<event>
 7    1  0.1028619E-012  0.9368289E+02  0.7546771E-02  0.1294170E+00
          1   -1    0    0  501    0  0.00000000000E+00  0.00000000000E+00  0.65149655836E+02  0.65149655836E+02  0.00000000000E+00 0. -1.
         -1   -1    0    0    0  501 -0.00000000000E+00 -0.00000000000E+00 -0.33678169146E+02  0.33678169146E+02  0.00000000000E+00 0.  1.
         23    2    1    2    0    0  0.35527136788E-14  0.00000000000E+00  0.31471486690E+02  0.98827824982E+02  0.93682893402E+02 0.  0.
          5    1    3    3  502    0 -0.24492692420E+02 -0.87544810082E+01  0.92907696284E+01  0.28016804243E+02  0.47000000000E+01 0. -1.
         -5    1    3    3    0  503  0.65740507108E+01  0.20090527574E+02  0.47439399674E+01  0.22168500340E+02  0.47000000000E+01 0.  1.
          5    1    3    3  503    0  0.16835065855E+02  0.11604324414E+02  0.13293579595E+02  0.24837251174E+02  0.47000000000E+01 0. -1.
         -5    1    3    3    0  502  0.10835758547E+01 -0.22940370980E+02  0.41431974996E+01  0.23805269224E+02  0.47000000000E+01 0.  1.
<mgrwt>
<rscale>  0 0.93682893E+02</rscale>
<asrwt>0</asrwt>
<pdfrwt beam="1">  1        1 0.10023024E-01 0.93682893E+02</pdfrwt>
<pdfrwt beam="2">  1       -1 0.51812568E-02 0.93682893E+02</pdfrwt>
<totfact> 0.90516524E+04</totfact>
</mgrwt>
</event>
<event>
 7    1  0.1028619E-012  0.9229286E+02  0.7546771E-02  0.1297392E+00
          2   -1    0    0  501    0  0.00000000000E+00  0.00000000000E+00  0.43968443342E+03  0.43968443342E+03  0.00000000000E+00 0. -1.
         -2   -1    0    0    0  501 -0.00000000000E+00 -0.00000000000E+00 -0.48432298800E+01  0.48432298800E+01  0.00000000000E+00 0.  1.
         23    2    1    2    0    0 -0.35527136788E-14 -0.66613381478E-15  0.43484120354E+03  0.44452766330E+03  0.92292855318E+02 0.  0.
          5    1    3    3  502    0  0.21085376611E+02 -0.76833753063E+01  0.10351433312E+03  0.10602327350E+03  0.47000000000E+01 0. -1.
         -5    1    3    3    0  503 -0.22609166050E+02 -0.26118632594E+01  0.85830459160E+02  0.88921054530E+02  0.47000000000E+01 0. -1.
          5    1    3    3  503    0  0.20241005180E+02  0.16701280773E+01  0.16679448783E+03  0.16809217349E+03  0.47000000000E+01 0.  1.
         -5    1    3    3    0  502 -0.18717215741E+02  0.86251104884E+01  0.78701923430E+02  0.81491161776E+02  0.47000000000E+01 0.  1.
<mgrwt>
<rscale>  0 0.92292855E+02</rscale>
<asrwt>0</asrwt>
<pdfrwt beam="1">  1        2 0.67643727E-01 0.92292855E+02</pdfrwt>
<pdfrwt beam="2">  1       -2 0.74511264E-03 0.92292855E+02</pdfrwt>
<totfact> 0.19982710E+05</totfact>
</mgrwt>
</event>
<event>
 7    1  0.1028619E-012  0.9090754E+02  0.7546771E-02  0.1300669E+00
          2   -1    0    0  501    0  0.00000000000E+00  0.00000000000E+00  0.99640975893E+02  0.99640975893E+02  0.00000000000E+00 0. -1.
         -2   -1    0    0    0  501 -0.00000000000E+00 -0.00000000000E+00 -0.20734895648E+02  0.20734895648E+02  0.00000000000E+00 0.  1.
         23    2    1    2    0    0 -0.26645352591E-14  0.26645352591E-14  0.78906080245E+02  0.12037587154E+03  0.90907540664E+02 0.  0.
          5    1    3    3  502    0 -0.20025266289E+02  0.22639937715E+01  0.19885460659E+02  0.28699451273E+02  0.47000000000E+01 0. -1.
         -5    1    3    3    0  503 -0.44492203990E+01 -0.21198147762E+02  0.19292816973E+02  0.29384686785E+02  0.47000000000E+01 0.  1.
          5    1    3    3  503    0  0.43294079523E+01  0.22997856169E+02  0.31816564631E+02  0.39774727485E+02  0.47000000000E+01 0. -1.
         -5    1    3    3    0  502  0.20145078736E+02 -0.40637021784E+01  0.79112379820E+01  0.22517005997E+02  0.47000000000E+01 0.  1.
<mgrwt>
<rscale>  0 0.90907541E+02</rscale>
<asrwt>0</asrwt>
<pdfrwt beam="1">  1        2 0.15329381E-01 0.90907541E+02</pdfrwt>
<pdfrwt beam="2">  1       -2 0.31899840E-02 0.90907541E+02</pdfrwt>
<totfact> 0.12354393E+05</totfact>
</mgrwt>
</event>
<event>
 7    1  0.1028619E-012  0.9084005E+02  0.7546771E-02  0.1300830E+00
          3   -1    0    0  501    0  0.00000000000E+00  0.00000000000E+00  0.10585701764E+03  0.10585701764E+03  0.00000000000E+00 0. -1.
         -3   -1    0    0    0  501 -0.00000000000E+00 -0.00000000000E+00 -0.19488350040E+02  0.19488350040E+02  0.00000000000E+00 0.  1.
         23    2    1    2    0    0 -0.17763568394E-14  0.00000000000E+00  0.86368667602E+02  0.12534536768E+03  0.90840048745E+02 0.  0.
          5    1    3    3  502    0 -0.17824293995E+02  0.12327462019E+02  0.10061901449E+02  0.24351666001E+02  0.47000000000E+01 0.  1.
         -5    1    3    3    0  503  0.85414997971E+01  0.18390340441E+02  0.27987906544E+02  0.34879431662E+02  0.47000000000E+01 0. -1.
          5    1    3    3  503    0 -0.93335905366E+01 -0.20482700455E+02  0.29059560063E+02  0.37056780234E+02  0.47000000000E+01 0. -1.
         -5    1    3    3    0  502  0.18616384734E+02 -0.10235102005E+02  0.19259299545E+02  0.29057489785E+02  0.47000000000E+01 0.  1.
<mgrwt>
<rscale>  0 0.90840049E+02</rscale>
<asrwt>0</asrwt>
<pdfrwt beam="1">  1        3 0.16285695E-01 0.90840049E+02</pdfrwt>
<pdfrwt beam="2">  1       -3 0.29982077E-02 0.90840049E+02</pdfrwt>
<totfact> 0.33216487E+04</totfact>
</mgrwt>
</event>
<event>
 7    1  0.1028619E-012  0.9105339E+02  0.7546771E-02  0.1300321E+00
         -2   -1    0    0    0  501 -0.00000000000E+00  0.00000000000E+00  0.31519091575E+02  0.31519091575E+02  0.00000000000E+00 0.  1.
          2   -1    0    0  501    0  0.00000000000E+00 -0.00000000000E+00 -0.65759505268E+02  0.65759505268E+02  0.00000000000E+00 0. -1.
         23    2    1    2    0    0  0.00000000000E+00  0.35527136788E-14 -0.34240413693E+02  0.97278596843E+02  0.91053388041E+02 0.  0.
          5    1    3    3  502    0  0.10460630727E+02  0.17098138540E+02 -0.15822736044E+02  0.25965748837E+02  0.47000000000E+01 0.  1.
         -5    1    3    3    0  502 -0.13582362910E+01 -0.20441901682E+02 -0.13431131295E+01  0.21062053629E+02  0.47000000000E+01 0.  1.
          5    1    3    3  503    0  0.42682924806E+01  0.22518186817E+02 -0.77045989018E+01  0.24632050310E+02  0.47000000000E+01 0. -1.
         -5    1    3    3    0  503 -0.13370686917E+02 -0.19174423675E+02 -0.93699656180E+01  0.25618744067E+02  0.47000000000E+01 0. -1.
<mgrwt>
<rscale>  0 0.91053388E+02</rscale>
<asrwt>0</asrwt>
<pdfrwt beam="1">  1        2 0.10116847E-01 0.91053388E+02</pdfrwt>
<pdfrwt beam="2">  1       -2 0.48490910E-02 0.91053388E+02</pdfrwt>
<totfact> 0.10914868E+05</totfact>
</mgrwt>
</event>
<event>
 7    1  0.1028619E-012  0.9708973E+02  0.7546771E-02  0.1286538E+00
          3   -1    0    0  501    0  0.00000000000E+00  0.00000000000E+00  0.37621458362E+02  0.37621458362E+02  0.00000000000E+00 0. -1.
         -3   -1    0    0    0  501 -0.00000000000E+00 -0.00000000000E+00 -0.62639882392E+02  0.62639882392E+02  0.00000000000E+00 0.  1.
         23    2    1    2    0    0 -0.31086244690E-14  0.17763568394E-14 -0.25018424030E+02  0.10026134075E+03  0.97089726072E+02 0.  0.
          5    1    3    3  502    0 -0.17709208393E+01 -0.20526642156E+02  0.44608324166E+01  0.21597875466E+02  0.47000000000E+01 0. -1.
         -5    1    3    3    0  503  0.21409771275E+02 -0.58915090506E+01  0.25799908019E+01  0.22843697982E+02  0.47000000000E+01 0.  1.
          5    1    3    3  503    0 -0.22016384292E+02  0.42583328930E+01 -0.15611799884E+02  0.27724950351E+02  0.47000000000E+01 0. -1.
         -5    1    3    3    0  502  0.23775338568E+01  0.22159818313E+02 -0.16447447364E+02  0.28094816955E+02  0.47000000000E+01 0.  1.
<mgrwt>
<rscale>  0 0.97089726E+02</rscale>
<asrwt>0</asrwt>
<pdfrwt beam="1">  1        3 0.57879166E-02 0.97089726E+02</pdfrwt>
<pdfrwt beam="2">  1       -3 0.96369051E-02 0.97089726E+02</pdfrwt>
<totfact> 0.29180546E+04</totfact>
</mgrwt>
</event>
<event>
 7    1  0.1028619E-012  0.9797670E+02  0.7546771E-02  0.1284609E+00
          1   -1    0    0  501    0  0.00000000000E+00  0.00000000000E+00  0.83043579740E+01  0.83043579740E+01  0.00000000000E+00 0. -1.
         -1   -1    0    0    0  501 -0.00000000000E+00 -0.00000000000E+00 -0.28898780914E+03  0.28898780914E+03  0.00000000000E+00 0.  1.
         23    2    1    2    0    0  0.00000000000E+00 -0.35527136788E-14 -0.28068345116E+03  0.29729216711E+03  0.97976695540E+02 0.  0.
          5    1    3    3  502    0 -0.77185230768E+00 -0.23445010820E+02 -0.87944725225E+02  0.91140709802E+02  0.47000000000E+01 0.  1.
         -5    1    3    3    0  502  0.14296827544E+02  0.18585349637E+02 -0.38912055331E+02  0.45673324261E+02  0.47000000000E+01 0. -1.
          5    1    3    3  503    0 -0.18155846194E+02 -0.15087389831E+02 -0.68607010792E+02  0.72706781064E+02  0.47000000000E+01 0. -1.
         -5    1    3    3    0  503  0.46308709578E+01  0.19947051015E+02 -0.85219659817E+02  0.87771351985E+02  0.47000000000E+01 0.  1.
<mgrwt>
<rscale>  0 0.97976696E+02</rscale>
<asrwt>0</asrwt>
<pdfrwt beam="1">  1        1 0.12775935E-02 0.97976696E+02</pdfrwt>
<pdfrwt beam="2">  1       -1 0.44459664E-01 0.97976696E+02</pdfrwt>
<totfact> 0.50905581E+04</totfact>
</mgrwt>
</event>
<event>
 7    1  0.1028619E-012  0.9061111E+02  0.7546771E-02  0.1301379E+00
          1   -1    0    0  501    0  0.00000000000E+00  0.00000000000E+00  0.23750084670E+03  0.23750084670E+03  0.00000000000E+00 0. -1.
         -1   -1    0    0    0  501 -0.00000000000E+00 -0.00000000000E+00 -0.86424681799E+01  0.86424681799E+01  0.00000000000E+00 0.  1.
         23    2    1    2    0    0  0.17763568394E-14 -0.35527136788E-14  0.22885837852E+03  0.24614331488E+03  0.90611114336E+02 0.  0.
          5    1    3    3  502    0  0.15660386354E+02  0.12841294601E+02  0.45045882913E+02  0.49612177086E+02  0.47000000000E+01 0. -1.
         -5    1    3    3    0  503  0.12892645473E+01 -0.21750667193E+02  0.49775981437E+02  0.54538904045E+02  0.47000000000E+01 0.  1.
          5    1    3    3  503    0  0.65712855092E+01  0.19135548637E+02  0.61252381691E+02  0.64678398850E+02  0.47000000000E+01 0. -1.
         -5    1    3    3    0  502 -0.23520936411E+02 -0.10226176045E+02  0.72784132478E+02  0.77313834899E+02  0.47000000000E+01 0.  1.
<mgrwt>
<rscale>  0 0.90611114E+02</rscale>
<asrwt>0</asrwt>
<pdfrwt beam="1">  1        1 0.36538587E-01 0.90611114E+02</pdfrwt>
<pdfrwt beam="2">  1       -1 0.13296107E-02 0.90611114E+02</pdfrwt>
<totfact> 0.12449263E+05</totfact>
</mgrwt>
</event>
<event>
 7    1  0.1028619E-012  0.9788898E+02  0.7546771E-02  0.1284799E+00
         -2   -1    0    0    0  501 -0.00000000000E+00  0.00000000000E+00  0.42595572064E+02  0.42595572064E+02  0.00000000000E+00 0. -1.
          2   -1    0    0  501    0  0.00000000000E+00 -0.00000000000E+00 -0.56239726114E+02  0.56239726114E+02  0.00000000000E+00 0.  1.
         23    2    1    2    0    0  0.17763568394E-14  0.00000000000E+00 -0.13644154050E+02  0.98835298178E+02  0.97888984192E+02 0.  0.
          5    1    3    3  502    0  0.67539757296E+01 -0.21911713259E+02  0.93372407734E+01  0.25199472839E+02  0.47000000000E+01 0.  1.
         -5    1    3    3    0  503 -0.73654984227E+01  0.25002608737E+02 -0.13787307944E+02  0.29859016578E+02  0.47000000000E+01 0. -1.
          5    1    3    3  503    0  0.21005989589E+02 -0.38037509464E+01 -0.46002257533E+01  0.22337685576E+02  0.47000000000E+01 0. -1.
         -5    1    3    3    0  502 -0.20394466896E+02  0.71285546856E+00 -0.45938611259E+01  0.21439123185E+02  0.47000000000E+01 0.  1.
<mgrwt>
<rscale>  0 0.97888984E+02</rscale>
<asrwt>0</asrwt>
<pdfrwt beam="1">  1        2 0.86522656E-02 0.97888984E+02</pdfrwt>
<pdfrwt beam="2">  1       -2 0.65531649E-02 0.97888984E+02</pdfrwt>
<totfact> 0.85131487E+04</totfact>
</mgrwt>
</event>
<event>
 7    1  0.1028619E-012  0.9629932E+02  0.7546771E-02  0.1288276E+00
          2   -1    0    0  501    0  0.00000000000E+00  0.00000000000E+00  0.41994976451E+02  0.41994976451E+02  0.00000000000E+00 0. -1.
         -2   -1    0    0    0  501 -0.00000000000E+00 -0.00000000000E+00 -0.55206359985E+02  0.55206359985E+02  0.00000000000E+00 0.  1.
         23    2    1    2    0    0  0.00000000000E+00  0.00000000000E+00 -0.13211383534E+02  0.97201336435E+02  0.96299320610E+02 0.  0.
          5    1    3    3  502    0 -0.70456485546E+01  0.19135687561E+02 -0.15731070398E+02  0.26179615693E+02  0.47000000000E+01 0. -1.
         -5    1    3    3    0  503  0.15938020157E+02  0.17450678659E+02 -0.34199064007E+01  0.24337880597E+02  0.47000000000E+01 0.  1.
          5    1    3    3  503    0 -0.14785159638E+02 -0.14154452428E+02 -0.33402651769E+01  0.21264920421E+02  0.47000000000E+01 0.  1.
         -5    1    3    3    0  502  0.58927880355E+01 -0.22431913793E+02  0.92798584415E+01  0.25418919724E+02  0.47000000000E+01 0. -1.
<mgrwt>
<rscale>  0 0.96299321E+02</rscale>
<asrwt>0</asrwt>
<pdfrwt beam="1">  1        2 0.64607656E-02 0.96299321E+02</pdfrwt>
<pdfrwt beam="2">  1       -2 0.84932862E-02 0.96299321E+02</pdfrwt>
<totfact> 0.82411680E+04</totfact>
</mgrwt>
</event>
<event>
 7    1  0.1028619E-012  0.9210482E+02  0.7546771E-02  0.1297833E+00
          1   -1    0    0  501    0  0.00000000000E+00  0.00000000000E+00  0.67357883591E+03  0.67357883591E+03  0.00000000000E+00 0. -1.
         -1   -1    0    0    0  501 -0.00000000000E+00 -0.00000000000E+00 -0.31485912178E+01  0.31485912178E+01  0.00000000000E+00 0.  1.
         23    2    1    2    0    0 -0.35527136788E-14  0.88817841970E-15  0.67043024469E+03  0.67672742713E+03  0.92104818707E+02 0.  0.
          5    1    3    3  502    0  0.10001569141E+02  0.17830758574E+02  0.13020126112E+03  0.13188034628E+03  0.47000000000E+01 0.  1.
         -5    1    3    3    0  502 -0.10990075753E+02 -0.18405090070E+02  0.19109343263E+03  0.19234947127E+03  0.47000000000E+01 0. -1.
          5    1    3    3  503    0 -0.23187617376E+02  0.24552586463E+01  0.16104177500E+03  0.16278893448E+03  0.47000000000E+01 0. -1.
         -5    1    3    3    0  503  0.24176123988E+02 -0.18809271504E+01  0.18809377594E+03  0.18970867509E+03  0.47000000000E+01 0.  1.
<mgrwt>
<rscale>  0 0.92104819E+02</rscale>
<asrwt>0</asrwt>
<pdfrwt beam="1">  1        1 0.10362740E+00 0.92104819E+02</pdfrwt>
<pdfrwt beam="2">  1       -1 0.48439919E-03 0.92104819E+02</pdfrwt>
<totfact> 0.13841264E+05</totfact>
</mgrwt>
</event>
<event>
 7    1  0.1028619E-012  0.9818430E+02  0.7546771E-02  0.1284161E+00
         -1   -1    0    0    0  501 -0.00000000000E+00  0.00000000000E+00  0.14206132109E+02  0.14206132109E+02  0.00000000000E+00 0.  1.
          1   -1    0    0  501    0  0.00000000000E+00 -0.00000000000E+00 -0.16964781747E+03  0.16964781747E+03  0.00000000000E+00 0. -1.
         23    2    1    2    0    0  0.00000000000E+00  0.00000000000E+00 -0.15544168536E+03  0.18385394958E+03  0.98184302351E+02 0.  0.
          5    1    3    3  502    0  0.23615500110E+02  0.71179506502E+01 -0.23775825781E+02  0.34579429702E+02  0.47000000000E+01 0. -1.
         -5    1    3    3    0  503  0.19774035384E+02 -0.12061906135E+02 -0.35573839770E+02  0.42709368188E+02  0.47000000000E+01 0.  1.
          5    1    3    3  503    0 -0.22197597929E+02  0.51821789130E+01 -0.61144838578E+02  0.65424533753E+02  0.47000000000E+01 0. -1.
         -5    1    3    3    0  502 -0.21191937565E+02 -0.23822342867E+00 -0.34947181233E+02  0.41140617938E+02  0.47000000000E+01 0. -1.
<mgrwt>
<rscale>  0 0.98184302E+02</rscale>
<asrwt>0</asrwt>
<pdfrwt beam="1">  1        1 0.26099664E-01 0.98184302E+02</pdfrwt>
<pdfrwt beam="2">  1       -1 0.21855588E-02 0.98184302E+02</pdfrwt>
<totfact> 0.93914983E+04</totfact>
</mgrwt>
</event>
<event>
 7    1  0.1028619E-012  0.9303691E+02  0.7546771E-02  0.1295660E+00
         -2   -1    0    0    0  501 -0.00000000000E+00  0.00000000000E+00  0.43485155924E+01  0.43485155924E+01  0.00000000000E+00 0.  1.
          2   -1    0    0  501    0  0.00000000000E+00 -0.00000000000E+00 -0.49763345007E+03  0.49763345007E+03  0.00000000000E+00 0. -1.
         23    2    1    2    0    0  0.35527136788E-14  0.00000000000E+00 -0.49328493448E+03  0.50198196566E+03  0.93036913468E+02 0.  0.
          5    1    3    3  502    0  0.19569086297E+02 -0.78523103323E+01 -0.64242214104E+02  0.67777282248E+02  0.47000000000E+01 0.  1.
         -5    1    3    3    0  502 -0.20754880966E+02  0.73799202908E+01 -0.18932999266E+03  0.19066505823E+03  0.47000000000E+01 0. -1.
          5    1    3    3  503    0  0.17423832968E+02 -0.11992672560E+02 -0.10657787112E+03  0.10875820320E+03  0.47000000000E+01 0. -1.
         -5    1    3    3    0  503 -0.16238038299E+02  0.12465062601E+02 -0.13313485659E+03  0.13478142199E+03  0.47000000000E+01 0.  1.
<mgrwt>
<rscale>  0 0.93036913E+02</rscale>
<asrwt>0</asrwt>
<pdfrwt beam="1">  1        2 0.76558994E-01 0.93036913E+02</pdfrwt>
<pdfrwt beam="2">  1       -2 0.66900238E-03 0.93036913E+02</pdfrwt>
<totfact> 0.20394920E+05</totfact>
</mgrwt>
</event>
<event>
 7    1  0.1028619E-012  0.9538444E+02  0.7546771E-02  0.1290313E+00
         -1   -1    0    0    0  501 -0.00000000000E+00  0.00000000000E+00  0.53954689942E+02  0.53954689942E+02  0.00000000000E+00 0.  1.
          1   -1    0    0  501    0  0.00000000000E+00 -0.00000000000E+00 -0.42156629014E+02  0.42156629014E+02  0.00000000000E+00 0. -1.
         23    2    1    2    0    0  0.17763568394E-14  0.17763568394E-14  0.11798060928E+02  0.96111318956E+02  0.95384439977E+02 0.  0.
          5    1    3    3  502    0  0.14255998703E+02 -0.15016528042E+02  0.24427795422E+00  0.21233918271E+02  0.47000000000E+01 0.  1.
         -5    1    3    3    0  502 -0.19255812644E+02  0.12852327887E+02 -0.47359601795E+01  0.24093317985E+02  0.47000000000E+01 0. -1.
          5    1    3    3  503    0 -0.48913219595E+01 -0.20265522175E+02  0.14364436209E+02  0.25749630039E+02  0.47000000000E+01 0. -1.
         -5    1    3    3    0  503  0.98911359006E+01  0.22429722330E+02  0.19253069440E+01  0.25034452661E+02  0.47000000000E+01 0.  1.
<mgrwt>
<rscale>  0 0.95384440E+02</rscale>
<asrwt>0</asrwt>
<pdfrwt beam="1">  1        1 0.64856352E-02 0.95384440E+02</pdfrwt>
<pdfrwt beam="2">  1       -1 0.83007216E-02 0.95384440E+02</pdfrwt>
<totfact> 0.80431867E+04</totfact>
</mgrwt>
</event>
<event>
 7    1  0.1028619E-012  0.9377357E+02  0.7546771E-02  0.1293962E+00
          2   -1    0    0  501    0  0.00000000000E+00  0.00000000000E+00  0.45320316614E+03  0.45320316614E+03  0.00000000000E+00 0. -1.
         -2   -1    0    0    0  501 -0.00000000000E+00 -0.00000000000E+00 -0.48507395750E+01  0.48507395750E+01  0.00000000000E+00 0.  1.
         23    2    1    2    0    0 -0.17763568394E-14  0.88817841970E-15  0.44835242657E+03  0.45805390572E+03  0.93773568420E+02 0.  0.
          5    1    3    3  502    0  0.15117613383E+01 -0.20015720243E+02  0.91932051358E+02  0.94215213985E+02  0.47000000000E+01 0. -1.
         -5    1    3    3    0  503  0.20369530147E+02 -0.49408781179E+01  0.14267327732E+03  0.14428126731E+03  0.47000000000E+01 0.  1.
          5    1    3    3  503    0 -0.25013734870E+02  0.15138971434E+01  0.93348042572E+02  0.96767380190E+02  0.47000000000E+01 0. -1.
         -5    1    3    3    0  502  0.31324433847E+01  0.23442701218E+02  0.12039905532E+03  0.12279004423E+03  0.47000000000E+01 0.  1.
<mgrwt>
<rscale>  0 0.93773568E+02</rscale>
<asrwt>0</asrwt>
<pdfrwt beam="1">  1        2 0.69723531E-01 0.93773568E+02</pdfrwt>
<pdfrwt beam="2">  1       -2 0.74626798E-03 0.93773568E+02</pdfrwt>
<totfact> 0.19356137E+05</totfact>
</mgrwt>
</event>
<event>
 7    1  0.1028619E-012  0.1000399E+03  0.7546771E-02  0.1280212E+00
          1   -1    0    0  501    0  0.00000000000E+00  0.00000000000E+00  0.13482392109E+02  0.13482392109E+02  0.00000000000E+00 0. -1.
         -1   -1    0    0    0  501 -0.00000000000E+00 -0.00000000000E+00 -0.18557501080E+03  0.18557501080E+03  0.00000000000E+00 0.  1.
         23    2    1    2    0    0  0.17763568394E-14  0.00000000000E+00 -0.17209261869E+03  0.19905740291E+03  0.10003989327E+03 0.  0.
          5    1    3    3  502    0 -0.16076548965E+02  0.22241207253E+02 -0.35358685063E+02  0.45005036786E+02  0.47000000000E+01 0. -1.
         -5    1    3    3    0  502  0.15853044278E+02 -0.17395292880E+02 -0.63157232437E+02  0.67563608816E+02  0.47000000000E+01 0.  1.
          5    1    3    3  503    0  0.15277337962E+02  0.13072130565E+02 -0.25493974232E+02  0.32807169565E+02  0.47000000000E+01 0. -1.
         -5    1    3    3    0  503 -0.15053833275E+02 -0.17918044938E+02 -0.48082726962E+02  0.53681587744E+02  0.47000000000E+01 0.  1.
<mgrwt>
<rscale>  0 0.10003989E+03</rscale>
<asrwt>0</asrwt>
<pdfrwt beam="1">  1        1 0.20742141E-02 0.10003989E+03</pdfrwt>
<pdfrwt beam="2">  1       -1 0.28550003E-01 0.10003989E+03</pdfrwt>
<totfact> 0.55637886E+04</totfact>
</mgrwt>
</event>
<event>
 7    1  0.1028619E-012  0.9876834E+02  0.7546771E-02  0.1282907E+00
         -2   -1    0    0    0  501 -0.00000000000E+00  0.00000000000E+00  0.43252043165E+01  0.43252043165E+01  0.00000000000E+00 0.  1.
          2   -1    0    0  501    0  0.00000000000E+00 -0.00000000000E+00 -0.56385687582E+03  0.56385687582E+03  0.00000000000E+00 0. -1.
         23    2    1    2    0    0 -0.13322676296E-14  0.17763568394E-14 -0.55953167150E+03  0.56818208013E+03  0.98768338918E+02 0.  0.
          5    1    3    3  502    0  0.48507894669E+01  0.25773943302E+02 -0.13406246418E+03  0.13668452953E+03  0.47000000000E+01 0. -1.
         -5    1    3    3    0  503 -0.17171633845E+02 -0.17704771508E+02 -0.20192148735E+03  0.20347653672E+03  0.47000000000E+01 0. -1.
          5    1    3    3  503    0  0.15452998945E+02  0.13308897790E+02 -0.14177885248E+03  0.14331522929E+03  0.47000000000E+01 0.  1.
         -5    1    3    3    0  502 -0.31321545665E+01 -0.21378069583E+02 -0.81768867493E+02  0.84705784586E+02  0.47000000000E+01 0.  1.
<mgrwt>
<rscale>  0 0.98768339E+02</rscale>
<asrwt>0</asrwt>
<pdfrwt beam="1">  1        2 0.86747211E-01 0.98768339E+02</pdfrwt>
<pdfrwt beam="2">  1       -2 0.66541606E-03 0.98768339E+02</pdfrwt>
<totfact> 0.18095701E+05</totfact>
</mgrwt>
</event>
<event>
 7    1  0.1028619E-012  0.1029046E+03  0.7546771E-02  0.1274304E+00
         -2   -1    0    0    0  501 -0.00000000000E+00  0.00000000000E+00  0.60025688665E+03  0.60025688665E+03  0.00000000000E+00 0.  1.
          2   -1    0    0  501    0  0.00000000000E+00 -0.00000000000E+00 -0.44103463919E+01  0.44103463919E+01  0.00000000000E+00 0. -1.
         23    2    1    2    0    0  0.44408920985E-15 -0.35527136788E-14  0.59584654026E+03  0.60466723304E+03  0.10290463147E+03 0.  0.
          5    1    3    3  502    0 -0.22704782842E+02 -0.45376111427E+01  0.10905557655E+03  0.11158541955E+03  0.47000000000E+01 0. -1.
         -5    1    3    3    0  503 -0.52620218346E+01  0.21128606971E+02  0.84646555658E+02  0.87528488454E+02  0.47000000000E+01 0. -1.
          5    1    3    3  503    0  0.39689363958E+01 -0.24772665085E+02  0.15766752503E+03  0.15972030503E+03  0.47000000000E+01 0.  1.
         -5    1    3    3    0  502  0.23997868280E+02  0.81816692573E+01  0.24447688302E+03  0.24583302001E+03  0.47000000000E+01 0.  1.
<mgrwt>
<rscale>  0 0.10290463E+03</rscale>
<asrwt>0</asrwt>
<pdfrwt beam="1">  1        2 0.67851530E-03 0.10290463E+03</pdfrwt>
<pdfrwt beam="2">  1       -2 0.92347149E-01 0.10290463E+03</pdfrwt>
<totfact> 0.22803615E+04</totfact>
</mgrwt>
</event>
<event>
 7    1  0.1028619E-012  0.1022868E+03  0.7546771E-02  0.1275559E+00
         -1   -1    0    0    0  501 -0.00000000000E+00  0.00000000000E+00  0.60916635530E+02  0.60916635530E+02  0.00000000000E+00 0.  1.
          1   -1    0    0  501    0  0.00000000000E+00 -0.00000000000E+00 -0.42938106711E+02  0.42938106711E+02  0.00000000000E+00 0. -1.
         23    2    1    2    0    0 -0.88817841970E-15  0.00000000000E+00  0.17978528819E+02  0.10385474224E+03  0.10228675372E+03 0.  0.
          5    1    3    3  502    0  0.46317244295E+01 -0.23154127210E+02 -0.29447450433E+00  0.24077856908E+02  0.47000000000E+01 0. -1.
         -5    1    3    3    0  503  0.16079618716E+02  0.24450685357E+02  0.89215160357E+00  0.29652589887E+02  0.47000000000E+01 0. -1.
          5    1    3    3  503    0 -0.14169817586E+02 -0.20978117820E+02  0.96209413071E+01  0.27486681672E+02  0.47000000000E+01 0.  1.
         -5    1    3    3    0  502 -0.65415255596E+01  0.19681559673E+02  0.77599104129E+01  0.22637613775E+02  0.47000000000E+01 0.  1.
<mgrwt>
<rscale>  0 0.10228675E+03</rscale>
<asrwt>0</asrwt>
<pdfrwt beam="1">  1        1 0.66058625E-02 0.10228675E+03</pdfrwt>
<pdfrwt beam="2">  1       -1 0.93717902E-02 0.10228675E+03</pdfrwt>
<totfact> 0.66076535E+04</totfact>
</mgrwt>
</event>
<event>
 7    1  0.1028619E-012  0.1009415E+03  0.7546771E-02  0.1278328E+00
          2   -1    0    0  501    0  0.00000000000E+00  0.00000000000E+00  0.34328345024E+02  0.34328345024E+02  0.00000000000E+00 0. -1.
         -2   -1    0    0    0  501 -0.00000000000E+00 -0.00000000000E+00 -0.74203955128E+02  0.74203955128E+02  0.00000000000E+00 0.  1.
         23    2    1    2    0    0  0.00000000000E+00  0.88817841970E-15 -0.39875610104E+02  0.10853230015E+03  0.10094154692E+03 0.  0.
          5    1    3    3  502    0  0.25854645854E+02  0.35013088497E+01  0.42032050041E+01  0.26841736311E+02  0.47000000000E+01 0. -1.
         -5    1    3    3    0  503  0.18626002364E+02 -0.78304246853E+01 -0.11102485577E+02  0.23528678263E+02  0.47000000000E+01 0. -1.
          5    1    3    3  503    0 -0.24519705532E+02  0.67567543090E+01 -0.25157232101E+02  0.36081103297E+02  0.47000000000E+01 0.  1.
         -5    1    3    3    0  502 -0.19960942686E+02 -0.24276384735E+01 -0.78190974300E+01  0.22080782280E+02  0.47000000000E+01 0.  1.
<mgrwt>
<rscale>  0 0.10094155E+03</rscale>
<asrwt>0</asrwt>
<pdfrwt beam="1">  1        2 0.52812840E-02 0.10094155E+03</pdfrwt>
<pdfrwt beam="2">  1       -2 0.11415993E-01 0.10094155E+03</pdfrwt>
<totfact> 0.67758030E+04</totfact>
</mgrwt>
</event>
<event>
 7    1  0.1028619E-012  0.9087076E+02  0.7546771E-02  0.1300757E+00
          1   -1    0    0  501    0  0.00000000000E+00  0.00000000000E+00  0.56131546773E+03  0.56131546773E+03  0.00000000000E+00 0. -1.
         -1   -1    0    0    0  501 -0.00000000000E+00 -0.00000000000E+00 -0.36777425084E+01  0.36777425084E+01  0.00000000000E+00 0.  1.
         23    2    1    2    0    0  0.00000000000E+00  0.00000000000E+00  0.55763772522E+03  0.56499321024E+03  0.90870760012E+02 0.  0.
          5    1    3    3  502    0  0.20775776630E+02 -0.88594575871E+01  0.20478359189E+03  0.20607894699E+03  0.47000000000E+01 0. -1.
         -5    1    3    3    0  503 -0.20017142056E+02 -0.25892342038E+01  0.88668466408E+02  0.91058097087E+02  0.47000000000E+01 0. -1.
          5    1    3    3  503    0  0.20185097407E+02  0.71045018748E+01  0.11453918399E+03  0.11661572267E+03  0.47000000000E+01 0.  1.
         -5    1    3    3    0  502 -0.20943731981E+02  0.43441899161E+01  0.14964648293E+03  0.15124044350E+03  0.47000000000E+01 0.  1.
<mgrwt>
<rscale>  0 0.90870760E+02</rscale>
<asrwt>0</asrwt>
<pdfrwt beam="1">  1        1 0.86356158E-01 0.90870760E+02</pdfrwt>
<pdfrwt beam="2">  1       -1 0.56580698E-03 0.90870760E+02</pdfrwt>
<totfact> 0.14216994E+05</totfact>
</mgrwt>
</event>
<event>
 7    1  0.1028619E-012  0.9351758E+02  0.7546771E-02  0.1294550E+00
          4   -1    0    0  501    0  0.00000000000E+00  0.00000000000E+00  0.14240375477E+03  0.14240375477E+03  0.00000000000E+00 0. -1.
         -4   -1    0    0    0  501 -0.00000000000E+00 -0.00000000000E+00 -0.15353417321E+02  0.15353417321E+02  0.00000000000E+00 0.  1.
         23    2    1    2    0    0  0.00000000000E+00 -0.17763568394E-14  0.12705033745E+03  0.15775717209E+03  0.93517576423E+02 0.  0.
          5    1    3    3  502    0  0.19921368507E+02  0.44539960877E+01  0.50094733083E+02  0.54297986031E+02  0.47000000000E+01 0.  1.
         -5    1    3    3    0  503 -0.21519520149E+02 -0.11189157572E+02  0.34060053901E+02  0.42076885179E+02  0.47000000000E+01 0. -1.
          5    1    3    3  503    0  0.20806236355E+02 -0.34990882285E+01  0.20104157453E+02  0.29519658477E+02  0.47000000000E+01 0. -1.
         -5    1    3    3    0  502 -0.19208084713E+02  0.10234249713E+02  0.22791393013E+02  0.31862642405E+02  0.47000000000E+01 0.  1.
<mgrwt>
<rscale>  0 0.93517576E+02</rscale>
<asrwt>0</asrwt>
<pdfrwt beam="1">  1        4 0.21908269E-01 0.93517576E+02</pdfrwt>
<pdfrwt beam="2">  1       -4 0.23620643E-02 0.93517576E+02</pdfrwt>
<totfact> 0.21750180E+04</totfact>
</mgrwt>
</event>
<event>
 7    1  0.1028619E-012  0.9110187E+02  0.7546771E-02  0.1300205E+00
          2   -1    0    0  501    0  0.00000000000E+00  0.00000000000E+00  0.11029691326E+03  0.11029691326E+03  0.00000000000E+00 0.  1.
         -2   -1    0    0    0  501 -0.00000000000E+00 -0.00000000000E+00 -0.18811837656E+02  0.18811837656E+02  0.00000000000E+00 0. -1.
         23    2    1    2    0    0 -0.17763568394E-14 -0.17763568394E-14  0.91485075605E+02  0.12910875092E+03  0.91101868834E+02 0.  0.
          5    1    3    3  502    0 -0.20470412985E+02  0.57374830397E+01  0.18836919022E+02  0.28790207322E+02  0.47000000000E+01 0. -1.
         -5    1    3    3    0  502  0.14011439041E+02 -0.16692700326E+02  0.27517716754E+02  0.35415835491E+02  0.47000000000E+01 0. -1.
          5    1    3    3  503    0 -0.17171240371E+02  0.11517987015E+02  0.28911719343E+02  0.35853772969E+02  0.47000000000E+01 0.  1.
         -5    1    3    3    0  503  0.23630214314E+02 -0.56276972932E+00  0.16218720486E+02  0.29048935136E+02  0.47000000000E+01 0.  1.
<mgrwt>
<rscale>  0 0.91101869E+02</rscale>
<asrwt>0</asrwt>
<pdfrwt beam="1">  1        2 0.16968755E-01 0.91101869E+02</pdfrwt>
<pdfrwt beam="2">  1       -2 0.28941289E-02 0.91101869E+02</pdfrwt>
<totfact> 0.12673034E+05</totfact>
</mgrwt>
</event>
<event>
 7    1  0.1028619E-012  0.9256410E+02  0.7546771E-02  0.1296759E+00
         -1   -1    0    0    0  501 -0.00000000000E+00  0.00000000000E+00  0.13029096555E+02  0.13029096555E+02  0.00000000000E+00 0.  1.
          1   -1    0    0  501    0  0.00000000000E+00 -0.00000000000E+00 -0.16440344330E+03  0.16440344330E+03  0.00000000000E+00 0. -1.
         23    2    1    2    0    0 -0.35527136788E-14  0.35527136788E-14 -0.15137434675E+03  0.17743253986E+03  0.92564103987E+02 0.  0.
          5    1    3    3  502    0 -0.63471998425E+01  0.19983610224E+02 -0.40746963546E+02  0.46065569155E+02  0.47000000000E+01 0. -1.
         -5    1    3    3    0  503  0.31440117088E+01 -0.24425094102E+02 -0.52905822973E+02  0.58545590235E+02  0.47000000000E+01 0.  1.
          5    1    3    3  503    0 -0.15449930265E+02  0.13854275608E+02 -0.18781622242E+02  0.28380990678E+02  0.47000000000E+01 0. -1.
         -5    1    3    3    0  502  0.18653118399E+02 -0.94127917302E+01 -0.38939937986E+02  0.44440389788E+02  0.47000000000E+01 0.  1.
<mgrwt>
<rscale>  0 0.92564104E+02</rscale>
<asrwt>0</asrwt>
<pdfrwt beam="1">  1        1 0.25292836E-01 0.92564104E+02</pdfrwt>
<pdfrwt beam="2">  1       -1 0.20044765E-02 0.92564104E+02</pdfrwt>
<totfact> 0.10950544E+05</totfact>
</mgrwt>
</event>
<event>
 7    1  0.1028619E-012  0.9343504E+02  0.7546771E-02  0.1294740E+00
         -3   -1    0    0    0  501 -0.00000000000E+00  0.00000000000E+00  0.91442777387E+02  0.91442777387E+02  0.00000000000E+00 0.  1.
          3   -1    0    0  501    0  0.00000000000E+00 -0.00000000000E+00 -0.23867678256E+02  0.23867678256E+02  0.00000000000E+00 0. -1.
         23    2    1    2    0    0  0.00000000000E+00  0.00000000000E+00  0.67575099131E+02  0.11531045564E+03  0.93435042452E+02 0.  0.
          5    1    3    3  502    0 -0.19279653194E+02 -0.10585285388E+02  0.11298701496E+02  0.25169504356E+02  0.47000000000E+01 0.  1.
         -5    1    3    3    0  502  0.21958041884E+02 -0.20108661437E+01  0.28589465069E+02  0.36409431456E+02  0.47000000000E+01 0. -1.
          5    1    3    3  503    0 -0.22888404315E+02  0.77920283041E+01  0.16774334239E+02  0.29800386681E+02  0.47000000000E+01 0. -1.
         -5    1    3    3    0  503  0.20210015625E+02  0.48041232277E+01  0.10912598326E+02  0.23931133149E+02  0.47000000000E+01 0.  1.
<mgrwt>
<rscale>  0 0.93435042E+02</rscale>
<asrwt>0</asrwt>
<pdfrwt beam="1">  1        3 0.36719506E-02 0.93435042E+02</pdfrwt>
<pdfrwt beam="2">  1       -3 0.14068119E-01 0.93435042E+02</pdfrwt>
<totfact> 0.31406520E+04</totfact>
</mgrwt>
</event>
<event>
 7    1  0.1028619E-012  0.9287150E+02  0.7546771E-02  0.1296043E+00
          1   -1    0    0  501    0  0.00000000000E+00  0.00000000000E+00  0.36656390022E+02  0.36656390022E+02  0.00000000000E+00 0. -1.
         -1   -1    0    0    0  501 -0.00000000000E+00 -0.00000000000E+00 -0.58824090552E+02  0.58824090552E+02  0.00000000000E+00 0.  1.
         23    2    1    2    0    0  0.00000000000E+00  0.00000000000E+00 -0.22167700530E+02  0.95480480574E+02  0.92871498447E+02 0.  0.
          5    1    3    3  502    0 -0.22701855708E+02 -0.24455122049E+01 -0.97294658458E+01  0.25260785581E+02  0.47000000000E+01 0. -1.
         -5    1    3    3    0  503  0.73578874915E+01  0.20213538630E+02 -0.51328501410E+01  0.22608887696E+02  0.47000000000E+01 0.  1.
          5    1    3    3  503    0 -0.55368375769E+01 -0.22975959797E+02 -0.84973521800E+01  0.25550856992E+02  0.47000000000E+01 0. -1.
         -5    1    3    3    0  502  0.20880805794E+02  0.52079333720E+01  0.11919676368E+01  0.22059950305E+02  0.47000000000E+01 0.  1.
<mgrwt>
<rscale>  0 0.92871498E+02</rscale>
<asrwt>0</asrwt>
<pdfrwt beam="1">  1        1 0.56394446E-02 0.92871498E+02</pdfrwt>
<pdfrwt beam="2">  1       -1 0.90498600E-02 0.92871498E+02</pdfrwt>
<totfact> 0.84894743E+04</totfact>
</mgrwt>
</event>
<event>
 7    1  0.1028619E-012  0.1022067E+03  0.7546771E-02  0.1275723E+00
         -2   -1    0    0    0  501 -0.00000000000E+00  0.00000000000E+00  0.18277790104E+02  0.18277790104E+02  0.00000000000E+00 0.  1.
          2   -1    0    0  501    0  0.00000000000E+00 -0.00000000000E+00 -0.14288110407E+03  0.14288110407E+03  0.00000000000E+00 0. -1.
         23    2    1    2    0    0  0.00000000000E+00  0.00000000000E+00 -0.12460331397E+03  0.16115889418E+03  0.10220666965E+03 0.  0.
          5    1    3    3  502    0 -0.89609649426E+01  0.19343165595E+02 -0.13527153948E+02  0.25681332556E+02  0.47000000000E+01 0. -1.
         -5    1    3    3    0  503  0.11395816072E+02 -0.16871758667E+02 -0.50598891806E+02  0.54743572376E+02  0.47000000000E+01 0.  1.
          5    1    3    3  503    0  0.11320526737E+02  0.19967389882E+02 -0.14514918600E+02  0.27561274394E+02  0.47000000000E+01 0.  1.
         -5    1    3    3    0  502 -0.13755377867E+02 -0.22438796809E+02 -0.45962349616E+02  0.53172714852E+02  0.47000000000E+01 0. -1.
<mgrwt>
<rscale>  0 0.10220667E+03</rscale>
<asrwt>0</asrwt>
<pdfrwt beam="1">  1        2 0.21981708E-01 0.10220667E+03</pdfrwt>
<pdfrwt beam="2">  1       -2 0.28119678E-02 0.10220667E+03</pdfrwt>
<totfact> 0.10057320E+05</totfact>
</mgrwt>
</event>
<event>
 7    1  0.1028619E-012  0.9351545E+02  0.7546771E-02  0.1294555E+00
          2   -1    0    0  501    0  0.00000000000E+00  0.00000000000E+00  0.46931051777E+03  0.46931051777E+03  0.00000000000E+00 0. -1.
         -2   -1    0    0    0  501 -0.00000000000E+00 -0.00000000000E+00 -0.46585037051E+01  0.46585037051E+01  0.00000000000E+00 0.  1.
         23    2    1    2    0    0  0.00000000000E+00  0.35527136788E-14  0.46465201406E+03  0.47396902147E+03  0.93515448689E+02 0.  0.
          5    1    3    3  502    0 -0.31747586732E+01 -0.20430897712E+02  0.17480988324E+03  0.17609112968E+03  0.47000000000E+01 0. -1.
         -5    1    3    3    0  502 -0.19338081732E+01  0.24179164993E+02  0.10799869871E+03  0.11078890087E+03  0.47000000000E+01 0. -1.
          5    1    3    3  503    0  0.15180571640E+02  0.13530916946E+02  0.12308886716E+03  0.12484588374E+03  0.47000000000E+01 0.  1.
         -5    1    3    3    0  503 -0.10072004794E+02 -0.17279184227E+02  0.58754564961E+02  0.62243107184E+02  0.47000000000E+01 0.  1.
<mgrwt>
<rscale>  0 0.93515449E+02</rscale>
<asrwt>0</asrwt>
<pdfrwt beam="1">  1        2 0.72201581E-01 0.93515449E+02</pdfrwt>
<pdfrwt beam="2">  1       -2 0.71669325E-03 0.93515449E+02</pdfrwt>
<totfact> 0.19731364E+05</totfact>
</mgrwt>
</event>
<event>
 7    1  0.1028619E-012  0.9460634E+02  0.7546771E-02  0.1292065E+00
         -3   -1    0    0    0  501 -0.00000000000E+00  0.00000000000E+00  0.36441297066E+03  0.36441297066E+03  0.00000000000E+00 0.  1.
          3   -1    0    0  501    0  0.00000000000E+00 -0.00000000000E+00 -0.61402590183E+01  0.61402590183E+01  0.00000000000E+00 0. -1.
         23    2    1    2    0    0 -0.88817841970E-15  0.17763568394E-14  0.35827271164E+03  0.37055322968E+03  0.94606342906E+02 0.  0.
          5    1    3    3  502    0 -0.16283144742E+02 -0.16143506390E+02  0.66522535624E+02  0.70520148519E+02  0.47000000000E+01 0. -1.
         -5    1    3    3    0  503 -0.32857209821E+01  0.24385513732E+02  0.14202853650E+03  0.14422081827E+03  0.47000000000E+01 0.  1.
          5    1    3    3  503    0  0.35771554843E+01 -0.20700579374E+02  0.61134440750E+02  0.64813732137E+02  0.47000000000E+01 0.  1.
         -5    1    3    3    0  502  0.15991710240E+02  0.12458572031E+02  0.88587198765E+02  0.90998530749E+02  0.47000000000E+01 0. -1.
<mgrwt>
<rscale>  0 0.94606343E+02</rscale>
<asrwt>0</asrwt>
<pdfrwt beam="1">  1        3 0.94465552E-03 0.94606343E+02</pdfrwt>
<pdfrwt beam="2">  1       -3 0.56063517E-01 0.94606343E+02</pdfrwt>
<totfact> 0.19490710E+04</totfact>
</mgrwt>
</event>
<event>
 7    1  0.1028619E-012  0.9636832E+02  0.7546771E-02  0.1288124E+00
          2   -1    0    0  501    0  0.00000000000E+00  0.00000000000E+00  0.49270210757E+03  0.49270210757E+03  0.00000000000E+00 0. -1.
         -2   -1    0    0    0  501 -0.00000000000E+00 -0.00000000000E+00 -0.47122050310E+01  0.47122050310E+01  0.00000000000E+00 0.  1.
         23    2    1    2    0    0 -0.35527136788E-14  0.00000000000E+00  0.48798990254E+03  0.49741431260E+03  0.96368321561E+02 0.  0.
          5    1    3    3  502    0  0.16351039188E+02  0.17336768008E+02  0.17221989225E+03  0.17392441259E+03  0.47000000000E+01 0. -1.
         -5    1    3    3    0  503 -0.11351675856E+02 -0.19145258290E+02  0.10430267699E+03  0.10675457783E+03  0.47000000000E+01 0. -1.
          5    1    3    3  503    0  0.19503328948E+02  0.80487938702E+01  0.87753008905E+02  0.90376122371E+02  0.47000000000E+01 0.  1.
         -5    1    3    3    0  502 -0.24502692280E+02 -0.62403035886E+01  0.12371432440E+03  0.12635919982E+03  0.47000000000E+01 0.  1.
<mgrwt>
<rscale>  0 0.96368322E+02</rscale>
<asrwt>0</asrwt>
<pdfrwt beam="1">  1        2 0.75800284E-01 0.96368322E+02</pdfrwt>
<pdfrwt beam="2">  1       -2 0.72495501E-03 0.96368322E+02</pdfrwt>
<totfact> 0.18513407E+05</totfact>
</mgrwt>
</event>
<event>
 7    1  0.1028619E-012  0.9290571E+02  0.7546771E-02  0.1295964E+00
         -2   -1    0    0    0  501 -0.00000000000E+00  0.00000000000E+00  0.91371333040E+02  0.91371333040E+02  0.00000000000E+00 0.  1.
          2   -1    0    0  501    0  0.00000000000E+00 -0.00000000000E+00 -0.23616464025E+02  0.23616464025E+02  0.00000000000E+00 0. -1.
         23    2    1    2    0    0  0.00000000000E+00 -0.17763568394E-14  0.67754869015E+02  0.11498779707E+03  0.92905711335E+02 0.  0.
          5    1    3    3  502    0 -0.12437715984E+02  0.16230758706E+02  0.13610323860E+02  0.25009302722E+02  0.47000000000E+01 0. -1.
         -5    1    3    3    0  502  0.16254507927E+02 -0.13454037180E+02  0.12526801822E+02  0.24984613431E+02  0.47000000000E+01 0.  1.
          5    1    3    3  503    0  0.10383725646E+02  0.17589259738E+02  0.31366648263E+02  0.37724798736E+02  0.47000000000E+01 0. -1.
         -5    1    3    3    0  503 -0.14200517589E+02 -0.20365981264E+02  0.10251095070E+02  0.27269082177E+02  0.47000000000E+01 0.  1.
<mgrwt>
<rscale>  0 0.92905711E+02</rscale>
<asrwt>0</asrwt>
<pdfrwt beam="1">  1        2 0.36333022E-02 0.92905711E+02</pdfrwt>
<pdfrwt beam="2">  1       -2 0.14057128E-01 0.92905711E+02</pdfrwt>
<totfact> 0.78219847E+04</totfact>
</mgrwt>
</event>
<event>
 7    1  0.1028619E-012  0.9150246E+02  0.7546771E-02  0.1299254E+00
         -1   -1    0    0    0  501 -0.00000000000E+00  0.00000000000E+00  0.11523803113E+03  0.11523803113E+03  0.00000000000E+00 0.  1.
          1   -1    0    0  501    0  0.00000000000E+00 -0.00000000000E+00 -0.18163924690E+02  0.18163924690E+02  0.00000000000E+00 0. -1.
         23    2    1    2    0    0 -0.44408920985E-15 -0.17763568394E-14  0.97074106438E+02  0.13340195582E+03  0.91502457209E+02 0.  0.
          5    1    3    3  502    0  0.16598349207E+01 -0.20113464627E+02  0.15161297452E+02  0.25676087157E+02  0.47000000000E+01 0. -1.
         -5    1    3    3    0  503 -0.15306651581E+02  0.14755524632E+02  0.11195954527E+02  0.24483841356E+02  0.47000000000E+01 0. -1.
          5    1    3    3  503    0  0.13436470474E+02 -0.15843698285E+02  0.43396025948E+02  0.48341147919E+02  0.47000000000E+01 0.  1.
         -5    1    3    3    0  502  0.21034618665E+00  0.21201638280E+02  0.27320828512E+02  0.34900879385E+02  0.47000000000E+01 0.  1.
<mgrwt>
<rscale>  0 0.91502457E+02</rscale>
<asrwt>0</asrwt>
<pdfrwt beam="1">  1        1 0.27944500E-02 0.91502457E+02</pdfrwt>
<pdfrwt beam="2">  1       -1 0.17728927E-01 0.91502457E+02</pdfrwt>
<totfact> 0.78449887E+04</totfact>
</mgrwt>
</event>
<event>
 7    1  0.1028619E-012  0.9366461E+02  0.7546771E-02  0.1294212E+00
         -3   -1    0    0    0  501 -0.00000000000E+00  0.00000000000E+00  0.13521354367E+03  0.13521354367E+03  0.00000000000E+00 0.  1.
          3   -1    0    0  501    0  0.00000000000E+00 -0.00000000000E+00 -0.16220748561E+02  0.16220748561E+02  0.00000000000E+00 0. -1.
         23    2    1    2    0    0  0.35527136788E-14 -0.88817841970E-15  0.11899279511E+03  0.15143429223E+03  0.93664612183E+02 0.  0.
          5    1    3    3  502    0 -0.19558707290E+02  0.94494830356E+01  0.43853394240E+02  0.49163461502E+02  0.47000000000E+01 0. -1.
         -5    1    3    3    0  503  0.18179608369E+02  0.10403892421E+02  0.21092234363E+02  0.30095040926E+02  0.47000000000E+01 0. -1.
          5    1    3    3  503    0 -0.19651617865E+02 -0.12447502227E+02  0.35950826414E+02  0.43077584847E+02  0.47000000000E+01 0.  1.
         -5    1    3    3    0  502  0.21030716786E+02 -0.74058732297E+01  0.18096340091E+02  0.29098204954E+02  0.47000000000E+01 0.  1.
<mgrwt>
<rscale>  0 0.93664612E+02</rscale>
<asrwt>0</asrwt>
<pdfrwt beam="1">  1        3 0.24954999E-02 0.93664612E+02</pdfrwt>
<pdfrwt beam="2">  1       -3 0.20802083E-01 0.93664612E+02</pdfrwt>
<totfact> 0.29019292E+04</totfact>
</mgrwt>
</event>
<event>
 7    1  0.1028619E-012  0.1021589E+03  0.7546771E-02  0.1275821E+00
         -1   -1    0    0    0  501 -0.00000000000E+00  0.00000000000E+00  0.19477094620E+02  0.19477094620E+02  0.00000000000E+00 0.  1.
          1   -1    0    0  501    0  0.00000000000E+00 -0.00000000000E+00 -0.13395778499E+03  0.13395778499E+03  0.00000000000E+00 0. -1.
         23    2    1    2    0    0 -0.22204460493E-14  0.00000000000E+00 -0.11448069037E+03  0.15343487961E+03  0.10215886556E+03 0.  0.
          5    1    3    3  502    0  0.23828259646E+02  0.48190176850E+01 -0.27766393279E+02  0.37203111227E+02  0.47000000000E+01 0. -1.
         -5    1    3    3    0  502 -0.21818681620E+02  0.43745065916E+01 -0.42644454620E+02  0.48330432291E+02  0.47000000000E+01 0.  1.
          5    1    3    3  503    0 -0.57270087605E+01 -0.29521128681E+02 -0.24878407498E+02  0.39310568904E+02  0.47000000000E+01 0. -1.
         -5    1    3    3    0  503  0.37174307345E+01  0.20327604404E+02 -0.19191434970E+02  0.28590767186E+02  0.47000000000E+01 0.  1.
<mgrwt>
<rscale>  0 0.10215887E+03</rscale>
<asrwt>0</asrwt>
<pdfrwt beam="1">  1        1 0.20608890E-01 0.10215887E+03</pdfrwt>
<pdfrwt beam="2">  1       -1 0.29964761E-02 0.10215887E+03</pdfrwt>
<totfact> 0.80578155E+04</totfact>
</mgrwt>
</event>
<event>
 7    1  0.1028619E-012  0.9867089E+02  0.7546771E-02  0.1283116E+00
          1   -1    0    0  501    0  0.00000000000E+00  0.00000000000E+00  0.12879190412E+02  0.12879190412E+02  0.00000000000E+00 0. -1.
         -1   -1    0    0    0  501 -0.00000000000E+00 -0.00000000000E+00 -0.18898593917E+03  0.18898593917E+03  0.00000000000E+00 0.  1.
         23    2    1    2    0    0 -0.35527136788E-14  0.17763568394E-14 -0.17610674876E+03  0.20186512959E+03  0.98670885187E+02 0.  0.
          5    1    3    3  502    0 -0.81291556700E+01  0.19989300380E+02 -0.21040971685E+02  0.30503570136E+02  0.47000000000E+01 0.  1.
         -5    1    3    3    0  503 -0.12436403577E+02  0.16483479232E+02 -0.39002525124E+02  0.44380808775E+02  0.47000000000E+01 0.  1.
          5    1    3    3  503    0  0.22413328117E+02 -0.13108850217E+02 -0.47039555292E+02  0.53935229613E+02  0.47000000000E+01 0. -1.
         -5    1    3    3    0  502 -0.18477688705E+01 -0.23363929395E+02 -0.69023696660E+02  0.73045521062E+02  0.47000000000E+01 0. -1.
<mgrwt>
<rscale>  0 0.98670885E+02</rscale>
<asrwt>0</asrwt>
<pdfrwt beam="1">  1        1 0.19814138E-02 0.98670885E+02</pdfrwt>
<pdfrwt beam="2">  1       -1 0.29074762E-01 0.98670885E+02</pdfrwt>
<totfact> 0.57391076E+04</totfact>
</mgrwt>
</event>
<event>
 7    1  0.1028619E-012  0.9769127E+02  0.7546771E-02  0.1285227E+00
          2   -1    0    0  501    0  0.00000000000E+00  0.00000000000E+00  0.94018753785E+02  0.94018753785E+02  0.00000000000E+00 0. -1.
         -2   -1    0    0    0  501 -0.00000000000E+00 -0.00000000000E+00 -0.25376812312E+02  0.25376812312E+02  0.00000000000E+00 0.  1.
         23    2    1    2    0    0 -0.88817841970E-15 -0.88817841970E-15  0.68641941473E+02  0.11939556610E+03  0.97691274300E+02 0.  0.
          5    1    3    3  502    0 -0.11029322371E+02  0.18490460670E+02  0.17919980050E+02  0.28403499305E+02  0.47000000000E+01 0.  1.
         -5    1    3    3    0  503 -0.22721098658E+02 -0.41020086647E+00  0.12016353408E+02  0.26132342762E+02  0.47000000000E+01 0.  1.
          5    1    3    3  503    0  0.29269495317E+02  0.30785598492E+01  0.24264972607E+02  0.38432535468E+02  0.47000000000E+01 0. -1.
         -5    1    3    3    0  502  0.44809257133E+01 -0.21158819653E+02  0.14440635407E+02  0.26427188562E+02  0.47000000000E+01 0. -1.
<mgrwt>
<rscale>  0 0.97691274E+02</rscale>
<asrwt>0</asrwt>
<pdfrwt beam="1">  1        2 0.14464423E-01 0.97691274E+02</pdfrwt>
<pdfrwt beam="2">  1       -2 0.39041250E-02 0.97691274E+02</pdfrwt>
<totfact> 0.99417078E+04</totfact>
</mgrwt>
</event>
<event>
 7    1  0.1028619E-012  0.9264643E+02  0.7546771E-02  0.1296567E+00
         -4   -1    0    0    0  501 -0.00000000000E+00  0.00000000000E+00  0.46028301164E+02  0.46028301164E+02  0.00000000000E+00 0.  1.
          4   -1    0    0  501    0  0.00000000000E+00 -0.00000000000E+00 -0.46620015009E+02  0.46620015009E+02  0.00000000000E+00 0. -1.
         23    2    1    2    0    0  0.00000000000E+00 -0.17763568394E-14 -0.59171384476E+00  0.92648316174E+02  0.92646426615E+02 0.  0.
          5    1    3    3  502    0  0.10304372720E+02  0.18939047298E+02  0.27817603739E+01  0.22241758035E+02  0.47000000000E+01 0. -1.
         -5    1    3    3    0  503 -0.88224016859E+01 -0.18041391602E+02 -0.12472114634E+02  0.24103323960E+02  0.47000000000E+01 0.  1.
          5    1    3    3  503    0  0.15627015318E+02  0.12530955979E+02  0.12070470186E+02  0.23854029345E+02  0.47000000000E+01 0.  1.
         -5    1    3    3    0  502 -0.17108986352E+02 -0.13428611675E+02 -0.29718297703E+01  0.22449204834E+02  0.47000000000E+01 0. -1.
<mgrwt>
<rscale>  0 0.92646427E+02</rscale>
<asrwt>0</asrwt>
<pdfrwt beam="1">  1        4 0.71723101E-02 0.92646427E+02</pdfrwt>
<pdfrwt beam="2">  1       -4 0.70812770E-02 0.92646427E+02</pdfrwt>
<totfact> 0.25774900E+04</totfact>
</mgrwt>
</event>
<event>
 7    1  0.1028619E-012  0.9167852E+02  0.7546771E-02  0.1298837E+00
         -2   -1    0    0    0  501 -0.00000000000E+00  0.00000000000E+00  0.35325468582E+03  0.35325468582E+03  0.00000000000E+00 0.  1.
          2   -1    0    0  501    0  0.00000000000E+00 -0.00000000000E+00 -0.59482227309E+01  0.59482227309E+01  0.00000000000E+00 0. -1.
         23    2    1    2    0    0  0.00000000000E+00  0.00000000000E+00  0.34730646309E+03  0.35920290855E+03  0.91678515519E+02 0.  0.
          5    1    3    3  502    0 -0.16939131343E+02 -0.11398816422E+02  0.66392924807E+02  0.69620238802E+02  0.47000000000E+01 0. -1.
         -5    1    3    3    0  503  0.15119533219E+02  0.13216578876E+02  0.10395217641E+03  0.10597840923E+03  0.47000000000E+01 0. -1.
          5    1    3    3  503    0 -0.22693293719E+02 -0.47593853876E+01  0.93005401797E+02  0.95967349096E+02  0.47000000000E+01 0.  1.
         -5    1    3    3    0  502  0.24512891844E+02  0.29416229336E+01  0.83955960069E+02  0.87636911420E+02  0.47000000000E+01 0.  1.
<mgrwt>
<rscale>  0 0.91678516E+02</rscale>
<asrwt>0</asrwt>
<pdfrwt beam="1">  1        2 0.91511146E-03 0.91678516E+02</pdfrwt>
<pdfrwt beam="2">  1       -2 0.54346858E-01 0.91678516E+02</pdfrwt>
<totfact> 0.45636524E+04</totfact>
</mgrwt>
</event>
<event>
 7    1  0.1028619E-012  0.9052680E+02  0.7546771E-02  0.1301581E+00
          4   -1    0    0  501    0  0.00000000000E+00  0.00000000000E+00  0.38109312541E+01  0.38109312541E+01  0.00000000000E+00 0. -1.
         -4   -1    0    0    0  501 -0.00000000000E+00 -0.00000000000E+00 -0.53760495166E+03  0.53760495166E+03  0.00000000000E+00 0.  1.
         23    2    1    2    0    0  0.00000000000E+00  0.17763568394E-14 -0.53379402041E+03  0.54141588291E+03  0.90526802940E+02 0.  0.
          5    1    3    3  502    0 -0.73258772300E+00 -0.22332614687E+02 -0.16495434029E+03  0.16652719521E+03  0.47000000000E+01 0. -1.
         -5    1    3    3    0  502  0.43920448953E+01  0.19782059449E+02 -0.13741698564E+03  0.13898250925E+03  0.47000000000E+01 0.  1.
          5    1    3    3  503    0  0.14304562866E+02 -0.13991147161E+02 -0.90354485310E+02  0.92662806634E+02  0.47000000000E+01 0. -1.
         -5    1    3    3    0  503 -0.17964020038E+02  0.16541702398E+02 -0.14106820916E+03  0.14324337182E+03  0.47000000000E+01 0.  1.
<mgrwt>
<rscale>  0 0.90526803E+02</rscale>
<asrwt>0</asrwt>
<pdfrwt beam="1">  1        4 0.58629741E-03 0.90526803E+02</pdfrwt>
<pdfrwt beam="2">  1       -4 0.82708412E-01 0.90526803E+02</pdfrwt>
<totfact> 0.12572449E+04</totfact>
</mgrwt>
</event>
<event>
 7    1  0.1028619E-012  0.1032790E+03  0.7546771E-02  0.1273548E+00
          4   -1    0    0  501    0  0.00000000000E+00  0.00000000000E+00  0.22019059445E+02  0.22019059445E+02  0.00000000000E+00 0.  1.
         -4   -1    0    0    0  501 -0.00000000000E+00 -0.00000000000E+00 -0.12110592935E+03  0.12110592935E+03  0.00000000000E+00 0. -1.
         23    2    1    2    0    0  0.00000000000E+00  0.00000000000E+00 -0.99086869904E+02  0.14312498879E+03  0.10327901350E+03 0.  0.
          5    1    3    3  502    0 -0.38674687366E+01  0.22049600896E+02 -0.22667771143E+02  0.32203416941E+02  0.47000000000E+01 0. -1.
         -5    1    3    3    0  503  0.51001676180E+01 -0.25014277717E+02 -0.40365159347E+01  0.26269930726E+02  0.47000000000E+01 0.  1.
          5    1    3    3  503    0 -0.20958658418E+02 -0.23365043001E+01 -0.26375672385E+02  0.34095317989E+02  0.47000000000E+01 0. -1.
         -5    1    3    3    0  502  0.19725959537E+02  0.53011811217E+01 -0.46006910442E+02  0.50556323139E+02  0.47000000000E+01 0.  1.
<mgrwt>
<rscale>  0 0.10327901E+03</rscale>
<asrwt>0</asrwt>
<pdfrwt beam="1">  1        4 0.33875477E-02 0.10327901E+03</pdfrwt>
<pdfrwt beam="2">  1       -4 0.18631681E-01 0.10327901E+03</pdfrwt>
<totfact> 0.17117499E+04</totfact>
</mgrwt>
</event>
<event>
 7    1  0.1028619E-012  0.9560013E+02  0.7546771E-02  0.1289830E+00
          2   -1    0    0  501    0  0.00000000000E+00  0.00000000000E+00  0.25831707340E+03  0.25831707340E+03  0.00000000000E+00 0. -1.
         -2   -1    0    0    0  501 -0.00000000000E+00 -0.00000000000E+00 -0.88451225417E+01  0.88451225417E+01  0.00000000000E+00 0.  1.
         23    2    1    2    0    0 -0.35527136788E-14  0.35527136788E-14  0.24947195086E+03  0.26716219594E+03  0.95600129055E+02 0.  0.
          5    1    3    3  502    0  0.28455458299E+01  0.23211613060E+02  0.42992855876E+02  0.49166571655E+02  0.47000000000E+01 0. -1.
         -5    1    3    3    0  502 -0.19421013633E+02 -0.73430893117E+01  0.75596657187E+02  0.78536878656E+02  0.47000000000E+01 0. -1.
          5    1    3    3  503    0  0.19492545940E+02  0.78046138138E+01  0.83190905562E+02  0.85928389442E+02  0.47000000000E+01 0.  1.
         -5    1    3    3    0  503 -0.29170781361E+01 -0.23673137562E+02  0.47691532234E+02  0.53530356188E+02  0.47000000000E+01 0.  1.
<mgrwt>
<rscale>  0 0.95600129E+02</rscale>
<asrwt>0</asrwt>
<pdfrwt beam="1">  1        2 0.39741083E-01 0.95600129E+02</pdfrwt>
<pdfrwt beam="2">  1       -2 0.13607883E-02 0.95600129E+02</pdfrwt>
<totfact> 0.14961593E+05</totfact>
</mgrwt>
</event>
<event>
 7    1  0.1028619E-012  0.1025267E+03  0.7546771E-02  0.1275071E+00
         -2   -1    0    0    0  501 -0.00000000000E+00  0.00000000000E+00  0.66364505634E+02  0.66364505634E+02  0.00000000000E+00 0.  1.
          2   -1    0    0  501    0  0.00000000000E+00 -0.00000000000E+00 -0.39598441774E+02  0.39598441774E+02  0.00000000000E+00 0. -1.
         23    2    1    2    0    0  0.00000000000E+00 -0.35527136788E-14  0.26766063860E+02  0.10596294741E+03  0.10252669920E+03 0.  0.
          5    1    3    3  502    0  0.73267786044E+01  0.19177336882E+02  0.23029863584E+02  0.31207636106E+02  0.47000000000E+01 0.  1.
         -5    1    3    3    0  502 -0.33198921515E+01 -0.21018194103E+02  0.49525398111E+01  0.22347344761E+02  0.47000000000E+01 0. -1.
          5    1    3    3  503    0  0.16349096042E+02 -0.13865626972E+02 -0.10938535597E+02  0.24521217622E+02  0.47000000000E+01 0. -1.
         -5    1    3    3    0  503 -0.20355982495E+02  0.15706484193E+02  0.97221960611E+01  0.27886748919E+02  0.47000000000E+01 0.  1.
<mgrwt>
<rscale>  0 0.10252670E+03</rscale>
<asrwt>0</asrwt>
<pdfrwt beam="1">  1        2 0.60920680E-02 0.10252670E+03</pdfrwt>
<pdfrwt beam="2">  1       -2 0.10209924E-01 0.10252670E+03</pdfrwt>
<totfact> 0.67385728E+04</totfact>
</mgrwt>
</event>
<event>
 7    1  0.1028619E-012  0.9362108E+02  0.7546771E-02  0.1294312E+00
         -2   -1    0    0    0  501 -0.00000000000E+00  0.00000000000E+00  0.54790925363E+03  0.54790925363E+03  0.00000000000E+00 0.  1.
          2   -1    0    0  501    0  0.00000000000E+00 -0.00000000000E+00 -0.39992510040E+01  0.39992510040E+01  0.00000000000E+00 0. -1.
         23    2    1    2    0    0  0.00000000000E+00  0.17763568394E-14  0.54391000262E+03  0.55190850463E+03  0.93621079520E+02 0.  0.
          5    1    3    3  502    0 -0.17224542822E+02  0.14112517211E+02  0.15627909907E+03  0.15792749863E+03  0.47000000000E+01 0.  1.
         -5    1    3    3    0  502  0.18478533398E+02 -0.12419333792E+02  0.10793028378E+03  0.11030291114E+03  0.47000000000E+01 0. -1.
          5    1    3    3  503    0 -0.18329530767E+02 -0.15564457031E+02  0.12877987870E+03  0.13108993546E+03  0.47000000000E+01 0. -1.
         -5    1    3    3    0  503  0.17075540191E+02  0.13871273613E+02  0.15092074107E+03  0.15258815940E+03  0.47000000000E+01 0.  1.
<mgrwt>
<rscale>  0 0.93621080E+02</rscale>
<asrwt>0</asrwt>
<pdfrwt beam="1">  1        2 0.61526982E-03 0.93621080E+02</pdfrwt>
<pdfrwt beam="2">  1       -2 0.84293672E-01 0.93621080E+02</pdfrwt>
<totfact> 0.31505762E+04</totfact>
</mgrwt>
</event>
<event>
 7    1  0.1028619E-012  0.9659440E+02  0.7546771E-02  0.1287625E+00
          1   -1    0    0  501    0  0.00000000000E+00  0.00000000000E+00  0.60436769353E+03  0.60436769353E+03  0.00000000000E+00 0. -1.
         -1   -1    0    0    0  501 -0.00000000000E+00 -0.00000000000E+00 -0.38596033495E+01  0.38596033495E+01  0.00000000000E+00 0.  1.
         23    2    1    2    0    0 -0.17763568394E-14  0.35527136788E-14  0.60050809018E+03  0.60822729688E+03  0.96594400962E+02 0.  0.
          5    1    3    3  502    0  0.16676898048E+02  0.14986172914E+02  0.83448141800E+02  0.86535464851E+02  0.47000000000E+01 0. -1.
         -5    1    3    3    0  503  0.16580629813E+02  0.11984511893E+02  0.16478339949E+03  0.16611503411E+03  0.47000000000E+01 0.  1.
          5    1    3    3  503    0 -0.13593893094E+02 -0.22403567915E+02  0.16178516710E+03  0.16396110538E+03  0.47000000000E+01 0.  1.
         -5    1    3    3    0  502 -0.19663634768E+02 -0.45671168914E+01  0.19049138180E+03  0.19161569254E+03  0.47000000000E+01 0. -1.
<mgrwt>
<rscale>  0 0.96594401E+02</rscale>
<asrwt>0</asrwt>
<pdfrwt beam="1">  1        1 0.92979570E-01 0.96594401E+02</pdfrwt>
<pdfrwt beam="2">  1       -1 0.59378561E-03 0.96594401E+02</pdfrwt>
<totfact> 0.12152432E+05</totfact>
</mgrwt>
</event>
<event>
 7    1  0.1028619E-012  0.9813984E+02  0.7546771E-02  0.1284257E+00
          1   -1    0    0  501    0  0.00000000000E+00  0.00000000000E+00  0.21009560883E+03  0.21009560883E+03  0.00000000000E+00 0. -1.
         -1   -1    0    0    0  501 -0.00000000000E+00 -0.00000000000E+00 -0.11460767003E+02  0.11460767003E+02  0.00000000000E+00 0.  1.
         23    2    1    2    0    0 -0.26645352591E-14  0.00000000000E+00  0.19863484183E+03  0.22155637583E+03  0.98139835360E+02 0.  0.
          5    1    3    3  502    0  0.28445072902E+01  0.21874752241E+02  0.42160611006E+02  0.47814256532E+02  0.47000000000E+01 0. -1.
         -5    1    3    3    0  503 -0.20260053580E+02  0.15766880797E+02  0.59726383695E+02  0.65179714715E+02  0.47000000000E+01 0.  1.
          5    1    3    3  503    0  0.20160809719E+02 -0.14025527400E+02  0.50243895148E+02  0.56122300978E+02  0.47000000000E+01 0. -1.
         -5    1    3    3    0  502 -0.27452634290E+01 -0.23616105637E+02  0.46503951981E+02  0.52440103610E+02  0.47000000000E+01 0.  1.
<mgrwt>
<rscale>  0 0.98139835E+02</rscale>
<asrwt>0</asrwt>
<pdfrwt beam="1">  1        1 0.32322398E-01 0.98139835E+02</pdfrwt>
<pdfrwt beam="2">  1       -1 0.17631951E-02 0.98139835E+02</pdfrwt>
<totfact> 0.98060782E+04</totfact>
</mgrwt>
</event>
<event>
 7    1  0.1028619E-012  0.9131190E+02  0.7546771E-02  0.1299705E+00
         -1   -1    0    0    0  501 -0.00000000000E+00  0.00000000000E+00  0.27393862980E+03  0.27393862980E+03  0.00000000000E+00 0.  1.
          1   -1    0    0  501    0  0.00000000000E+00 -0.00000000000E+00 -0.76092429058E+01  0.76092429058E+01  0.00000000000E+00 0. -1.
         23    2    1    2    0    0  0.00000000000E+00  0.00000000000E+00  0.26632938689E+03  0.28154787271E+03  0.91311895729E+02 0.  0.
          5    1    3    3  502    0  0.98218025126E+01 -0.21013211880E+02  0.61573220660E+02  0.65964948120E+02  0.47000000000E+01 0. -1.
         -5    1    3    3    0  503 -0.86387980146E+01  0.21180449360E+02  0.75090973056E+02  0.78638314457E+02  0.47000000000E+01 0. -1.
          5    1    3    3  503    0 -0.78702110001E+00 -0.21343042356E+02  0.75277755470E+02  0.78389893021E+02  0.47000000000E+01 0.  1.
         -5    1    3    3    0  502 -0.39598339796E+00  0.21175804875E+02  0.54387437708E+02  0.58554717107E+02  0.47000000000E+01 0.  1.
<mgrwt>
<rscale>  0 0.91311896E+02</rscale>
<asrwt>0</asrwt>
<pdfrwt beam="1">  1        1 0.11706530E-02 0.91311896E+02</pdfrwt>
<pdfrwt beam="2">  1       -1 0.42144397E-01 0.91311896E+02</pdfrwt>
<totfact> 0.62469722E+04</totfact>
</mgrwt>
</event>
<event>
 7    1  0.1028619E-012  0.9122253E+02  0.7546771E-02  0.1299918E+00
          1   -1    0    0  501    0  0.00000000000E+00  0.00000000000E+00  0.97472208628E+01  0.97472208628E+01  0.00000000000E+00 0.  1.
         -1   -1    0    0    0  501 -0.00000000000E+00 -0.00000000000E+00 -0.21343392587E+03  0.21343392587E+03  0.00000000000E+00 0. -1.
         23    2    1    2    0    0  0.17763568394E-14 -0.17763568394E-14 -0.20368670500E+03  0.22318114673E+03  0.91222532634E+02 0.  0.
          5    1    3    3  502    0  0.14057247314E+02 -0.16731732423E+02 -0.54582234304E+02  0.58981924125E+02  0.47000000000E+01 0.  1.
         -5    1    3    3    0  502 -0.14378556195E+02  0.15076012260E+02 -0.34072241623E+02  0.40212394522E+02  0.47000000000E+01 0.  1.
          5    1    3    3  503    0 -0.19852305930E+02 -0.70983498923E+01 -0.75247062663E+02  0.78286084723E+02  0.47000000000E+01 0. -1.
         -5    1    3    3    0  503  0.20173614810E+02  0.87540700548E+01 -0.39785166415E+02  0.45700743361E+02  0.47000000000E+01 0. -1.
<mgrwt>
<rscale>  0 0.91222533E+02</rscale>
<asrwt>0</asrwt>
<pdfrwt beam="1">  1        1 0.14995725E-02 0.91222533E+02</pdfrwt>
<pdfrwt beam="2">  1       -1 0.32835988E-01 0.91222533E+02</pdfrwt>
<totfact> 0.68025742E+04</totfact>
</mgrwt>
</event>
<event>
 7    1  0.1028619E-012  0.9393796E+02  0.7546771E-02  0.1293586E+00
          1   -1    0    0  501    0  0.00000000000E+00  0.00000000000E+00  0.33728641293E+03  0.33728641293E+03  0.00000000000E+00 0. -1.
         -1   -1    0    0    0  501 -0.00000000000E+00 -0.00000000000E+00 -0.65406872083E+01  0.65406872083E+01  0.00000000000E+00 0.  1.
         23    2    1    2    0    0  0.17763568394E-14 -0.17763568394E-14  0.33074572572E+03  0.34382710013E+03  0.93937956685E+02 0.  0.
          5    1    3    3  502    0  0.22849559335E+02 -0.89700720583E+01  0.80345679697E+02  0.84143227894E+02  0.47000000000E+01 0. -1.
         -5    1    3    3    0  503 -0.14041989535E+02 -0.15555917804E+02  0.77282096495E+02  0.80210825252E+02  0.47000000000E+01 0.  1.
          5    1    3    3  503    0  0.11935332591E+02  0.17863844284E+02  0.54330883022E+02  0.58613172126E+02  0.47000000000E+01 0.  1.
         -5    1    3    3    0  502 -0.20742902391E+02  0.66621455784E+01  0.11878706650E+03  0.12085987486E+03  0.47000000000E+01 0. -1.
<mgrwt>
<rscale>  0 0.93937957E+02</rscale>
<asrwt>0</asrwt>
<pdfrwt beam="1">  1        1 0.51890204E-01 0.93937957E+02</pdfrwt>
<pdfrwt beam="2">  1       -1 0.10062598E-02 0.93937957E+02</pdfrwt>
<totfact> 0.12094333E+05</totfact>
</mgrwt>
</event>
<event>
 7    1  0.1028619E-012  0.9280313E+02  0.7546771E-02  0.1296202E+00
         -1   -1    0    0    0  501 -0.00000000000E+00  0.00000000000E+00  0.50720542936E+01  0.50720542936E+01  0.00000000000E+00 0.  1.
          1   -1    0    0  501    0  0.00000000000E+00 -0.00000000000E+00 -0.42450359538E+03  0.42450359538E+03  0.00000000000E+00 0. -1.
         23    2    1    2    0    0  0.00000000000E+00  0.00000000000E+00 -0.41943154109E+03  0.42957564968E+03  0.92803131060E+02 0.  0.
          5    1    3    3  502    0 -0.93257993683E+01 -0.18836394599E+02 -0.10858462218E+03  0.11070000212E+03  0.47000000000E+01 0. -1.
         -5    1    3    3    0  503  0.89197548753E+01  0.20709584366E+02 -0.11384062540E+03  0.11614743606E+03  0.47000000000E+01 0. -1.
          5    1    3    3  503    0  0.10170797822E+02 -0.21395135750E+02 -0.12601148113E+03  0.12830502850E+03  0.47000000000E+01 0.  1.
         -5    1    3    3    0  502 -0.97647533289E+01  0.19521945984E+02 -0.70994812383E+02  0.74423183000E+02  0.47000000000E+01 0.  1.
<mgrwt>
<rscale>  0 0.92803131E+02</rscale>
<asrwt>0</asrwt>
<pdfrwt beam="1">  1        1 0.65308236E-01 0.92803131E+02</pdfrwt>
<pdfrwt beam="2">  1       -1 0.78031615E-03 0.92803131E+02</pdfrwt>
<totfact> 0.12992329E+05</totfact>
</mgrwt>
</event>
<event>
 7    1  0.1028619E-012  0.9100683E+02  0.7546771E-02  0.1300432E+00
         -3   -1    0    0    0  501 -0.00000000000E+00  0.00000000000E+00  0.58201427979E+01  0.58201427979E+01  0.00000000000E+00 0.  1.
          3   -1    0    0  501    0  0.00000000000E+00 -0.00000000000E+00 -0.35575775981E+03  0.35575775981E+03  0.00000000000E+00 0. -1.
         23    2    1    2    0    0  0.00000000000E+00  0.00000000000E+00 -0.34993761701E+03  0.36157790260E+03  0.91006834107E+02 0.  0.
          5    1    3    3  502    0 -0.36413060309E+00 -0.21399603039E+02 -0.63488088762E+02  0.67163256443E+02  0.47000000000E+01 0.  1.
         -5    1    3    3    0  502 -0.17673058692E+02  0.16116719821E+02 -0.90101051774E+02  0.93340104950E+02  0.47000000000E+01 0.  1.
          5    1    3    3  503    0  0.13960413338E+01  0.20010536300E+02 -0.96621819633E+02  0.98793909345E+02  0.47000000000E+01 0. -1.
         -5    1    3    3    0  503  0.16641147961E+02 -0.14727653081E+02 -0.99726656839E+02  0.10228063187E+03  0.47000000000E+01 0. -1.
<mgrwt>
<rscale>  0 0.91006834E+02</rscale>
<asrwt>0</asrwt>
<pdfrwt beam="1">  1        3 0.54731979E-01 0.91006834E+02</pdfrwt>
<pdfrwt beam="2">  1       -3 0.89540633E-03 0.91006834E+02</pdfrwt>
<totfact> 0.21938281E+04</totfact>
</mgrwt>
</event>
<event>
 7    1  0.1028619E-012  0.9737560E+02  0.7546771E-02  0.1285914E+00
          3   -1    0    0  501    0  0.00000000000E+00  0.00000000000E+00  0.89626093031E+02  0.89626093031E+02  0.00000000000E+00 0. -1.
         -3   -1    0    0    0  501 -0.00000000000E+00 -0.00000000000E+00 -0.26448790918E+02  0.26448790918E+02  0.00000000000E+00 0.  1.
         23    2    1    2    0    0 -0.17763568394E-14  0.00000000000E+00  0.63177302113E+02  0.11607488395E+03  0.97375598490E+02 0.  0.
          5    1    3    3  502    0 -0.14570658662E+02  0.20113573707E+02  0.84078334086E+01  0.26639099154E+02  0.47000000000E+01 0.  1.
         -5    1    3    3    0  502  0.11881715417E+02 -0.16762411398E+02  0.27610562403E+02  0.34735957642E+02  0.47000000000E+01 0. -1.
          5    1    3    3  503    0  0.10956822402E+02  0.19020882365E+02  0.17806625440E+02  0.28653304044E+02  0.47000000000E+01 0. -1.
         -5    1    3    3    0  503 -0.82678791579E+01 -0.22372044674E+02  0.93522808619E+01  0.26046523108E+02  0.47000000000E+01 0.  1.
<mgrwt>
<rscale>  0 0.97375598E+02</rscale>
<asrwt>0</asrwt>
<pdfrwt beam="1">  1        3 0.13788630E-01 0.97375598E+02</pdfrwt>
<pdfrwt beam="2">  1       -3 0.40690448E-02 0.97375598E+02</pdfrwt>
<totfact> 0.28006464E+04</totfact>
</mgrwt>
</event>
<event>
 7    1  0.1028619E-012  0.1018928E+03  0.7546771E-02  0.1276365E+00
          4   -1    0    0  501    0  0.00000000000E+00  0.00000000000E+00  0.54181507506E+01  0.54181507506E+01  0.00000000000E+00 0. -1.
         -4   -1    0    0    0  501 -0.00000000000E+00 -0.00000000000E+00 -0.47904500548E+03  0.47904500548E+03  0.00000000000E+00 0.  1.
         23    2    1    2    0    0  0.00000000000E+00 -0.17763568394E-14 -0.47362685473E+03  0.48446315623E+03  0.10189284678E+03 0.  0.
          5    1    3    3  502    0 -0.13041507998E+02  0.21780599920E+02 -0.11885481291E+03  0.12162660900E+03  0.47000000000E+01 0. -1.
         -5    1    3    3    0  503  0.17308734502E+02  0.14385407319E+02 -0.11057199317E+03  0.11293709712E+03  0.47000000000E+01 0. -1.
          5    1    3    3  503    0 -0.20815304003E+02 -0.23051464145E+02 -0.14099226151E+03  0.14444914221E+03  0.47000000000E+01 0.  1.
         -5    1    3    3    0  502  0.16548077500E+02 -0.13114543094E+02 -0.10320778715E+03  0.10545030790E+03  0.47000000000E+01 0.  1.
<mgrwt>
<rscale>  0 0.10189285E+03</rscale>
<asrwt>0</asrwt>
<pdfrwt beam="1">  1        4 0.83356185E-03 0.10189285E+03</pdfrwt>
<pdfrwt beam="2">  1       -4 0.73699215E-01 0.10189285E+03</pdfrwt>
<totfact> 0.99435197E+03</totfact>
</mgrwt>
</event>
<event>
 7    1  0.1028619E-012  0.9248073E+02  0.7546771E-02  0.1296953E+00
          1   -1    0    0  501    0  0.00000000000E+00  0.00000000000E+00  0.44347890851E+03  0.44347890851E+03  0.00000000000E+00 0. -1.
         -1   -1    0    0    0  501 -0.00000000000E+00 -0.00000000000E+00 -0.48213595609E+01  0.48213595609E+01  0.00000000000E+00 0.  1.
         23    2    1    2    0    0  0.00000000000E+00  0.00000000000E+00  0.43865754895E+03  0.44830026807E+03  0.92480728275E+02 0.  0.
          5    1    3    3  502    0 -0.58179086598E+01 -0.19186794442E+02  0.10191544649E+03  0.10397513826E+03  0.47000000000E+01 0.  1.
         -5    1    3    3    0  502  0.84122878629E+01  0.23486346619E+02  0.99288440849E+02  0.10248248412E+03  0.47000000000E+01 0.  1.
          5    1    3    3  503    0  0.10255446682E+02 -0.20960046358E+02  0.14231808949E+03  0.14429492827E+03  0.47000000000E+01 0. -1.
         -5    1    3    3    0  503 -0.12849825885E+02  0.16660494181E+02  0.95135572118E+02  0.97547717420E+02  0.47000000000E+01 0. -1.
<mgrwt>
<rscale>  0 0.92480728E+02</rscale>
<asrwt>0</asrwt>
<pdfrwt beam="1">  1        1 0.68227492E-01 0.92480728E+02</pdfrwt>
<pdfrwt beam="2">  1       -1 0.74174798E-03 0.92480728E+02</pdfrwt>
<totfact> 0.13199588E+05</totfact>
</mgrwt>
</event>
<event>
 7    1  0.1028619E-012  0.9127175E+02  0.7546771E-02  0.1299801E+00
         -2   -1    0    0    0  501 -0.00000000000E+00  0.00000000000E+00  0.93752303593E+01  0.93752303593E+01  0.00000000000E+00 0.  1.
          2   -1    0    0  501    0  0.00000000000E+00 -0.00000000000E+00 -0.22214208320E+03  0.22214208320E+03  0.00000000000E+00 0. -1.
         23    2    1    2    0    0  0.17763568394E-14 -0.17763568394E-14 -0.21276685284E+03  0.23151731356E+03  0.91271752530E+02 0.  0.
          5    1    3    3  502    0 -0.15550439543E+02  0.15212057561E+02 -0.27695412148E+02  0.35529547130E+02  0.47000000000E+01 0.  1.
         -5    1    3    3    0  502  0.41522201455E+01 -0.19742197353E+02 -0.56678033166E+02  0.60344715858E+02  0.47000000000E+01 0.  1.
          5    1    3    3  503    0 -0.14908927432E+01  0.20104217616E+02 -0.85802944495E+02  0.88264588659E+02  0.47000000000E+01 0. -1.
         -5    1    3    3    0  503  0.12889112141E+02 -0.15574077824E+02 -0.42590463028E+02  0.47378461908E+02  0.47000000000E+01 0. -1.
<mgrwt>
<rscale>  0 0.91271753E+02</rscale>
<asrwt>0</asrwt>
<pdfrwt beam="1">  1        2 0.34175702E-01 0.91271753E+02</pdfrwt>
<pdfrwt beam="2">  1       -2 0.14423432E-02 0.91271753E+02</pdfrwt>
<totfact> 0.16026098E+05</totfact>
</mgrwt>
</event>
<event>
 7    1  0.1028619E-012  0.9086062E+02  0.7546771E-02  0.1300781E+00
         -2   -1    0    0    0  501 -0.00000000000E+00  0.00000000000E+00  0.58475320033E+02  0.58475320033E+02  0.00000000000E+00 0.  1.
          2   -1    0    0  501    0  0.00000000000E+00 -0.00000000000E+00 -0.35295457046E+02  0.35295457046E+02  0.00000000000E+00 0. -1.
         23    2    1    2    0    0  0.00000000000E+00  0.00000000000E+00  0.23179862988E+02  0.93770777079E+02  0.90860621756E+02 0.  0.
          5    1    3    3  502    0 -0.14725607732E+02 -0.13636401780E+02  0.51597345787E+01  0.21248713785E+02  0.47000000000E+01 0.  1.
         -5    1    3    3    0  502  0.17551975813E+02 -0.10886179986E+02 -0.52457479475E+01  0.21821746977E+02  0.47000000000E+01 0. -1.
          5    1    3    3  503    0 -0.18717452985E+02  0.73910925150E+01  0.14751266336E+02  0.25390178284E+02  0.47000000000E+01 0. -1.
         -5    1    3    3    0  503  0.15891084905E+02  0.17131489251E+02  0.85146100210E+01  0.25310138033E+02  0.47000000000E+01 0.  1.
<mgrwt>
<rscale>  0 0.90860622E+02</rscale>
<asrwt>0</asrwt>
<pdfrwt beam="1">  1        2 0.54300703E-02 0.90860622E+02</pdfrwt>
<pdfrwt beam="2">  1       -2 0.89962031E-02 0.90860622E+02</pdfrwt>
<totfact> 0.93283218E+04</totfact>
</mgrwt>
</event>
<event>
 7    1  0.1028619E-012  0.9043991E+02  0.7546771E-02  0.1301790E+00
         -1   -1    0    0    0  501 -0.00000000000E+00  0.00000000000E+00  0.41446685597E+01  0.41446685597E+01  0.00000000000E+00 0.  1.
          1   -1    0    0  501    0  0.00000000000E+00 -0.00000000000E+00 -0.49336744227E+03  0.49336744227E+03  0.00000000000E+00 0. -1.
         23    2    1    2    0    0  0.00000000000E+00  0.00000000000E+00 -0.48922277371E+03  0.49751211083E+03  0.90439914338E+02 0.  0.
          5    1    3    3  502    0  0.79632480911E+01 -0.18496305683E+02 -0.12708327183E+03  0.12875470719E+03  0.47000000000E+01 0. -1.
         -5    1    3    3    0  503 -0.11221616936E+02  0.18461870708E+02 -0.68034297610E+02  0.71536850699E+02  0.47000000000E+01 0. -1.
          5    1    3    3  503    0 -0.57776502784E+01 -0.19505926711E+02 -0.14067727068E+03  0.14221830721E+03  0.47000000000E+01 0.  1.
         -5    1    3    3    0  502  0.90360191229E+01  0.19540361686E+02 -0.15342793358E+03  0.15500224572E+03  0.47000000000E+01 0.  1.
<mgrwt>
<rscale>  0 0.90439914E+02</rscale>
<asrwt>0</asrwt>
<pdfrwt beam="1">  1        1 0.75902691E-01 0.90439914E+02</pdfrwt>
<pdfrwt beam="2">  1       -1 0.63764125E-03 0.90439914E+02</pdfrwt>
<totfact> 0.14206331E+05</totfact>
</mgrwt>
</event>
<event>
 7    1  0.1028619E-012  0.1018297E+03  0.7546771E-02  0.1276495E+00
         -1   -1    0    0    0  501 -0.00000000000E+00  0.00000000000E+00  0.16809742627E+02  0.16809742627E+02  0.00000000000E+00 0.  1.
          1   -1    0    0  501    0  0.00000000000E+00 -0.00000000000E+00 -0.15421552575E+03  0.15421552575E+03  0.00000000000E+00 0. -1.
         23    2    1    2    0    0  0.88817841970E-15  0.35527136788E-14 -0.13740578312E+03  0.17102526838E+03  0.10182972644E+03 0.  0.
          5    1    3    3  502    0 -0.13556801648E+02 -0.21881395998E+02 -0.40128091428E+02  0.47905491161E+02  0.47000000000E+01 0. -1.
         -5    1    3    3    0  503 -0.79937230043E+01  0.18618802583E+02 -0.10939584245E+02  0.23501572725E+02  0.47000000000E+01 0. -1.
          5    1    3    3  503    0  0.11679817051E+02 -0.17955538325E+02 -0.22299248275E+02  0.31275644782E+02  0.47000000000E+01 0.  1.
         -5    1    3    3    0  502  0.98707076013E+01  0.21218131740E+02 -0.64038859176E+02  0.68342559710E+02  0.47000000000E+01 0.  1.
<mgrwt>
<rscale>  0 0.10182973E+03</rscale>
<asrwt>0</asrwt>
<pdfrwt beam="1">  1        1 0.23725466E-01 0.10182973E+03</pdfrwt>
<pdfrwt beam="2">  1       -1 0.25861142E-02 0.10182973E+03</pdfrwt>
<totfact> 0.83493075E+04</totfact>
</mgrwt>
</event>
<event>
 7    1  0.1028619E-012  0.1018305E+03  0.7546771E-02  0.1276493E+00
          1   -1    0    0  501    0  0.00000000000E+00  0.00000000000E+00  0.56906542050E+03  0.56906542050E+03  0.00000000000E+00 0. -1.
         -1   -1    0    0    0  501 -0.00000000000E+00 -0.00000000000E+00 -0.45554761782E+01  0.45554761782E+01  0.00000000000E+00 0.  1.
         23    2    1    2    0    0  0.00000000000E+00  0.00000000000E+00  0.56450994432E+03  0.57362089668E+03  0.10183052523E+03 0.  0.
          5    1    3    3  502    0  0.81619672133E+01  0.21097574863E+02  0.11647406122E+03  0.11874351481E+03  0.47000000000E+01 0.  1.
         -5    1    3    3    0  503 -0.11895316156E+02 -0.20872878736E+02  0.92743306019E+02  0.95919687367E+02  0.47000000000E+01 0.  1.
          5    1    3    3  503    0  0.22204994904E+02 -0.14714226077E+02  0.17367993051E+03  0.17577365704E+03  0.47000000000E+01 0. -1.
         -5    1    3    3    0  502 -0.18471645961E+02  0.14489529949E+02  0.18161264657E+03  0.18318403745E+03  0.47000000000E+01 0. -1.
<mgrwt>
<rscale>  0 0.10183053E+03</rscale>
<asrwt>0</asrwt>
<pdfrwt beam="1">  1        1 0.87548470E-01 0.10183053E+03</pdfrwt>
<pdfrwt beam="2">  1       -1 0.70084294E-03 0.10183053E+03</pdfrwt>
<totfact> 0.10511238E+05</totfact>
</mgrwt>
</event>
<event>
 7    1  0.1028619E-012  0.1006202E+03  0.7546771E-02  0.1278997E+00
          4   -1    0    0  501    0  0.00000000000E+00  0.00000000000E+00  0.39944660149E+02  0.39944660149E+02  0.00000000000E+00 0. -1.
         -4   -1    0    0    0  501 -0.00000000000E+00 -0.00000000000E+00 -0.63365363663E+02  0.63365363663E+02  0.00000000000E+00 0.  1.
         23    2    1    2    0    0  0.00000000000E+00  0.17763568394E-14 -0.23420703515E+02  0.10331002381E+03  0.10062023488E+03 0.  0.
          5    1    3    3  502    0 -0.17980641978E+02  0.12534283627E+02 -0.58801375433E+00  0.22424261686E+02  0.47000000000E+01 0.  1.
         -5    1    3    3    0  503  0.31839936249E+01 -0.25939273905E+02 -0.38310997290E+01  0.26828176815E+02  0.47000000000E+01 0. -1.
          5    1    3    3  503    0 -0.76981585901E+01  0.23614087530E+02 -0.72244371725E+01  0.26290098288E+02  0.47000000000E+01 0. -1.
         -5    1    3    3    0  502  0.22494806943E+02 -0.10209097252E+02 -0.11777152859E+02  0.27767487023E+02  0.47000000000E+01 0.  1.
<mgrwt>
<rscale>  0 0.10062023E+03</rscale>
<asrwt>0</asrwt>
<pdfrwt beam="1">  1        4 0.61453323E-02 0.10062023E+03</pdfrwt>
<pdfrwt beam="2">  1       -4 0.97485175E-02 0.10062023E+03</pdfrwt>
<totfact> 0.20060005E+04</totfact>
</mgrwt>
</event>
<event>
 7    1  0.1028619E-012  0.9228067E+02  0.7546771E-02  0.1297421E+00
          1   -1    0    0  501    0  0.00000000000E+00  0.00000000000E+00  0.45454392395E+01  0.45454392395E+01  0.00000000000E+00 0. -1.
         -1   -1    0    0    0  501 -0.00000000000E+00 -0.00000000000E+00 -0.46836625563E+03  0.46836625563E+03  0.00000000000E+00 0.  1.
         23    2    1    2    0    0  0.17763568394E-14  0.17763568394E-14 -0.46382081639E+03  0.47291169487E+03  0.92280666595E+02 0.  0.
          5    1    3    3  502    0 -0.19258981386E+02 -0.61333990855E+01 -0.80536050896E+02  0.83166534389E+02  0.47000000000E+01 0. -1.
         -5    1    3    3    0  503 -0.98651473882E+01 -0.17593428149E+02 -0.13160848583E+03  0.13322812537E+03  0.47000000000E+01 0. -1.
          5    1    3    3  503    0  0.55158108538E+01  0.23081578971E+02 -0.15557491530E+03  0.15744468149E+03  0.47000000000E+01 0. -1.
         -5    1    3    3    0  502  0.23608317920E+02  0.64524826307E+00 -0.96101364367E+02  0.99072353628E+02  0.47000000000E+01 0.  1.
<mgrwt>
<rscale>  0 0.92280667E+02</rscale>
<asrwt>0</asrwt>
<pdfrwt beam="1">  1        1 0.69929907E-03 0.92280667E+02</pdfrwt>
<pdfrwt beam="2">  1       -1 0.72056273E-01 0.92280667E+02</pdfrwt>
<totfact> 0.47399491E+04</totfact>
</mgrwt>
</event>
<event>
 7    1  0.1028619E-012  0.1031451E+03  0.7546771E-02  0.1273818E+00
          1   -1    0    0  501    0  0.00000000000E+00  0.00000000000E+00  0.29268450102E+03  0.29268450102E+03  0.00000000000E+00 0. -1.
         -1   -1    0    0    0  501 -0.00000000000E+00 -0.00000000000E+00 -0.90873586085E+01  0.90873586085E+01  0.00000000000E+00 0.  1.
         23    2    1    2    0    0  0.17763568394E-14  0.17763568394E-14  0.28359714241E+03  0.30177185963E+03  0.10314512145E+03 0.  0.
          5    1    3    3  502    0  0.21408911720E+02  0.17143326990E+02  0.65940427062E+02  0.71571398495E+02  0.47000000000E+01 0.  1.
         -5    1    3    3    0  502 -0.14173343678E+02 -0.15143879163E+02  0.65230907237E+02  0.68610363693E+02  0.47000000000E+01 0.  1.
          5    1    3    3  503    0  0.12155820363E+02  0.16504849649E+02  0.10341219635E+03  0.10552888886E+03  0.47000000000E+01 0. -1.
         -5    1    3    3    0  503 -0.19391388405E+02 -0.18504297477E+02  0.49013611770E+02  0.56061208586E+02  0.47000000000E+01 0. -1.
<mgrwt>
<rscale>  0 0.10314512E+03</rscale>
<asrwt>0</asrwt>
<pdfrwt beam="1">  1        1 0.45028378E-01 0.10314512E+03</pdfrwt>
<pdfrwt beam="2">  1       -1 0.13980554E-02 0.10314512E+03</pdfrwt>
<totfact> 0.91586650E+04</totfact>
</mgrwt>
</event>
<event>
 7    1  0.1028619E-012  0.9853995E+02  0.7546771E-02  0.1283397E+00
          2   -1    0    0  501    0  0.00000000000E+00  0.00000000000E+00  0.45296439963E+03  0.45296439963E+03  0.00000000000E+00 0. -1.
         -2   -1    0    0    0  501 -0.00000000000E+00 -0.00000000000E+00 -0.53592078669E+01  0.53592078669E+01  0.00000000000E+00 0.  1.
         23    2    1    2    0    0 -0.17763568394E-14  0.00000000000E+00  0.44760519176E+03  0.45832360750E+03  0.98539948730E+02 0.  0.
          5    1    3    3  502    0  0.82627811249E+01  0.27988483074E+02  0.14229320660E+03  0.14533091682E+03  0.47000000000E+01 0. -1.
         -5    1    3    3    0  503  0.20581728880E+02 -0.60733604860E+01  0.11289187422E+03  0.11500938456E+03  0.47000000000E+01 0.  1.
          5    1    3    3  503    0 -0.23887529247E+02 -0.24771266100E+01  0.78871099244E+02  0.82580206500E+02  0.47000000000E+01 0.  1.
         -5    1    3    3    0  502 -0.49569807583E+01 -0.19437995978E+02  0.11354901170E+03  0.11540309963E+03  0.47000000000E+01 0. -1.
<mgrwt>
<rscale>  0 0.98539949E+02</rscale>
<asrwt>0</asrwt>
<pdfrwt beam="1">  1        2 0.69686800E-01 0.98539949E+02</pdfrwt>
<pdfrwt beam="2">  1       -2 0.82449388E-03 0.98539949E+02</pdfrwt>
<totfact> 0.16956845E+05</totfact>
</mgrwt>
</event>
<event>
 7    1  0.1028619E-012  0.9215873E+02  0.7546771E-02  0.1297707E+00
         -1   -1    0    0    0  501 -0.00000000000E+00  0.00000000000E+00  0.59420797536E+02  0.59420797536E+02  0.00000000000E+00 0.  1.
          1   -1    0    0  501    0  0.00000000000E+00 -0.00000000000E+00 -0.35733409021E+02  0.35733409021E+02  0.00000000000E+00 0. -1.
         23    2    1    2    0    0 -0.17763568394E-14 -0.17763568394E-14  0.23687388515E+02  0.95154206557E+02  0.92158725310E+02 0.  0.
          5    1    3    3  502    0 -0.17282660776E+02 -0.10341703373E+02  0.26427732641E+01  0.20849830759E+02  0.47000000000E+01 0.  1.
         -5    1    3    3    0  503 -0.11878598281E+01  0.22457456016E+02  0.12189217557E+02  0.26007986588E+02  0.47000000000E+01 0.  1.
          5    1    3    3  503    0 -0.32276868374E+01 -0.22267562407E+02  0.56899969984E+01  0.23679703624E+02  0.47000000000E+01 0. -1.
         -5    1    3    3    0  502  0.21698207442E+02  0.10151809764E+02  0.31654006960E+01  0.24616685586E+02  0.47000000000E+01 0. -1.
<mgrwt>
<rscale>  0 0.92158725E+02</rscale>
<asrwt>0</asrwt>
<pdfrwt beam="1">  1        1 0.54974476E-02 0.92158725E+02</pdfrwt>
<pdfrwt beam="2">  1       -1 0.91416611E-02 0.92158725E+02</pdfrwt>
<totfact> 0.86433289E+04</totfact>
</mgrwt>
</event>
<event>
 7    1  0.1028619E-012  0.9088395E+02  0.7546771E-02  0.1300725E+00
         -1   -1    0    0    0  501 -0.00000000000E+00  0.00000000000E+00  0.10723290639E+02  0.10723290639E+02  0.00000000000E+00 0.  1.
          1   -1    0    0  501    0  0.00000000000E+00 -0.00000000000E+00 -0.19256899320E+03  0.19256899320E+03  0.00000000000E+00 0. -1.
         23    2    1    2    0    0 -0.17763568394E-14  0.00000000000E+00 -0.18184570256E+03  0.20329228384E+03  0.90883954184E+02 0.  0.
          5    1    3    3  502    0 -0.20322349152E+02  0.45392784152E+01 -0.38397158843E+02  0.43932160553E+02  0.47000000000E+01 0.  1.
         -5    1    3    3    0  502  0.15688681892E+02 -0.19616723564E+02 -0.58311990155E+02  0.63665758291E+02  0.47000000000E+01 0.  1.
          5    1    3    3  503    0 -0.16395452729E+02  0.12935520347E+02 -0.50449756057E+02  0.54803343357E+02  0.47000000000E+01 0. -1.
         -5    1    3    3    0  503  0.21029119989E+02  0.21419248014E+01 -0.34686797503E+02  0.40891021636E+02  0.47000000000E+01 0. -1.
<mgrwt>
<rscale>  0 0.90883954E+02</rscale>
<asrwt>0</asrwt>
<pdfrwt beam="1">  1        1 0.29625994E-01 0.90883954E+02</pdfrwt>
<pdfrwt beam="2">  1       -1 0.16497373E-02 0.90883954E+02</pdfrwt>
<totfact> 0.11856064E+05</totfact>
</mgrwt>
</event>
<event>
 7    1  0.1028619E-012  0.9131405E+02  0.7546771E-02  0.1299700E+00
         -1   -1    0    0    0  501 -0.00000000000E+00  0.00000000000E+00  0.15336309716E+02  0.15336309716E+02  0.00000000000E+00 0. -1.
          1   -1    0    0  501    0  0.00000000000E+00 -0.00000000000E+00 -0.13592343672E+03  0.13592343672E+03  0.00000000000E+00 0.  1.
         23    2    1    2    0    0 -0.77715611724E-15  0.35527136788E-14 -0.12058712700E+03  0.15125974644E+03  0.91314049811E+02 0.  0.
          5    1    3    3  502    0  0.10561021221E+02  0.18687791046E+02 -0.13928780982E+02  0.26016718530E+02  0.47000000000E+01 0.  1.
         -5    1    3    3    0  502 -0.99834224127E+01 -0.18882054969E+02 -0.35166328187E+02  0.41412091967E+02  0.47000000000E+01 0. -1.
          5    1    3    3  503    0  0.53502260172E+00  0.21192035562E+02 -0.29449865583E+02  0.36589249833E+02  0.47000000000E+01 0. -1.
         -5    1    3    3    0  503 -0.11126214096E+01 -0.20997771640E+02 -0.42042152252E+02  0.47241686107E+02  0.47000000000E+01 0.  1.
<mgrwt>
<rscale>  0 0.91314050E+02</rscale>
<asrwt>0</asrwt>
<pdfrwt beam="1">  1        1 0.20911298E-01 0.91314050E+02</pdfrwt>
<pdfrwt beam="2">  1       -1 0.23594322E-02 0.91314050E+02</pdfrwt>
<totfact> 0.10969390E+05</totfact>
</mgrwt>
</event>
<event>
 7    1  0.1028619E-012  0.1032199E+03  0.7546771E-02  0.1273667E+00
         -1   -1    0    0    0  501 -0.00000000000E+00  0.00000000000E+00  0.30167822325E+02  0.30167822325E+02  0.00000000000E+00 0.  1.
          1   -1    0    0  501    0  0.00000000000E+00 -0.00000000000E+00 -0.88292354666E+02  0.88292354666E+02  0.00000000000E+00 0. -1.
         23    2    1    2    0    0  0.00000000000E+00 -0.17763568394E-14 -0.58124532340E+02  0.11846017699E+03  0.10321992188E+03 0.  0.
          5    1    3    3  502    0 -0.18886941091E+02 -0.11890856539E+02 -0.69904035601E+01  0.23855078180E+02  0.47000000000E+01 0. -1.
         -5    1    3    3    0  502  0.10121890135E+02  0.19056844931E+02 -0.71555411321E+00  0.22095656051E+02  0.47000000000E+01 0.  1.
          5    1    3    3  503    0 -0.62584509973E+01  0.19333037086E+02 -0.25001753571E+02  0.32559364451E+02  0.47000000000E+01 0.  1.
         -5    1    3    3    0  503  0.15023501954E+02 -0.26499025478E+02 -0.25416821096E+02  0.39950078309E+02  0.47000000000E+01 0. -1.
<mgrwt>
<rscale>  0 0.10321992E+03</rscale>
<asrwt>0</asrwt>
<pdfrwt beam="1">  1        1 0.13583439E-01 0.10321992E+03</pdfrwt>
<pdfrwt beam="2">  1       -1 0.46412034E-02 0.10321992E+03</pdfrwt>
<totfact> 0.72659307E+04</totfact>
</mgrwt>
</event>
<event>
 7    1  0.1028619E-012  0.9172500E+02  0.7546771E-02  0.1298727E+00
         -2   -1    0    0    0  501 -0.00000000000E+00  0.00000000000E+00  0.76257128192E+01  0.76257128192E+01  0.00000000000E+00 0.  1.
          2   -1    0    0  501    0  0.00000000000E+00 -0.00000000000E+00 -0.27582587190E+03  0.27582587190E+03  0.00000000000E+00 0. -1.
         23    2    1    2    0    0  0.00000000000E+00 -0.35527136788E-14 -0.26820015908E+03  0.28345158472E+03  0.91724999585E+02 0.  0.
          5    1    3    3  502    0 -0.21138733161E+02  0.30840831101E+01 -0.78882637528E+02  0.81859135786E+02  0.47000000000E+01 0. -1.
         -5    1    3    3    0  502  0.17428407405E+02 -0.12422503313E+02 -0.39449424944E+02  0.45126656221E+02  0.47000000000E+01 0.  1.
          5    1    3    3  503    0  0.21015286938E+02 -0.37016428415E+01 -0.90276097294E+02  0.92882765825E+02  0.47000000000E+01 0. -1.
         -5    1    3    3    0  503 -0.17304961182E+02  0.13040063045E+02 -0.59591999312E+02  0.63583026884E+02  0.47000000000E+01 0.  1.
<mgrwt>
<rscale>  0 0.91725000E+02</rscale>
<asrwt>0</asrwt>
<pdfrwt beam="1">  1        2 0.42434746E-01 0.91725000E+02</pdfrwt>
<pdfrwt beam="2">  1       -2 0.11731867E-02 0.91725000E+02</pdfrwt>
<totfact> 0.17134837E+05</totfact>
</mgrwt>
</event>
<event>
 7    1  0.1028619E-012  0.9045114E+02  0.7546771E-02  0.1301763E+00
          1   -1    0    0  501    0  0.00000000000E+00  0.00000000000E+00  0.14136672337E+03  0.14136672337E+03  0.00000000000E+00 0. -1.
         -1   -1    0    0    0  501 -0.00000000000E+00 -0.00000000000E+00 -0.14468413195E+02  0.14468413195E+02  0.00000000000E+00 0.  1.
         23    2    1    2    0    0  0.26645352591E-14  0.00000000000E+00  0.12689831017E+03  0.15583513656E+03  0.90451139642E+02 0.  0.
          5    1    3    3  502    0  0.67593733352E+01  0.19212329613E+02  0.30383401299E+02  0.36878771828E+02  0.47000000000E+01 0.  1.
         -5    1    3    3    0  502 -0.81914696611E+01 -0.18589723698E+02  0.23990693781E+02  0.31785553172E+02  0.47000000000E+01 0.  1.
          5    1    3    3  503    0  0.16494578616E+02  0.16586497814E+02  0.27165284845E+02  0.36155576806E+02  0.47000000000E+01 0. -1.
         -5    1    3    3    0  503 -0.15062482290E+02 -0.17209103730E+02  0.45358930248E+02  0.51015234755E+02  0.47000000000E+01 0. -1.
<mgrwt>
<rscale>  0 0.90451140E+02</rscale>
<asrwt>0</asrwt>
<pdfrwt beam="1">  1        1 0.21748726E-01 0.90451140E+02</pdfrwt>
<pdfrwt beam="2">  1       -1 0.22259098E-02 0.90451140E+02</pdfrwt>
<totfact> 0.11334327E+05</totfact>
</mgrwt>
</event>
<event>
 7    1  0.1028619E-012  0.9198949E+02  0.7546771E-02  0.1298104E+00
         -1   -1    0    0    0  501 -0.00000000000E+00  0.00000000000E+00  0.91857294609E+01  0.91857294609E+01  0.00000000000E+00 0.  1.
          1   -1    0    0  501    0  0.00000000000E+00 -0.00000000000E+00 -0.23030469714E+03  0.23030469714E+03  0.00000000000E+00 0. -1.
         23    2    1    2    0    0  0.00000000000E+00  0.35527136788E-14 -0.22111896767E+03  0.23949042660E+03  0.91989491605E+02 0.  0.
          5    1    3    3  502    0  0.50020962834E+01 -0.21998935242E+02 -0.79294494597E+02  0.82575304979E+02  0.47000000000E+01 0. -1.
         -5    1    3    3    0  503 -0.55395999414E+01  0.23153283179E+02 -0.53908866549E+02  0.59118673717E+02  0.47000000000E+01 0.  1.
          5    1    3    3  503    0  0.19473892523E+02  0.73254472496E+01 -0.38928571611E+02  0.44389394624E+02  0.47000000000E+01 0.  1.
         -5    1    3    3    0  502 -0.18936388865E+02 -0.84797951864E+01 -0.48987034918E+02  0.53407053276E+02  0.47000000000E+01 0. -1.
<mgrwt>
<rscale>  0 0.91989492E+02</rscale>
<asrwt>0</asrwt>
<pdfrwt beam="1">  1        1 0.35431493E-01 0.91989492E+02</pdfrwt>
<pdfrwt beam="2">  1       -1 0.14131891E-02 0.91989492E+02</pdfrwt>
<totfact> 0.11884783E+05</totfact>
</mgrwt>
</event>
<event>
 7    1  0.1028619E-012  0.9752719E+02  0.7546771E-02  0.1285584E+00
          2   -1    0    0  501    0  0.00000000000E+00  0.00000000000E+00  0.66928016633E+03  0.66928016633E+03  0.00000000000E+00 0. -1.
         -2   -1    0    0    0  501 -0.00000000000E+00 -0.00000000000E+00 -0.35529040054E+01  0.35529040054E+01  0.00000000000E+00 0.  1.
         23    2    1    2    0    0  0.00000000000E+00  0.17763568394E-14  0.66572726232E+03  0.67283307033E+03  0.97527189721E+02 0.  0.
          5    1    3    3  502    0  0.93554462631E+01 -0.26188883341E+02  0.18470368679E+03  0.18684465178E+03  0.47000000000E+01 0. -1.
         -5    1    3    3    0  502 -0.37564240595E+01  0.21441419488E+02  0.22286088906E+03  0.22397078172E+03  0.47000000000E+01 0. -1.
          5    1    3    3  503    0  0.14424783283E+02  0.14707222210E+02  0.14880658803E+03  0.15029925947E+03  0.47000000000E+01 0.  1.
         -5    1    3    3    0  503 -0.20023805487E+02 -0.99597583567E+01  0.10935609845E+03  0.11171837736E+03  0.47000000000E+01 0.  1.
<mgrwt>
<rscale>  0 0.97527190E+02</rscale>
<asrwt>0</asrwt>
<pdfrwt beam="1">  1        2 0.10296608E+00 0.97527190E+02</pdfrwt>
<pdfrwt beam="2">  1       -2 0.54660115E-03 0.97527190E+02</pdfrwt>
<totfact> 0.19627858E+05</totfact>
</mgrwt>
</event>
<event>
 7    1  0.1028619E-012  0.9694523E+02  0.7546771E-02  0.1286854E+00
          2   -1    0    0  501    0  0.00000000000E+00  0.00000000000E+00  0.47170879390E+03  0.47170879390E+03  0.00000000000E+00 0.  1.
         -2   -1    0    0    0  501 -0.00000000000E+00 -0.00000000000E+00 -0.49810272150E+01  0.49810272150E+01  0.00000000000E+00 0. -1.
         23    2    1    2    0    0  0.17763568394E-14  0.00000000000E+00  0.46672776669E+03  0.47668982111E+03  0.96945228659E+02 0.  0.
          5    1    3    3  502    0 -0.53504699852E+01 -0.24678767656E+02  0.12252905879E+03  0.12519236938E+03  0.47000000000E+01 0. -1.
         -5    1    3    3    0  502 -0.81674385737E+01  0.18408553786E+02  0.90284235434E+02  0.92622432884E+02  0.47000000000E+01 0.  1.
          5    1    3    3  503    0  0.14770455671E+02 -0.19070841577E+02  0.11776420469E+03  0.12030112745E+03  0.47000000000E+01 0. -1.
         -5    1    3    3    0  503 -0.12525471117E+01  0.25341055446E+02  0.13615026777E+03  0.13857389140E+03  0.47000000000E+01 0.  1.
<mgrwt>
<rscale>  0 0.96945229E+02</rscale>
<asrwt>0</asrwt>
<pdfrwt beam="1">  1        2 0.72570548E-01 0.96945229E+02</pdfrwt>
<pdfrwt beam="2">  1       -2 0.76631225E-03 0.96945229E+02</pdfrwt>
<totfact> 0.17958420E+05</totfact>
</mgrwt>
</event>
<event>
 7    1  0.1028619E-012  0.9093467E+02  0.7546771E-02  0.1300604E+00
         -1   -1    0    0    0  501 -0.00000000000E+00  0.00000000000E+00  0.66996418555E+01  0.66996418555E+01  0.00000000000E+00 0.  1.
          1   -1    0    0  501    0  0.00000000000E+00 -0.00000000000E+00 -0.30856553971E+03  0.30856553971E+03  0.00000000000E+00 0. -1.
         23    2    1    2    0    0 -0.88817841970E-15  0.00000000000E+00 -0.30186589786E+03  0.31526518157E+03  0.90934671166E+02 0.  0.
          5    1    3    3  502    0 -0.90718974201E+01  0.20981969469E+02 -0.75998778825E+02  0.79501237402E+02  0.47000000000E+01 0.  1.
         -5    1    3    3    0  502  0.52443405803E+01 -0.21627765050E+02 -0.71914975626E+02  0.75426235810E+02  0.47000000000E+01 0. -1.
          5    1    3    3  503    0  0.11258566165E+02  0.19751154762E+02 -0.68153676640E+02  0.71999146287E+02  0.47000000000E+01 0. -1.
         -5    1    3    3    0  503 -0.74310093249E+01 -0.19105359181E+02 -0.85798466768E+02  0.88338562071E+02  0.47000000000E+01 0.  1.
<mgrwt>
<rscale>  0 0.90934671E+02</rscale>
<asrwt>0</asrwt>
<pdfrwt beam="1">  1        1 0.47471619E-01 0.90934671E+02</pdfrwt>
<pdfrwt beam="2">  1       -1 0.10307142E-02 0.90934671E+02</pdfrwt>
<totfact> 0.12972407E+05</totfact>
</mgrwt>
</event>
<event>
 7    1  0.1028619E-012  0.9153262E+02  0.7546771E-02  0.1299182E+00
         -2   -1    0    0    0  501 -0.00000000000E+00  0.00000000000E+00  0.88151563452E+01  0.88151563452E+01  0.00000000000E+00 0.  1.
          2   -1    0    0  501    0  0.00000000000E+00 -0.00000000000E+00 -0.23760838062E+03  0.23760838062E+03  0.00000000000E+00 0. -1.
         23    2    1    2    0    0  0.26645352591E-14  0.00000000000E+00 -0.22879322427E+03  0.24642353696E+03  0.91532617663E+02 0.  0.
          5    1    3    3  502    0 -0.22154485603E+01 -0.25872604072E+02 -0.54287083858E+02  0.60361223709E+02  0.47000000000E+01 0. -1.
         -5    1    3    3    0  503  0.18320414495E+02  0.10519655695E+02 -0.68999014869E+02  0.72313586525E+02  0.47000000000E+01 0.  1.
          5    1    3    3  503    0 -0.20344259047E+02 -0.47666838827E+01 -0.53225224598E+02  0.57372682393E+02  0.47000000000E+01 0. -1.
         -5    1    3    3    0  502  0.42392931132E+01  0.20119632260E+02 -0.52281900947E+02  0.56376044336E+02  0.47000000000E+01 0.  1.
<mgrwt>
<rscale>  0 0.91532618E+02</rscale>
<asrwt>0</asrwt>
<pdfrwt beam="1">  1        2 0.36555135E-01 0.91532618E+02</pdfrwt>
<pdfrwt beam="2">  1       -2 0.13561779E-02 0.91532618E+02</pdfrwt>
<totfact> 0.16302438E+05</totfact>
</mgrwt>
</event>
<event>
 7    1  0.1028619E-012  0.9817403E+02  0.7546771E-02  0.1284183E+00
          1   -1    0    0  501    0  0.00000000000E+00  0.00000000000E+00  0.13606466719E+03  0.13606466719E+03  0.00000000000E+00 0. -1.
         -1   -1    0    0    0  501 -0.00000000000E+00 -0.00000000000E+00 -0.17708750348E+02  0.17708750348E+02  0.00000000000E+00 0.  1.
         23    2    1    2    0    0 -0.35527136788E-14  0.00000000000E+00  0.11835591684E+03  0.15377341753E+03  0.98174033683E+02 0.  0.
          5    1    3    3  502    0  0.96094574494E+01  0.18412184396E+02  0.21117368474E+02  0.29989722539E+02  0.47000000000E+01 0. -1.
         -5    1    3    3    0  502  0.18465904807E+02 -0.99508506816E+01  0.44727797098E+02  0.49625345368E+02  0.47000000000E+01 0.  1.
          5    1    3    3  503    0 -0.14830733869E+02  0.17145925510E+02  0.22864921617E+02  0.32539638431E+02  0.47000000000E+01 0.  1.
         -5    1    3    3    0  503 -0.13244628388E+02 -0.25607259224E+02  0.29645829648E+02  0.41618711196E+02  0.47000000000E+01 0.  1.
<mgrwt>
<rscale>  0 0.98174034E+02</rscale>
<asrwt>0</asrwt>
<pdfrwt beam="1">  1        1 0.20933025E-01 0.98174034E+02</pdfrwt>
<pdfrwt beam="2">  1       -1 0.27244232E-02 0.98174034E+02</pdfrwt>
<totfact> 0.90107303E+04</totfact>
</mgrwt>
</event>
<event>
 7    1  0.1028619E-012  0.1023799E+03  0.7546771E-02  0.1275369E+00
         -2   -1    0    0    0  501 -0.00000000000E+00  0.00000000000E+00  0.44916902941E+02  0.44916902941E+02  0.00000000000E+00 0.  1.
          2   -1    0    0  501    0  0.00000000000E+00 -0.00000000000E+00 -0.58339107319E+02  0.58339107319E+02  0.00000000000E+00 0. -1.
         23    2    1    2    0    0 -0.88817841970E-15 -0.35527136788E-14 -0.13422204378E+02  0.10325601026E+03  0.10237992032E+03 0.  0.
          5    1    3    3  502    0  0.45411521086E+01  0.20390797443E+02  0.26000169958E+01  0.21569811572E+02  0.47000000000E+01 0. -1.
         -5    1    3    3    0  503 -0.19179603483E+02  0.97089086074E+01  0.83079954613E+01  0.23520903144E+02  0.47000000000E+01 0.  1.
          5    1    3    3  503    0  0.20452316717E+02 -0.10710160304E+02  0.30877752542E+01  0.23761926455E+02  0.47000000000E+01 0. -1.
         -5    1    3    3    0  502 -0.58138653421E+01 -0.19389545747E+02 -0.27417992089E+02  0.34403369089E+02  0.47000000000E+01 0.  1.
<mgrwt>
<rscale>  0 0.10237992E+03</rscale>
<asrwt>0</asrwt>
<pdfrwt beam="1">  1        2 0.89752473E-02 0.10237992E+03</pdfrwt>
<pdfrwt beam="2">  1       -2 0.69102928E-02 0.10237992E+03</pdfrwt>
<totfact> 0.75591782E+04</totfact>
</mgrwt>
</event>
<event>
 7    1  0.1028619E-012  0.1020559E+03  0.7546771E-02  0.1276031E+00
          1   -1    0    0  501    0  0.00000000000E+00  0.00000000000E+00  0.50531150753E+03  0.50531150753E+03  0.00000000000E+00 0. -1.
         -1   -1    0    0    0  501 -0.00000000000E+00 -0.00000000000E+00 -0.51529650379E+01  0.51529650379E+01  0.00000000000E+00 0.  1.
         23    2    1    2    0    0 -0.17763568394E-14  0.00000000000E+00  0.50015854249E+03  0.51046447257E+03  0.10205591666E+03 0.  0.
          5    1    3    3  502    0 -0.11032566533E+02  0.17628435798E+02  0.18584212627E+03  0.18706112683E+03  0.47000000000E+01 0. -1.
         -5    1    3    3    0  503  0.99453957843E+01 -0.23447000154E+02  0.10651755442E+03  0.10962094742E+03  0.47000000000E+01 0.  1.
          5    1    3    3  503    0 -0.22036377910E+02 -0.12850362676E+01  0.13630658811E+03  0.13816232928E+03  0.47000000000E+01 0. -1.
         -5    1    3    3    0  502  0.23123548659E+02  0.71036006240E+01  0.71492273693E+02  0.75620069044E+02  0.47000000000E+01 0.  1.
<mgrwt>
<rscale>  0 0.10205592E+03</rscale>
<asrwt>0</asrwt>
<pdfrwt beam="1">  1        1 0.77740193E-01 0.10205592E+03</pdfrwt>
<pdfrwt beam="2">  1       -1 0.79276425E-03 0.10205592E+03</pdfrwt>
<totfact> 0.10325582E+05</totfact>
</mgrwt>
</event>
<event>
 7    1  0.1028619E-012  0.9079698E+02  0.7546771E-02  0.1300933E+00
          1   -1    0    0  501    0  0.00000000000E+00  0.00000000000E+00  0.20297218198E+02  0.20297218198E+02  0.00000000000E+00 0. -1.
         -1   -1    0    0    0  501 -0.00000000000E+00 -0.00000000000E+00 -0.10154212507E+03  0.10154212507E+03  0.00000000000E+00 0.  1.
         23    2    1    2    0    0 -0.35527136788E-14  0.00000000000E+00 -0.81244906876E+02  0.12183934327E+03  0.90796975037E+02 0.  0.
          5    1    3    3  502    0 -0.18700663105E+02 -0.12842384197E+02 -0.13236777105E+02  0.26682276900E+02  0.47000000000E+01 0.  1.
         -5    1    3    3    0  502  0.19859578361E+02 -0.88830825037E+01 -0.35057117777E+02  0.41525937849E+02  0.47000000000E+01 0.  1.
          5    1    3    3  503    0 -0.18007355955E+02  0.99070566880E+01 -0.18494060046E+02  0.28045229499E+02  0.47000000000E+01 0. -1.
         -5    1    3    3    0  503  0.16848440699E+02  0.11818410013E+02 -0.14456951949E+02  0.25585899024E+02  0.47000000000E+01 0. -1.
<mgrwt>
<rscale>  0 0.90796975E+02</rscale>
<asrwt>0</asrwt>
<pdfrwt beam="1">  1        1 0.31226490E-02 0.90796975E+02</pdfrwt>
<pdfrwt beam="2">  1       -1 0.15621865E-01 0.90796975E+02</pdfrwt>
<totfact> 0.82015563E+04</totfact>
</mgrwt>
</event>
<event>
 7    1  0.1028619E-012  0.9137296E+02  0.7546771E-02  0.1299561E+00
         -1   -1    0    0    0  501 -0.00000000000E+00  0.00000000000E+00  0.14913859157E+02  0.14913859157E+02  0.00000000000E+00 0.  1.
          1   -1    0    0  501    0  0.00000000000E+00 -0.00000000000E+00 -0.13995400700E+03  0.13995400700E+03  0.00000000000E+00 0. -1.
         23    2    1    2    0    0  0.35527136788E-14  0.00000000000E+00 -0.12504014784E+03  0.15486786616E+03  0.91372957682E+02 0.  0.
          5    1    3    3  502    0 -0.46658220635E+00 -0.23076082850E+02 -0.31667574217E+02  0.39467056585E+02  0.47000000000E+01 0.  1.
         -5    1    3    3    0  503  0.23839661951E+01  0.20035736478E+02 -0.31880024807E+02  0.38020257926E+02  0.47000000000E+01 0. -1.
          5    1    3    3  503    0  0.19953271565E+02 -0.80195360245E+01 -0.28222307472E+02  0.35791544298E+02  0.47000000000E+01 0. -1.
         -5    1    3    3    0  502 -0.21870655554E+02  0.11059882397E+02 -0.33270241345E+02  0.41589007348E+02  0.47000000000E+01 0.  1.
<mgrwt>
<rscale>  0 0.91372958E+02</rscale>
<asrwt>0</asrwt>
<pdfrwt beam="1">  1        1 0.21531385E-01 0.91372958E+02</pdfrwt>
<pdfrwt beam="2">  1       -1 0.22944400E-02 0.91372958E+02</pdfrwt>
<totfact> 0.11008182E+05</totfact>
</mgrwt>
</event>
<event>
 7    1  0.1028619E-012  0.9468442E+02  0.7546771E-02  0.1291888E+00
          2   -1    0    0  501    0  0.00000000000E+00  0.00000000000E+00  0.55443108088E+03  0.55443108088E+03  0.00000000000E+00 0. -1.
         -2   -1    0    0    0  501 -0.00000000000E+00 -0.00000000000E+00 -0.40424948778E+01  0.40424948778E+01  0.00000000000E+00 0.  1.
         23    2    1    2    0    0  0.00000000000E+00 -0.17763568394E-14  0.55038858601E+03  0.55847357576E+03  0.94684419089E+02 0.  0.
          5    1    3    3  502    0 -0.18364884273E+02  0.19675903723E+02  0.11807526934E+03  0.12119517066E+03  0.47000000000E+01 0. -1.
         -5    1    3    3    0  502  0.18286770660E+02 -0.93850832716E+01  0.11842071682E+03  0.12028317398E+03  0.47000000000E+01 0. -1.
          5    1    3    3  503    0 -0.20629373571E+02 -0.76074908177E+01  0.14070407626E+03  0.14248919976E+03  0.47000000000E+01 0.  1.
         -5    1    3    3    0  503  0.20707487184E+02 -0.26833296341E+01  0.17318852358E+03  0.17450603137E+03  0.47000000000E+01 0.  1.
<mgrwt>
<rscale>  0 0.94684419E+02</rscale>
<asrwt>0</asrwt>
<pdfrwt beam="1">  1        2 0.85297029E-01 0.94684419E+02</pdfrwt>
<pdfrwt beam="2">  1       -2 0.62192273E-03 0.94684419E+02</pdfrwt>
<totfact> 0.20143193E+05</totfact>
</mgrwt>
</event>
<event>
 7    1  0.1028619E-012  0.1020640E+03  0.7546771E-02  0.1276014E+00
         -2   -1    0    0    0  501 -0.00000000000E+00  0.00000000000E+00  0.10884977415E+02  0.10884977415E+02  0.00000000000E+00 0.  1.
          2   -1    0    0  501    0  0.00000000000E+00 -0.00000000000E+00 -0.23925335917E+03  0.23925335917E+03  0.00000000000E+00 0. -1.
         23    2    1    2    0    0  0.35527136788E-14  0.00000000000E+00 -0.22836838175E+03  0.25013833658E+03  0.10206404678E+03 0.  0.
          5    1    3    3  502    0 -0.25178638006E+02  0.53626309870E+01 -0.67129735184E+02  0.72050072650E+02  0.47000000000E+01 0.  1.
         -5    1    3    3    0  503 -0.18713085402E+02 -0.92722033535E+01 -0.28416360505E+02  0.35577139635E+02  0.47000000000E+01 0.  1.
          5    1    3    3  503    0  0.28445536895E+02 -0.93708790718E+01 -0.87410725478E+02  0.92518575823E+02  0.47000000000E+01 0. -1.
         -5    1    3    3    0  502  0.15446186513E+02  0.13280451438E+02 -0.45411560584E+02  0.49992548474E+02  0.47000000000E+01 0.  1.
<mgrwt>
<rscale>  0 0.10206405E+03</rscale>
<asrwt>0</asrwt>
<pdfrwt beam="1">  1        2 0.36808209E-01 0.10206405E+03</pdfrwt>
<pdfrwt beam="2">  1       -2 0.16746119E-02 0.10206405E+03</pdfrwt>
<totfact> 0.12179786E+05</totfact>
</mgrwt>
</event>
<event>
 7    1  0.1028619E-012  0.8795224E+02  0.7546771E-02  0.1307888E+00
         -2   -1    0    0    0  501 -0.00000000000E+00  0.00000000000E+00  0.29268181671E+01  0.29268181671E+01  0.00000000000E+00 0.  1.
          2   -1    0    0  501    0  0.00000000000E+00 -0.00000000000E+00 -0.66075139286E+03  0.66075139286E+03  0.00000000000E+00 0. -1.
         23    2    1    2    0    0  0.17763568394E-14  0.00000000000E+00 -0.65782457469E+03  0.66367821102E+03  0.87952241143E+02 0.  0.
          5    1    3    3  502    0 -0.19582235585E+02 -0.71050616030E+01 -0.11356254821E+03  0.11555296710E+03  0.47000000000E+01 0. -1.
         -5    1    3    3    0  502  0.19292147213E+02  0.66081536603E+01 -0.16579091869E+03  0.16710647312E+03  0.47000000000E+01 0.  1.
          5    1    3    3  503    0  0.53717903096E+01  0.21003612306E+02 -0.17526328057E+03  0.17666158433E+03  0.47000000000E+01 0. -1.
         -5    1    3    3    0  503 -0.50817019383E+01 -0.20506704364E+02 -0.20320782722E+03  0.20435718647E+03  0.47000000000E+01 0.  1.
<mgrwt>
<rscale>  0 0.87952241E+02</rscale>
<asrwt>0</asrwt>
<pdfrwt beam="1">  1        2 0.10165403E+00 0.87952241E+02</pdfrwt>
<pdfrwt beam="2">  1       -2 0.45027986E-03 0.87952241E+02</pdfrwt>
<totfact> 0.25709477E+05</totfact>
</mgrwt>
</event>
<event>
 7    1  0.1028619E-012  0.9330069E+02  0.7546771E-02  0.1295050E+00
         -2   -1    0    0    0  501 -0.00000000000E+00  0.00000000000E+00  0.31075048806E+01  0.31075048806E+01  0.00000000000E+00 0.  1.
          2   -1    0    0  501    0  0.00000000000E+00 -0.00000000000E+00 -0.70032214980E+03  0.70032214980E+03  0.00000000000E+00 0. -1.
         23    2    1    2    0    0  0.00000000000E+00  0.35527136788E-14 -0.69721464492E+03  0.70342965468E+03  0.93300685925E+02 0.  0.
          5    1    3    3  502    0  0.14995634697E+02  0.17345138809E+02 -0.16449938334E+03  0.16615613145E+03  0.47000000000E+01 0. -1.
         -5    1    3    3    0  502 -0.54905144391E+01 -0.20877177716E+02 -0.14522933017E+03  0.14690013832E+03  0.47000000000E+01 0.  1.
          5    1    3    3  503    0  0.76030112135E+01  0.20542434406E+02 -0.21052749062E+03  0.21171611109E+03  0.47000000000E+01 0.  1.
         -5    1    3    3    0  503 -0.17108131472E+02 -0.17010395499E+02 -0.17695844080E+03  0.17865727382E+03  0.47000000000E+01 0. -1.
<mgrwt>
<rscale>  0 0.93300686E+02</rscale>
<asrwt>0</asrwt>
<pdfrwt beam="1">  1        2 0.10774186E+00 0.93300686E+02</pdfrwt>
<pdfrwt beam="2">  1       -2 0.47807773E-03 0.93300686E+02</pdfrwt>
<totfact> 0.22317313E+05</totfact>
</mgrwt>
</event>
<event>
 7    1  0.1028619E-012  0.9543137E+02  0.7546771E-02  0.1290207E+00
         -2   -1    0    0    0  501 -0.00000000000E+00  0.00000000000E+00  0.57709377780E+01  0.57709377780E+01  0.00000000000E+00 0.  1.
          2   -1    0    0  501    0  0.00000000000E+00 -0.00000000000E+00 -0.39452625916E+03  0.39452625916E+03  0.00000000000E+00 0. -1.
         23    2    1    2    0    0  0.00000000000E+00  0.17763568394E-14 -0.38875532138E+03  0.40029719693E+03  0.95431367870E+02 0.  0.
          5    1    3    3  502    0 -0.19440372805E+01  0.21005989268E+02 -0.92001270606E+02  0.94505844577E+02  0.47000000000E+01 0.  1.
         -5    1    3    3    0  503  0.25440969483E+02 -0.13082230330E+02 -0.10508338769E+03  0.10900915580E+03  0.47000000000E+01 0.  1.
          5    1    3    3  503    0 -0.18604381421E+02  0.11696202649E+02 -0.75588362092E+02  0.78858193285E+02  0.47000000000E+01 0. -1.
         -5    1    3    3    0  502 -0.48925507813E+01 -0.19619961587E+02 -0.11608230099E+03  0.11792400327E+03  0.47000000000E+01 0. -1.
<mgrwt>
<rscale>  0 0.95431368E+02</rscale>
<asrwt>0</asrwt>
<pdfrwt beam="1">  1        2 0.60696368E-01 0.95431368E+02</pdfrwt>
<pdfrwt beam="2">  1       -2 0.88783628E-03 0.95431368E+02</pdfrwt>
<totfact> 0.17592379E+05</totfact>
</mgrwt>
</event>
<event>
 7    1  0.1028619E-012  0.9045462E+02  0.7546771E-02  0.1301754E+00
         -4   -1    0    0    0  501 -0.00000000000E+00  0.00000000000E+00  0.41859107284E+02  0.41859107284E+02  0.00000000000E+00 0.  1.
          4   -1    0    0  501    0  0.00000000000E+00 -0.00000000000E+00 -0.48866537406E+02  0.48866537406E+02  0.00000000000E+00 0. -1.
         23    2    1    2    0    0  0.00000000000E+00  0.00000000000E+00 -0.70074301213E+01  0.90725644690E+02  0.90454621372E+02 0.  0.
          5    1    3    3  502    0 -0.19743051433E+02  0.63872849582E+01 -0.18243274160E+01  0.21354242191E+02  0.47000000000E+01 0.  1.
         -5    1    3    3    0  502  0.20675430561E+02  0.21347406428E+01 -0.49829518649E+01  0.21884934447E+02  0.47000000000E+01 0.  1.
          5    1    3    3  503    0 -0.22970303706E+02 -0.47559785955E+01 -0.42095465593E+01  0.24291242599E+02  0.47000000000E+01 0. -1.
         -5    1    3    3    0  503  0.22037924579E+02 -0.37660470055E+01  0.40093957189E+01  0.23195225453E+02  0.47000000000E+01 0. -1.
<mgrwt>
<rscale>  0 0.90454621E+02</rscale>
<asrwt>0</asrwt>
<pdfrwt beam="1">  1        4 0.75179289E-02 0.90454621E+02</pdfrwt>
<pdfrwt beam="2">  1       -4 0.64398626E-02 0.90454621E+02</pdfrwt>
<totfact> 0.27634661E+04</totfact>
</mgrwt>
</event>
<event>
 7    1  0.1028619E-012  0.9270413E+02  0.7546771E-02  0.1296432E+00
          3   -1    0    0  501    0  0.00000000000E+00  0.00000000000E+00  0.14386862930E+02  0.14386862930E+02  0.00000000000E+00 0. -1.
         -3   -1    0    0    0  501 -0.00000000000E+00 -0.00000000000E+00 -0.14933858781E+03  0.14933858781E+03  0.00000000000E+00 0.  1.
         23    2    1    2    0    0  0.35527136788E-14  0.00000000000E+00 -0.13495172488E+03  0.16372545074E+03  0.92704127047E+02 0.  0.
          5    1    3    3  502    0 -0.10059996776E+02  0.18032017556E+02 -0.14971683564E+02  0.25934504063E+02  0.47000000000E+01 0. -1.
         -5    1    3    3    0  503  0.12975511723E+02 -0.16123260788E+02 -0.26158216932E+02  0.33684800073E+02  0.47000000000E+01 0. -1.
          5    1    3    3  503    0 -0.19406403676E+02  0.11080407634E+02 -0.38695378513E+02  0.44931127910E+02  0.47000000000E+01 0.  1.
         -5    1    3    3    0  502  0.16490888730E+02 -0.12989164401E+02 -0.55126445866E+02  0.59175018689E+02  0.47000000000E+01 0.  1.
<mgrwt>
<rscale>  0 0.92704127E+02</rscale>
<asrwt>0</asrwt>
<pdfrwt beam="1">  1        3 0.22133635E-02 0.92704127E+02</pdfrwt>
<pdfrwt beam="2">  1       -3 0.22975168E-01 0.92704127E+02</pdfrwt>
<totfact> 0.29145398E+04</totfact>
</mgrwt>
</event>
<event>
 7    1  0.1028619E-012  0.9721521E+02  0.7546771E-02  0.1286263E+00
          2   -1    0    0  501    0  0.00000000000E+00  0.00000000000E+00  0.11873383209E+03  0.11873383209E+03  0.00000000000E+00 0. -1.
         -2   -1    0    0    0  501 -0.00000000000E+00 -0.00000000000E+00 -0.19899125967E+02  0.19899125967E+02  0.00000000000E+00 0.  1.
         23    2    1    2    0    0  0.00000000000E+00  0.35527136788E-14  0.98834706120E+02  0.13863295805E+03  0.97215214472E+02 0.  0.
          5    1    3    3  502    0 -0.11037033940E+01 -0.21300788263E+02  0.26171255490E+02  0.34087627605E+02  0.47000000000E+01 0. -1.
         -5    1    3    3    0  502 -0.22197021312E+02  0.47251224883E+01  0.18420076025E+02  0.29604454706E+02  0.47000000000E+01 0. -1.
          5    1    3    3  503    0  0.24278945978E+02 -0.38581976314E+01  0.46042123344E+02  0.52405343514E+02  0.47000000000E+01 0.  1.
         -5    1    3    3    0  503 -0.97822127163E+00  0.20433863407E+02  0.82012512614E+01  0.22535532229E+02  0.47000000000E+01 0.  1.
<mgrwt>
<rscale>  0 0.97215214E+02</rscale>
<asrwt>0</asrwt>
<pdfrwt beam="1">  1        2 0.18266743E-01 0.97215214E+02</pdfrwt>
<pdfrwt beam="2">  1       -2 0.30614041E-02 0.97215214E+02</pdfrwt>
<totfact> 0.10850378E+05</totfact>
</mgrwt>
</event>
<event>
 7    1  0.1028619E-012  0.9593483E+02  0.7546771E-02  0.1289084E+00
          1   -1    0    0  501    0  0.00000000000E+00  0.00000000000E+00  0.98143404347E+02  0.98143404347E+02  0.00000000000E+00 0. -1.
         -1   -1    0    0    0  501 -0.00000000000E+00 -0.00000000000E+00 -0.23443987692E+02  0.23443987692E+02  0.00000000000E+00 0.  1.
         23    2    1    2    0    0 -0.17763568394E-14  0.35527136788E-14  0.74699416655E+02  0.12158739204E+03  0.95934827118E+02 0.  0.
          5    1    3    3  502    0  0.25366686768E+02 -0.99450173062E+01  0.21965108752E+02  0.35311870090E+02  0.47000000000E+01 0.  1.
         -5    1    3    3    0  502 -0.13730127260E+02 -0.15258437502E+02  0.17317324878E+02  0.27263823109E+02  0.47000000000E+01 0. -1.
          5    1    3    3  503    0  0.10510707532E+02  0.21284430289E+02  0.17193221860E+02  0.29684993237E+02  0.47000000000E+01 0. -1.
         -5    1    3    3    0  503 -0.22147267040E+02  0.39190245185E+01  0.18223761164E+02  0.29326705602E+02  0.47000000000E+01 0.  1.
<mgrwt>
<rscale>  0 0.95934827E+02</rscale>
<asrwt>0</asrwt>
<pdfrwt beam="1">  1        1 0.15098985E-01 0.95934827E+02</pdfrwt>
<pdfrwt beam="2">  1       -1 0.36067674E-02 0.95934827E+02</pdfrwt>
<totfact> 0.90585825E+04</totfact>
</mgrwt>
</event>
<event>
 7    1  0.1028619E-012  0.9327542E+02  0.7546771E-02  0.1295108E+00
          2   -1    0    0  501    0  0.00000000000E+00  0.00000000000E+00  0.95394169494E+02  0.95394169494E+02  0.00000000000E+00 0. -1.
         -2   -1    0    0    0  501 -0.00000000000E+00 -0.00000000000E+00 -0.22800930467E+02  0.22800930467E+02  0.00000000000E+00 0.  1.
         23    2    1    2    0    0  0.00000000000E+00  0.00000000000E+00  0.72593239027E+02  0.11819509996E+03  0.93275416389E+02 0.  0.
          5    1    3    3  502    0  0.99647523195E+01 -0.27072877020E+02  0.27288076220E+02  0.39987073695E+02  0.47000000000E+01 0. -1.
         -5    1    3    3    0  502 -0.16709841453E+01  0.19981528895E+02  0.17681982861E+02  0.27143990180E+02  0.47000000000E+01 0.  1.
          5    1    3    3  503    0  0.99367974755E+01  0.17400304136E+02  0.83303879907E+01  0.22203510807E+02  0.47000000000E+01 0.  1.
         -5    1    3    3    0  503 -0.18230565650E+02 -0.10308956011E+02  0.19292791955E+02  0.28860525279E+02  0.47000000000E+01 0.  1.
<mgrwt>
<rscale>  0 0.93275416E+02</rscale>
<asrwt>0</asrwt>
<pdfrwt beam="1">  1        2 0.14676026E-01 0.93275416E+02</pdfrwt>
<pdfrwt beam="2">  1       -2 0.35078355E-02 0.93275416E+02</pdfrwt>
<totfact> 0.11356288E+05</totfact>
</mgrwt>
</event>
<event>
 7    1  0.1028619E-012  0.9206705E+02  0.7546771E-02  0.1297922E+00
          2   -1    0    0  501    0  0.00000000000E+00  0.00000000000E+00  0.19871741733E+03  0.19871741733E+03  0.00000000000E+00 0. -1.
         -2   -1    0    0    0  501 -0.00000000000E+00 -0.00000000000E+00 -0.10663813329E+02  0.10663813329E+02  0.00000000000E+00 0.  1.
         23    2    1    2    0    0  0.17763568394E-14 -0.17763568394E-14  0.18805360400E+03  0.20938123066E+03  0.92067050430E+02 0.  0.
          5    1    3    3  502    0 -0.23927508509E+02 -0.32785148515E+01  0.50438482122E+02  0.56119558105E+02  0.47000000000E+01 0.  1.
         -5    1    3    3    0  503  0.23058692013E+02  0.50356333094E+01  0.46220519934E+02  0.52110338160E+02  0.47000000000E+01 0. -1.
          5    1    3    3  503    0 -0.71541887100E+01 -0.20585697490E+02  0.44653382194E+02  0.49909597259E+02  0.47000000000E+01 0. -1.
         -5    1    3    3    0  502  0.80230052064E+01  0.18828579032E+02  0.46741219753E+02  0.51241737138E+02  0.47000000000E+01 0.  1.
<mgrwt>
<rscale>  0 0.92067050E+02</rscale>
<asrwt>0</asrwt>
<pdfrwt beam="1">  1        2 0.30571908E-01 0.92067050E+02</pdfrwt>
<pdfrwt beam="2">  1       -2 0.16405868E-02 0.92067050E+02</pdfrwt>
<totfact> 0.15032977E+05</totfact>
</mgrwt>
</event>
<event>
 7    1  0.1028619E-012  0.9053825E+02  0.7546771E-02  0.1301553E+00
          2   -1    0    0  501    0  0.00000000000E+00  0.00000000000E+00  0.74119026259E+03  0.74119026259E+03  0.00000000000E+00 0. -1.
         -2   -1    0    0    0  501 -0.00000000000E+00 -0.00000000000E+00 -0.27648687415E+01  0.27648687415E+01  0.00000000000E+00 0.  1.
         23    2    1    2    0    0  0.17763568394E-14  0.17763568394E-14  0.73842539385E+03  0.74395513133E+03  0.90538252436E+02 0.  0.
          5    1    3    3  502    0 -0.13097570515E+02  0.21358623957E+02  0.21908345614E+03  0.22056152866E+03  0.47000000000E+01 0. -1.
         -5    1    3    3    0  502  0.93347992013E+01 -0.18328364731E+02  0.17411986042E+03  0.17539350963E+03  0.47000000000E+01 0.  1.
          5    1    3    3  503    0 -0.17911818510E+02 -0.90003843427E+01  0.18447626228E+03  0.18562171615E+03  0.47000000000E+01 0. -1.
         -5    1    3    3    0  503  0.21674589824E+02  0.59701251163E+01  0.16074581501E+03  0.16237837689E+03  0.47000000000E+01 0.  1.
<mgrwt>
<rscale>  0 0.90538252E+02</rscale>
<asrwt>0</asrwt>
<pdfrwt beam="1">  1        2 0.11402911E+00 0.90538252E+02</pdfrwt>
<pdfrwt beam="2">  1       -2 0.42536501E-03 0.90538252E+02</pdfrwt>
<totfact> 0.24465843E+05</totfact>
</mgrwt>
</event>
<event>
 7    1  0.1028619E-012  0.9728457E+02  0.7546771E-02  0.1286112E+00
          3   -1    0    0  501    0  0.00000000000E+00  0.00000000000E+00  0.21272306600E+03  0.21272306600E+03  0.00000000000E+00 0. -1.
         -3   -1    0    0    0  501 -0.00000000000E+00 -0.00000000000E+00 -0.11122779088E+02  0.11122779088E+02  0.00000000000E+00 0.  1.
         23    2    1    2    0    0 -0.35527136788E-14  0.00000000000E+00  0.20160028691E+03  0.22384584509E+03  0.97284565480E+02 0.  0.
          5    1    3    3  502    0  0.21410368100E+02 -0.14082712366E+01  0.36989571607E+02  0.43019826798E+02  0.47000000000E+01 0. -1.
         -5    1    3    3    0  503 -0.20161808941E+02 -0.49013944152E+01  0.41808126465E+02  0.46909824616E+02  0.47000000000E+01 0.  1.
          5    1    3    3  503    0  0.18752421631E+02  0.12184615396E+02  0.25270748586E+02  0.34070792528E+02  0.47000000000E+01 0.  1.
         -5    1    3    3    0  502 -0.20000980790E+02 -0.58749497440E+01  0.97531840253E+02  0.99845401147E+02  0.47000000000E+01 0. -1.
<mgrwt>
<rscale>  0 0.97284565E+02</rscale>
<asrwt>0</asrwt>
<pdfrwt beam="1">  1        3 0.32726622E-01 0.97284565E+02</pdfrwt>
<pdfrwt beam="2">  1       -3 0.17111969E-02 0.97284565E+02</pdfrwt>
<totfact> 0.22913817E+04</totfact>
</mgrwt>
</event>
<event>
 7    1  0.1028619E-012  0.1000319E+03  0.7546771E-02  0.1280229E+00
          3   -1    0    0  501    0  0.00000000000E+00  0.00000000000E+00  0.28567245327E+02  0.28567245327E+02  0.00000000000E+00 0. -1.
         -3   -1    0    0    0  501 -0.00000000000E+00 -0.00000000000E+00 -0.87568668748E+02  0.87568668748E+02  0.00000000000E+00 0.  1.
         23    2    1    2    0    0  0.00000000000E+00  0.00000000000E+00 -0.59001423421E+02  0.11613591408E+03  0.10003190777E+03 0.  0.
          5    1    3    3  502    0  0.13669281578E+02 -0.17248847205E+02 -0.23413653644E+02  0.32475547197E+02  0.47000000000E+01 0. -1.
         -5    1    3    3    0  503 -0.20275536881E+02  0.48226582857E+01 -0.17942357251E+02  0.27899347886E+02  0.47000000000E+01 0.  1.
          5    1    3    3  503    0  0.25948178745E+02  0.18096752591E+02 -0.82380069928E+01  0.33026583137E+02  0.47000000000E+01 0. -1.
         -5    1    3    3    0  502 -0.19341923442E+02 -0.56705636714E+01 -0.94074055337E+01  0.22734435856E+02  0.47000000000E+01 0.  1.
<mgrwt>
<rscale>  0 0.10003191E+03</rscale>
<asrwt>0</asrwt>
<pdfrwt beam="1">  1        3 0.43949609E-02 0.10003191E+03</pdfrwt>
<pdfrwt beam="2">  1       -3 0.13472103E-01 0.10003191E+03</pdfrwt>
<totfact> 0.26010128E+04</totfact>
</mgrwt>
</event>
<event>
 7    1  0.1028619E-012  0.9668982E+02  0.7546771E-02  0.1287415E+00
          1   -1    0    0  501    0  0.00000000000E+00  0.00000000000E+00  0.34719769411E+02  0.34719769411E+02  0.00000000000E+00 0. -1.
         -1   -1    0    0    0  501 -0.00000000000E+00 -0.00000000000E+00 -0.67316982887E+02  0.67316982887E+02  0.00000000000E+00 0.  1.
         23    2    1    2    0    0  0.00000000000E+00  0.00000000000E+00 -0.32597213477E+02  0.10203675230E+03  0.96689815871E+02 0.  0.
          5    1    3    3  502    0  0.55498559897E+01 -0.23248699614E+02 -0.12186255867E+02  0.27237800339E+02  0.47000000000E+01 0. -1.
         -5    1    3    3    0  502 -0.23045999705E+02  0.50335625642E+01 -0.30975968493E+01  0.24251597076E+02  0.47000000000E+01 0.  1.
          5    1    3    3  503    0  0.23995586693E+02 -0.92079770818E+00 -0.16022240166E+01  0.24521279961E+02  0.47000000000E+01 0. -1.
         -5    1    3    3    0  503 -0.64994429776E+01  0.19135934758E+02 -0.15711136744E+02  0.26026074922E+02  0.47000000000E+01 0.  1.
<mgrwt>
<rscale>  0 0.96689816E+02</rscale>
<asrwt>0</asrwt>
<pdfrwt beam="1">  1        1 0.53415030E-02 0.96689816E+02</pdfrwt>
<pdfrwt beam="2">  1       -1 0.10356459E-01 0.96689816E+02</pdfrwt>
<totfact> 0.74982443E+04</totfact>
</mgrwt>
</event>
<event>
 7    1  0.1028619E-012  0.9435422E+02  0.7546771E-02  0.1292637E+00
         -1   -1    0    0    0  501 -0.00000000000E+00  0.00000000000E+00  0.98946020617E+02  0.98946020617E+02  0.00000000000E+00 0.  1.
          1   -1    0    0  501    0  0.00000000000E+00 -0.00000000000E+00 -0.22493878969E+02  0.22493878969E+02  0.00000000000E+00 0. -1.
         23    2    1    2    0    0  0.00000000000E+00  0.44408920985E-15  0.76452141648E+02  0.12143989959E+03  0.94354222210E+02 0.  0.
          5    1    3    3  502    0 -0.21848041696E+02  0.20117089090E+01  0.16382267144E+02  0.27782234890E+02  0.47000000000E+01 0.  1.
         -5    1    3    3    0  502  0.19928515485E+02 -0.29053302137E+01  0.32565426884E+02  0.38576984087E+02  0.47000000000E+01 0.  1.
          5    1    3    3  503    0  0.17224499205E+02 -0.16299058635E+02  0.12639587107E+02  0.27279879903E+02  0.47000000000E+01 0. -1.
         -5    1    3    3    0  503 -0.15304972994E+02  0.17192679940E+02  0.14864860513E+02  0.27800800706E+02  0.47000000000E+01 0. -1.
<mgrwt>
<rscale>  0 0.94354222E+02</rscale>
<asrwt>0</asrwt>
<pdfrwt beam="1">  1        1 0.34605968E-02 0.94354222E+02</pdfrwt>
<pdfrwt beam="2">  1       -1 0.15222464E-01 0.94354222E+02</pdfrwt>
<totfact> 0.74638947E+04</totfact>
</mgrwt>
</event>
<event>
 7    1  0.1028619E-012  0.9106115E+02  0.7546771E-02  0.1300302E+00
         -1   -1    0    0    0  501 -0.00000000000E+00  0.00000000000E+00  0.16392588923E+02  0.16392588923E+02  0.00000000000E+00 0.  1.
          1   -1    0    0  501    0  0.00000000000E+00 -0.00000000000E+00 -0.12646160804E+03  0.12646160804E+03  0.00000000000E+00 0. -1.
         23    2    1    2    0    0 -0.17763568394E-14  0.88817841970E-15 -0.11006901912E+03  0.14285419697E+03  0.91061147703E+02 0.  0.
          5    1    3    3  502    0  0.42131673949E+01 -0.20367482920E+02 -0.26483836203E+02  0.34001010574E+02  0.47000000000E+01 0. -1.
         -5    1    3    3    0  503  0.23675384635E+02 -0.53529599318E+01 -0.44091638018E+02  0.50550376465E+02  0.47000000000E+01 0.  1.
          5    1    3    3  503    0 -0.19532961195E+02  0.74291633979E+01 -0.14429454082E+02  0.25826888836E+02  0.47000000000E+01 0.  1.
         -5    1    3    3    0  502 -0.83555908354E+01  0.18291279454E+02 -0.25064090817E+02  0.32475921092E+02  0.47000000000E+01 0. -1.
<mgrwt>
<rscale>  0 0.91061148E+02</rscale>
<asrwt>0</asrwt>
<pdfrwt beam="1">  1        1 0.19455632E-01 0.91061148E+02</pdfrwt>
<pdfrwt beam="2">  1       -1 0.25219368E-02 0.91061148E+02</pdfrwt>
<totfact> 0.10910888E+05</totfact>
</mgrwt>
</event>
<event>
 7    1  0.1028619E-012  0.9344896E+02  0.7546771E-02  0.1294708E+00
         -4   -1    0    0    0  501 -0.00000000000E+00  0.00000000000E+00  0.18866694144E+03  0.18866694144E+03  0.00000000000E+00 0. -1.
          4   -1    0    0  501    0  0.00000000000E+00 -0.00000000000E+00 -0.11571591732E+02  0.11571591732E+02  0.00000000000E+00 0.  1.
         23    2    1    2    0    0  0.00000000000E+00 -0.17763568394E-14  0.17709534971E+03  0.20023853317E+03  0.93448955471E+02 0.  0.
          5    1    3    3  502    0  0.19607135035E+02 -0.71940629313E+01  0.45738669236E+02  0.50500595533E+02  0.47000000000E+01 0. -1.
         -5    1    3    3    0  503 -0.18592414175E+02  0.18713080810E+02  0.58165878381E+02  0.64040742235E+02  0.47000000000E+01 0.  1.
          5    1    3    3  503    0  0.19704385496E+02 -0.99723224627E+01  0.30085065652E+02  0.37615305374E+02  0.47000000000E+01 0.  1.
         -5    1    3    3    0  502 -0.20719106355E+02 -0.15466954163E+01  0.43105736438E+02  0.48081890029E+02  0.47000000000E+01 0. -1.
<mgrwt>
<rscale>  0 0.93448955E+02</rscale>
<asrwt>0</asrwt>
<pdfrwt beam="1">  1        4 0.17802450E-02 0.93448955E+02</pdfrwt>
<pdfrwt beam="2">  1       -4 0.29025681E-01 0.93448955E+02</pdfrwt>
<totfact> 0.20008662E+04</totfact>
</mgrwt>
</event>
<event>
 7    1  0.1734101E-012  0.8861884E+02  0.7546771E-02  0.1306231E+00
         -1   -1    0    0    0  501 -0.00000000000E+00  0.00000000000E+00  0.62862109677E+01  0.62862109677E+01  0.00000000000E+00 0.  1.
          1   -1    0    0  501    0  0.00000000000E+00 -0.00000000000E+00 -0.31232245632E+03  0.31232245632E+03  0.00000000000E+00 0. -1.
         23    2    1    2    0    0  0.00000000000E+00  0.00000000000E+00 -0.30603624535E+03  0.31860866729E+03  0.88618843377E+02 0.  0.
          5    1    3    3  502    0  0.72354081637E+01  0.19166431011E+02 -0.87936147792E+02  0.90413269477E+02  0.47000000000E+01 0.  1.
         -5    1    3    3    0  503  0.45278524235E+01 -0.20533756060E+02 -0.64825076931E+02  0.68311911002E+02  0.47000000000E+01 0. -1.
          5    1    3    3  503    0 -0.39433804971E+01  0.21662737118E+02 -0.91289657702E+02  0.94025081933E+02  0.47000000000E+01 0. -1.
         -5    1    3    3    0  502 -0.78198800901E+01 -0.20295412068E+02 -0.61985362926E+02  0.65858404875E+02  0.47000000000E+01 0.  1.
<mgrwt>
<rscale>  0 0.88618843E+02</rscale>
<asrwt>0</asrwt>
<pdfrwt beam="1">  1        1 0.48049599E-01 0.88618843E+02</pdfrwt>
<pdfrwt beam="2">  1       -1 0.96710957E-03 0.88618843E+02</pdfrwt>
<totfact> 0.13924584E+05</totfact>
</mgrwt>
</event>
<event>
 7    1  0.1028619E-012  0.9241807E+02  0.7546771E-02  0.1297099E+00
         -2   -1    0    0    0  501 -0.00000000000E+00  0.00000000000E+00  0.40557042270E+01  0.40557042270E+01  0.00000000000E+00 0.  1.
          2   -1    0    0  501    0  0.00000000000E+00 -0.00000000000E+00 -0.52648684497E+03  0.52648684497E+03  0.00000000000E+00 0. -1.
         23    2    1    2    0    0 -0.17763568394E-14 -0.35527136788E-14 -0.52243114074E+03  0.53054254919E+03  0.92418070150E+02 0.  0.
          5    1    3    3  502    0  0.99882715195E+01  0.20219380954E+02 -0.18457487618E+03  0.18600689194E+03  0.47000000000E+01 0. -1.
         -5    1    3    3    0  503 -0.18077399737E+02  0.15777689772E+02 -0.14356412766E+03  0.14563130373E+03  0.47000000000E+01 0.  1.
          5    1    3    3  503    0  0.13036725954E+02 -0.16111804155E+02 -0.85685952678E+02  0.88282042020E+02  0.47000000000E+01 0.  1.
         -5    1    3    3    0  502 -0.49475977365E+01 -0.19885266571E+02 -0.10860618422E+03  0.11062231150E+03  0.47000000000E+01 0.  1.
<mgrwt>
<rscale>  0 0.92418070E+02</rscale>
<asrwt>0</asrwt>
<pdfrwt beam="1">  1        2 0.80997967E-01 0.92418070E+02</pdfrwt>
<pdfrwt beam="2">  1       -2 0.62395456E-03 0.92418070E+02</pdfrwt>
<totfact> 0.21137944E+05</totfact>
</mgrwt>
</event>
<event>
 7    1  0.1028619E-012  0.9633424E+02  0.7546771E-02  0.1288199E+00
          2   -1    0    0  501    0  0.00000000000E+00  0.00000000000E+00  0.54979333499E+02  0.54979333499E+02  0.00000000000E+00 0.  1.
         -2   -1    0    0    0  501 -0.00000000000E+00 -0.00000000000E+00 -0.42198976461E+02  0.42198976461E+02  0.00000000000E+00 0. -1.
         23    2    1    2    0    0  0.44408920985E-15  0.00000000000E+00  0.12780357038E+02  0.97178309960E+02  0.96334243137E+02 0.  0.
          5    1    3    3  502    0 -0.29987605191E+01  0.21250378225E+02  0.89248073648E+01  0.23713146688E+02  0.47000000000E+01 0.  1.
         -5    1    3    3    0  502  0.48608119739E+01 -0.19840275259E+02 -0.79687979534E+01  0.22424445506E+02  0.47000000000E+01 0.  1.
          5    1    3    3  503    0 -0.10714602626E+02  0.20772047916E+02 -0.30971657015E+00  0.23842537793E+02  0.47000000000E+01 0. -1.
         -5    1    3    3    0  503  0.88525511717E+01 -0.22182150881E+02  0.12134064197E+02  0.27198179974E+02  0.47000000000E+01 0. -1.
<mgrwt>
<rscale>  0 0.96334243E+02</rscale>
<asrwt>0</asrwt>
<pdfrwt beam="1">  1        2 0.84583590E-02 0.96334243E+02</pdfrwt>
<pdfrwt beam="2">  1       -2 0.64921502E-02 0.96334243E+02</pdfrwt>
<totfact> 0.88577657E+04</totfact>
</mgrwt>
</event>
<event>
 7    1  0.1028619E-012  0.1003964E+03  0.7546771E-02  0.1279465E+00
          2   -1    0    0  501    0  0.00000000000E+00  0.00000000000E+00  0.34467472771E+02  0.34467472771E+02  0.00000000000E+00 0. -1.
         -2   -1    0    0    0  501 -0.00000000000E+00 -0.00000000000E+00 -0.73108353791E+02  0.73108353791E+02  0.00000000000E+00 0.  1.
         23    2    1    2    0    0  0.00000000000E+00  0.17763568394E-14 -0.38640881020E+02  0.10757582656E+03  0.10039641813E+03 0.  0.
          5    1    3    3  502    0 -0.24051226009E+02 -0.83041405050E+01 -0.86748943589E+01  0.27290364861E+02  0.47000000000E+01 0. -1.
         -5    1    3    3    0  503 -0.20580169501E+02  0.86771075003E+00 -0.15636042694E+02  0.26284446537E+02  0.47000000000E+01 0. -1.
          5    1    3    3  503    0  0.26284091395E+02 -0.61660506656E+01 -0.13786959073E+02  0.30676438544E+02  0.47000000000E+01 0.  1.
         -5    1    3    3    0  502  0.18347304115E+02  0.13602480421E+02 -0.54298489419E+00  0.23324576619E+02  0.47000000000E+01 0.  1.
<mgrwt>
<rscale>  0 0.10039642E+03</rscale>
<asrwt>0</asrwt>
<pdfrwt beam="1">  1        2 0.53026882E-02 0.10039642E+03</pdfrwt>
<pdfrwt beam="2">  1       -2 0.11247439E-01 0.10039642E+03</pdfrwt>
<totfact> 0.68949901E+04</totfact>
</mgrwt>
</event>
<event>
 7    1  0.1028619E-012  0.9091415E+02  0.7546771E-02  0.1300653E+00
         -2   -1    0    0    0  501 -0.00000000000E+00  0.00000000000E+00  0.46057386758E+01  0.46057386758E+01  0.00000000000E+00 0. -1.
          2   -1    0    0  501    0  0.00000000000E+00 -0.00000000000E+00 -0.44864590521E+03  0.44864590521E+03  0.00000000000E+00 0.  1.
         23    2    1    2    0    0  0.88817841970E-15  0.00000000000E+00 -0.44404016654E+03  0.45325164389E+03  0.90914152856E+02 0.  0.
          5    1    3    3  502    0 -0.69374905505E+01  0.19272660292E+02 -0.11532603331E+03  0.11722520279E+03  0.47000000000E+01 0.  1.
         -5    1    3    3    0  503  0.19867258624E+02  0.60424135566E+01 -0.12084120462E+03  0.12270250796E+03  0.47000000000E+01 0. -1.
          5    1    3    3  503    0 -0.20164842541E+02 -0.19455810548E+01 -0.12731135924E+03  0.12899875330E+03  0.47000000000E+01 0. -1.
         -5    1    3    3    0  502  0.72350744684E+01 -0.23369492794E+02 -0.80561569364E+02  0.84325179836E+02  0.47000000000E+01 0.  1.
<mgrwt>
<rscale>  0 0.90914153E+02</rscale>
<asrwt>0</asrwt>
<pdfrwt beam="1">  1        2 0.69022482E-01 0.90914153E+02</pdfrwt>
<pdfrwt beam="2">  1       -2 0.70857482E-03 0.90914153E+02</pdfrwt>
<totfact> 0.20942044E+05</totfact>
</mgrwt>
</event>
<event>
 7    1  0.1028619E-012  0.9262027E+02  0.7546771E-02  0.1296628E+00
         -2   -1    0    0    0  501 -0.00000000000E+00  0.00000000000E+00  0.19274974272E+02  0.19274974272E+02  0.00000000000E+00 0. -1.
          2   -1    0    0  501    0  0.00000000000E+00 -0.00000000000E+00 -0.11126493215E+03  0.11126493215E+03  0.00000000000E+00 0.  1.
         23    2    1    2    0    0  0.00000000000E+00  0.88817841970E-15 -0.91989957877E+02  0.13053990642E+03  0.92620272177E+02 0.  0.
          5    1    3    3  502    0 -0.20498342433E+02 -0.69099545953E+01 -0.19375948913E+02  0.29418479078E+02  0.47000000000E+01 0. -1.
         -5    1    3    3    0  503  0.44087681750E+01  0.19894599200E+02 -0.22014524505E+02  0.30363820632E+02  0.47000000000E+01 0.  1.
          5    1    3    3  503    0 -0.70751200906E+01 -0.20014090289E+02 -0.11672545522E+02  0.24677103829E+02  0.47000000000E+01 0. -1.
         -5    1    3    3    0  502  0.23164694349E+02  0.70294456841E+01 -0.38926938937E+02  0.46080502882E+02  0.47000000000E+01 0. -1.
<mgrwt>
<rscale>  0 0.92620272E+02</rscale>
<asrwt>0</asrwt>
<pdfrwt beam="1">  1        2 0.17117682E-01 0.92620272E+02</pdfrwt>
<pdfrwt beam="2">  1       -2 0.29653807E-02 0.92620272E+02</pdfrwt>
<totfact> 0.12143648E+05</totfact>
</mgrwt>
</event>
<event>
 7    1  0.1028619E-012  0.9813468E+02  0.7546771E-02  0.1284268E+00
          1   -1    0    0  501    0  0.00000000000E+00  0.00000000000E+00  0.83026977500E+02  0.83026977500E+02  0.00000000000E+00 0. -1.
         -1   -1    0    0    0  501 -0.00000000000E+00 -0.00000000000E+00 -0.28997850712E+02  0.28997850712E+02  0.00000000000E+00 0.  1.
         23    2    1    2    0    0  0.17763568394E-14  0.00000000000E+00  0.54029126789E+02  0.11202482821E+03  0.98134680895E+02 0.  0.
          5    1    3    3  502    0 -0.14906298028E+02  0.15154281541E+02  0.11617512547E+02  0.24676032252E+02  0.47000000000E+01 0.  1.
         -5    1    3    3    0  503  0.15347208826E+02 -0.13142476839E+02 -0.58829090893E-03  0.20744915438E+02  0.47000000000E+01 0. -1.
          5    1    3    3  503    0 -0.23784181087E+02  0.78603287287E+01  0.23066821162E+02  0.34374994927E+02  0.47000000000E+01 0. -1.
         -5    1    3    3    0  502  0.23343270290E+02 -0.98721334307E+01  0.19345381371E+02  0.32228885594E+02  0.47000000000E+01 0.  1.
<mgrwt>
<rscale>  0 0.98134681E+02</rscale>
<asrwt>0</asrwt>
<pdfrwt beam="1">  1        1 0.12773381E-01 0.98134681E+02</pdfrwt>
<pdfrwt beam="2">  1       -1 0.44612078E-02 0.98134681E+02</pdfrwt>
<totfact> 0.82737754E+04</totfact>
</mgrwt>
</event>
<event>
 7    1  0.1028619E-012  0.9500946E+02  0.7546771E-02  0.1291155E+00
          1   -1    0    0  501    0  0.00000000000E+00  0.00000000000E+00  0.82954078861E+02  0.82954078861E+02  0.00000000000E+00 0. -1.
         -1   -1    0    0    0  501 -0.00000000000E+00 -0.00000000000E+00 -0.27204202172E+02  0.27204202172E+02  0.00000000000E+00 0.  1.
         23    2    1    2    0    0  0.00000000000E+00  0.00000000000E+00  0.55749876689E+02  0.11015828103E+03  0.95009463367E+02 0.  0.
          5    1    3    3  502    0  0.69807631183E+01 -0.23940593592E+02  0.14852568257E+02  0.29403602825E+02  0.47000000000E+01 0.  1.
         -5    1    3    3    0  502 -0.22626644997E+02  0.19764473897E+01  0.11628230472E+02  0.25945657672E+02  0.47000000000E+01 0.  1.
          5    1    3    3  503    0 -0.48498447308E+01  0.24111284350E+02  0.13572903184E+02  0.28481375103E+02  0.47000000000E+01 0. -1.
         -5    1    3    3    0  503  0.20495726609E+02 -0.21471381470E+01  0.15696174777E+02  0.26327645434E+02  0.47000000000E+01 0. -1.
<mgrwt>
<rscale>  0 0.95009463E+02</rscale>
<asrwt>0</asrwt>
<pdfrwt beam="1">  1        1 0.12762166E-01 0.95009463E+02</pdfrwt>
<pdfrwt beam="2">  1       -1 0.41852619E-02 0.95009463E+02</pdfrwt>
<totfact> 0.90470981E+04</totfact>
</mgrwt>
</event>
<event>
 7    1  0.1028619E-012  0.9732986E+02  0.7546771E-02  0.1286013E+00
         -3   -1    0    0    0  501 -0.00000000000E+00  0.00000000000E+00  0.68171750502E+03  0.68171750502E+03  0.00000000000E+00 0.  1.
          3   -1    0    0  501    0  0.00000000000E+00 -0.00000000000E+00 -0.34739832181E+01  0.34739832181E+01  0.00000000000E+00 0. -1.
         23    2    1    2    0    0  0.00000000000E+00 -0.35527136788E-14  0.67824352180E+03  0.68519148824E+03  0.97329855068E+02 0.  0.
          5    1    3    3  502    0 -0.27430163037E+02 -0.33574960025E+00  0.21016554904E+03  0.21200041173E+03  0.47000000000E+01 0. -1.
         -5    1    3    3    0  503  0.17088886298E+02  0.11979026214E+02  0.12799149927E+03  0.12976687170E+03  0.47000000000E+01 0.  1.
          5    1    3    3  503    0 -0.58137311359E+01 -0.24460146836E+02  0.15004256659E+03  0.15220696449E+03  0.47000000000E+01 0. -1.
         -5    1    3    3    0  502  0.16155007875E+02  0.12816870223E+02  0.19004390691E+03  0.19121724032E+03  0.47000000000E+01 0.  1.
<mgrwt>
<rscale>  0 0.97329855E+02</rscale>
<asrwt>0</asrwt>
<pdfrwt beam="1">  1        3 0.53445950E-03 0.97329855E+02</pdfrwt>
<pdfrwt beam="2">  1       -3 0.10487951E+00 0.97329855E+02</pdfrwt>
<totfact> 0.11872794E+04</totfact>
</mgrwt>
</event>
<event>
 7    1  0.1028619E-012  0.9230529E+02  0.7546771E-02  0.1297363E+00
          2   -1    0    0  501    0  0.00000000000E+00  0.00000000000E+00  0.44097820862E+02  0.44097820862E+02  0.00000000000E+00 0.  1.
         -2   -1    0    0    0  501 -0.00000000000E+00 -0.00000000000E+00 -0.48303221424E+02  0.48303221424E+02  0.00000000000E+00 0. -1.
         23    2    1    2    0    0  0.00000000000E+00  0.00000000000E+00 -0.42054005619E+01  0.92401042287E+02  0.92305293574E+02 0.  0.
          5    1    3    3  502    0  0.98972058618E+01  0.17793680601E+02  0.96397370579E+01  0.23012698315E+02  0.47000000000E+01 0.  1.
         -5    1    3    3    0  502  0.20854022107E+02 -0.53785842374E+00  0.24926821061E+01  0.21528655179E+02  0.47000000000E+01 0.  1.
          5    1    3    3  503    0 -0.21866227505E+02  0.18987293068E+01 -0.13093956439E+02  0.25986126558E+02  0.47000000000E+01 0. -1.
         -5    1    3    3    0  503 -0.88850004639E+01 -0.19154551484E+02 -0.32438632873E+01  0.21873562234E+02  0.47000000000E+01 0.  1.
<mgrwt>
<rscale>  0 0.92305294E+02</rscale>
<asrwt>0</asrwt>
<pdfrwt beam="1">  1        2 0.67842802E-02 0.92305294E+02</pdfrwt>
<pdfrwt beam="2">  1       -2 0.74312647E-02 0.92305294E+02</pdfrwt>
<totfact> 0.94419403E+04</totfact>
</mgrwt>
</event>
<event>
 7    1  0.1028619E-012  0.9736404E+02  0.7546771E-02  0.1285939E+00
          2   -1    0    0  501    0  0.00000000000E+00  0.00000000000E+00  0.23427049687E+03  0.23427049687E+03  0.00000000000E+00 0.  1.
         -2   -1    0    0    0  501 -0.00000000000E+00 -0.00000000000E+00 -0.10116249717E+02  0.10116249717E+02  0.00000000000E+00 0. -1.
         23    2    1    2    0    0  0.00000000000E+00  0.00000000000E+00  0.22415424715E+03  0.24438674659E+03  0.97364035407E+02 0.  0.
          5    1    3    3  502    0  0.14848425592E+02  0.16161257236E+02  0.46275901114E+02  0.51431614809E+02  0.47000000000E+01 0. -1.
         -5    1    3    3    0  503 -0.15258199952E+02 -0.14383489077E+02  0.38341489936E+02  0.43952898361E+02  0.47000000000E+01 0.  1.
          5    1    3    3  503    0  0.24108064195E+02  0.44969369274E+01  0.47788416258E+02  0.53918864319E+02  0.47000000000E+01 0. -1.
         -5    1    3    3    0  502 -0.23698289834E+02 -0.62747050865E+01  0.91748439846E+02  0.95083369099E+02  0.47000000000E+01 0.  1.
<mgrwt>
<rscale>  0 0.97364035E+02</rscale>
<asrwt>0</asrwt>
<pdfrwt beam="1">  1        2 0.36041611E-01 0.97364035E+02</pdfrwt>
<pdfrwt beam="2">  1       -2 0.15563463E-02 0.97364035E+02</pdfrwt>
<totfact> 0.13731236E+05</totfact>
</mgrwt>
</event>
<event>
 7    1  0.1028619E-012  0.9208111E+02  0.7546771E-02  0.1297889E+00
          3   -1    0    0  501    0  0.00000000000E+00  0.00000000000E+00  0.15086489128E+02  0.15086489128E+02  0.00000000000E+00 0. -1.
         -3   -1    0    0    0  501 -0.00000000000E+00 -0.00000000000E+00 -0.14050537012E+03  0.14050537012E+03  0.00000000000E+00 0.  1.
         23    2    1    2    0    0  0.17763568394E-14 -0.26645352591E-14 -0.12541888100E+03  0.15559185925E+03  0.92081110740E+02 0.  0.
          5    1    3    3  502    0  0.20538906967E+02  0.42407530412E+01 -0.30695987654E+02  0.37472180932E+02  0.47000000000E+01 0. -1.
         -5    1    3    3    0  502 -0.22342611035E+02  0.11834162483E+01 -0.30750950009E+02  0.38318450756E+02  0.47000000000E+01 0. -1.
          5    1    3    3  503    0  0.16601216196E+02  0.14215867413E+02 -0.34764980631E+02  0.41332615980E+02  0.47000000000E+01 0.  1.
         -5    1    3    3    0  503 -0.14797512128E+02 -0.19640036703E+02 -0.29206962701E+02  0.38468611582E+02  0.47000000000E+01 0.  1.
<mgrwt>
<rscale>  0 0.92081111E+02</rscale>
<asrwt>0</asrwt>
<pdfrwt beam="1">  1        3 0.23209983E-02 0.92081111E+02</pdfrwt>
<pdfrwt beam="2">  1       -3 0.21616211E-01 0.92081111E+02</pdfrwt>
<totfact> 0.30151201E+04</totfact>
</mgrwt>
</event>
<event>
 7    1  0.1028619E-012  0.9565671E+02  0.7546771E-02  0.1289704E+00
         -1   -1    0    0    0  501 -0.00000000000E+00  0.00000000000E+00  0.79588658758E+01  0.79588658758E+01  0.00000000000E+00 0.  1.
          1   -1    0    0  501    0  0.00000000000E+00 -0.00000000000E+00 -0.28742179047E+03  0.28742179047E+03  0.00000000000E+00 0. -1.
         23    2    1    2    0    0  0.00000000000E+00  0.00000000000E+00 -0.27946292460E+03  0.29538065635E+03  0.95656708707E+02 0.  0.
          5    1    3    3  502    0  0.37602437295E+01  0.22485416596E+02 -0.60957773422E+02  0.65250850822E+02  0.47000000000E+01 0. -1.
         -5    1    3    3    0  503  0.51829303566E+01 -0.20331674665E+02 -0.11853064099E+03  0.12046510953E+03  0.47000000000E+01 0.  1.
          5    1    3    3  503    0 -0.17184635319E+02  0.16331917974E+02 -0.57799165087E+02  0.62648836545E+02  0.47000000000E+01 0. -1.
         -5    1    3    3    0  502  0.82414612325E+01 -0.18485659905E+02 -0.42175345101E+02  0.47015859450E+02  0.47000000000E+01 0.  1.
<mgrwt>
<rscale>  0 0.95656709E+02</rscale>
<asrwt>0</asrwt>
<pdfrwt beam="1">  1        1 0.44218726E-01 0.95656709E+02</pdfrwt>
<pdfrwt beam="2">  1       -1 0.12244412E-02 0.95656709E+02</pdfrwt>
<totfact> 0.11177655E+05</totfact>
</mgrwt>
</event>
<event>
 7    1  0.1028619E-012  0.1003456E+03  0.7546771E-02  0.1279571E+00
         -1   -1    0    0    0  501 -0.00000000000E+00  0.00000000000E+00  0.38837513832E+03  0.38837513832E+03  0.00000000000E+00 0.  1.
          1   -1    0    0  501    0  0.00000000000E+00 -0.00000000000E+00 -0.64816482887E+01  0.64816482887E+01  0.00000000000E+00 0. -1.
         23    2    1    2    0    0  0.00000000000E+00 -0.71054273576E-14  0.38189349003E+03  0.39485678661E+03  0.10034562373E+03 0.  0.
          5    1    3    3  502    0 -0.44149487520E+01 -0.26538527218E+02  0.95215362640E+02  0.99054734778E+02  0.47000000000E+01 0.  1.
         -5    1    3    3    0  503  0.15208298196E+02  0.13154095196E+02  0.14248166163E+03  0.14397026240E+03  0.47000000000E+01 0.  1.
          5    1    3    3  503    0  0.10672403252E+02  0.17904544357E+02  0.41098340752E+02  0.46321015882E+02  0.47000000000E+01 0. -1.
         -5    1    3    3    0  502 -0.21465752697E+02 -0.45201123358E+01  0.10309812501E+03  0.10551077355E+03  0.47000000000E+01 0. -1.
<mgrwt>
<rscale>  0 0.10034562E+03</rscale>
<asrwt>0</asrwt>
<pdfrwt beam="1">  1        1 0.99717696E-03 0.10034562E+03</pdfrwt>
<pdfrwt beam="2">  1       -1 0.59750003E-01 0.10034562E+03</pdfrwt>
<totfact> 0.42034831E+04</totfact>
</mgrwt>
</event>
<event>
 7    1  0.1028619E-012  0.1008591E+03  0.7546771E-02  0.1278500E+00
         -1   -1    0    0    0  501 -0.00000000000E+00  0.00000000000E+00  0.69764755231E+02  0.69764755231E+02  0.00000000000E+00 0.  1.
          1   -1    0    0  501    0  0.00000000000E+00 -0.00000000000E+00 -0.36453088037E+02  0.36453088037E+02  0.00000000000E+00 0. -1.
         23    2    1    2    0    0  0.88817841970E-15  0.00000000000E+00  0.33311667194E+02  0.10621784327E+03  0.10085912481E+03 0.  0.
          5    1    3    3  502    0  0.80467992541E+01  0.20733398530E+02 -0.73201918859E+01  0.23880954798E+02  0.47000000000E+01 0. -1.
         -5    1    3    3    0  502 -0.39912296795E+01 -0.21870114537E+02  0.43021672958E+01  0.23126401961E+02  0.47000000000E+01 0.  1.
          5    1    3    3  503    0 -0.12330095265E+02 -0.18785446359E+02  0.26448305164E+02  0.35021808780E+02  0.47000000000E+01 0.  1.
         -5    1    3    3    0  503  0.82745256909E+01  0.19922162366E+02  0.98813866194E+01  0.24188677729E+02  0.47000000000E+01 0.  1.
<mgrwt>
<rscale>  0 0.10085912E+03</rscale>
<asrwt>0</asrwt>
<pdfrwt beam="1">  1        1 0.56081674E-02 0.10085912E+03</pdfrwt>
<pdfrwt beam="2">  1       -1 0.10733039E-01 0.10085912E+03</pdfrwt>
<totfact> 0.66926682E+04</totfact>
</mgrwt>
</event>
<event>
 7    1  0.1028619E-012  0.9371207E+02  0.7546771E-02  0.1294103E+00
          2   -1    0    0  501    0  0.00000000000E+00  0.00000000000E+00  0.53907164710E+01  0.53907164710E+01  0.00000000000E+00 0. -1.
         -2   -1    0    0    0  501 -0.00000000000E+00 -0.00000000000E+00 -0.40727198614E+03  0.40727198614E+03  0.00000000000E+00 0.  1.
         23    2    1    2    0    0  0.00000000000E+00 -0.17763568394E-14 -0.40188126967E+03  0.41266270261E+03  0.93712065474E+02 0.  0.
          5    1    3    3  502    0 -0.20767744355E+02  0.72067892414E+01 -0.13304196991E+03  0.13492773168E+03  0.47000000000E+01 0. -1.
         -5    1    3    3    0  503  0.22504249829E+02 -0.58505998368E+01 -0.97016003031E+02  0.99874249048E+02  0.47000000000E+01 0. -1.
          5    1    3    3  503    0 -0.22444199515E+02 -0.42180687616E+01 -0.10957244557E+03  0.11202564449E+03  0.47000000000E+01 0.  1.
         -5    1    3    3    0  502  0.20707694041E+02  0.28618793571E+01 -0.62250851156E+02  0.65835077395E+02  0.47000000000E+01 0.  1.
<mgrwt>
<rscale>  0 0.93712065E+02</rscale>
<asrwt>0</asrwt>
<pdfrwt beam="1">  1        2 0.82934065E-03 0.93712065E+02</pdfrwt>
<pdfrwt beam="2">  1       -2 0.62657255E-01 0.93712065E+02</pdfrwt>
<totfact> 0.39281679E+04</totfact>
</mgrwt>
</event>
<event>
 7    1  0.1028619E-012  0.9994232E+02  0.7546771E-02  0.1280417E+00
         -3   -1    0    0    0  501 -0.00000000000E+00  0.00000000000E+00  0.85778422455E+02  0.85778422455E+02  0.00000000000E+00 0.  1.
          3   -1    0    0  501    0  0.00000000000E+00 -0.00000000000E+00 -0.29111248711E+02  0.29111248711E+02  0.00000000000E+00 0. -1.
         23    2    1    2    0    0  0.00000000000E+00  0.00000000000E+00  0.56667173744E+02  0.11488967117E+03  0.99942323169E+02 0.  0.
          5    1    3    3  502    0  0.96194144949E+01 -0.28467542021E+02  0.27236812965E+02  0.40827295581E+02  0.47000000000E+01 0. -1.
         -5    1    3    3    0  502  0.70489985442E+01  0.23820352330E+02  0.12184878196E+02  0.28065260060E+02  0.47000000000E+01 0.  1.
          5    1    3    3  503    0 -0.12004586204E+02 -0.16142787790E+02  0.10403862189E+02  0.23130716289E+02  0.47000000000E+01 0.  1.
         -5    1    3    3    0  503 -0.46638268348E+01  0.20789977481E+02  0.68416203930E+01  0.22866399236E+02  0.47000000000E+01 0. -1.
<mgrwt>
<rscale>  0 0.99942323E+02</rscale>
<asrwt>0</asrwt>
<pdfrwt beam="1">  1        3 0.44786537E-02 0.99942323E+02</pdfrwt>
<pdfrwt beam="2">  1       -3 0.13196680E-01 0.99942323E+02</pdfrwt>
<totfact> 0.26140933E+04</totfact>
</mgrwt>
</event>
<event>
 7    1  0.1028619E-012  0.9076096E+02  0.7546771E-02  0.1301019E+00
          2   -1    0    0  501    0  0.00000000000E+00  0.00000000000E+00  0.55513212749E+02  0.55513212749E+02  0.00000000000E+00 0. -1.
         -2   -1    0    0    0  501 -0.00000000000E+00 -0.00000000000E+00 -0.37097257218E+02  0.37097257218E+02  0.00000000000E+00 0.  1.
         23    2    1    2    0    0 -0.88817841970E-15  0.00000000000E+00  0.18415955530E+02  0.92610469967E+02  0.90760959280E+02 0.  0.
          5    1    3    3  502    0 -0.84398444294E+00  0.21235459578E+02  0.10772098426E+02  0.24285492742E+02  0.47000000000E+01 0.  1.
         -5    1    3    3    0  503  0.11550400825E+02 -0.16421261876E+02  0.60284664679E+01  0.21482597812E+02  0.47000000000E+01 0. -1.
          5    1    3    3  503    0 -0.15404878447E+02  0.17113564193E+02  0.38775655110E+01  0.23818267646E+02  0.47000000000E+01 0. -1.
         -5    1    3    3    0  502  0.46984620651E+01 -0.21927761895E+02 -0.22621748742E+01  0.23024111767E+02  0.47000000000E+01 0.  1.
<mgrwt>
<rscale>  0 0.90760959E+02</rscale>
<asrwt>0</asrwt>
<pdfrwt beam="1">  1        2 0.85404942E-02 0.90760959E+02</pdfrwt>
<pdfrwt beam="2">  1       -2 0.57072704E-02 0.90760959E+02</pdfrwt>
<totfact> 0.10524901E+05</totfact>
</mgrwt>
</event>
<event>
 7    1  0.1028619E-012  0.9191389E+02  0.7546771E-02  0.1298282E+00
         -1   -1    0    0    0  501 -0.00000000000E+00  0.00000000000E+00  0.32804700785E+02  0.32804700785E+02  0.00000000000E+00 0.  1.
          1   -1    0    0  501    0  0.00000000000E+00 -0.00000000000E+00 -0.64382258806E+02  0.64382258806E+02  0.00000000000E+00 0. -1.
         23    2    1    2    0    0  0.35527136788E-14  0.00000000000E+00 -0.31577558021E+02  0.97186959592E+02  0.91913888745E+02 0.  0.
          5    1    3    3  502    0 -0.72088437807E+00  0.21402234147E+02 -0.59964594739E+01  0.22729338464E+02  0.47000000000E+01 0. -1.
         -5    1    3    3    0  502 -0.15786000193E+02 -0.14060813379E+02 -0.71859674208E+00  0.21668194578E+02  0.47000000000E+01 0.  1.
          5    1    3    3  503    0  0.21417016655E+02  0.12330568989E+02 -0.93743935128E+01  0.26845870962E+02  0.47000000000E+01 0. -1.
         -5    1    3    3    0  503 -0.49101320835E+01 -0.19671989757E+02 -0.15488108292E+02  0.25943555588E+02  0.47000000000E+01 0.  1.
<mgrwt>
<rscale>  0 0.91913889E+02</rscale>
<asrwt>0</asrwt>
<pdfrwt beam="1">  1        1 0.99049628E-02 0.91913889E+02</pdfrwt>
<pdfrwt beam="2">  1       -1 0.50468771E-02 0.91913889E+02</pdfrwt>
<totfact> 0.95259937E+04</totfact>
</mgrwt>
</event>
<event>
 7    1  0.1028619E-012  0.1003676E+03  0.7546771E-02  0.1279525E+00
          1   -1    0    0  501    0  0.00000000000E+00  0.00000000000E+00  0.18399313014E+02  0.18399313014E+02  0.00000000000E+00 0. -1.
         -1   -1    0    0    0  501 -0.00000000000E+00 -0.00000000000E+00 -0.13687538306E+03  0.13687538306E+03  0.00000000000E+00 0.  1.
         23    2    1    2    0    0  0.00000000000E+00  0.00000000000E+00 -0.11847607005E+03  0.15527469608E+03  0.10036758475E+03 0.  0.
          5    1    3    3  502    0  0.15470029084E+02 -0.15149846825E+02 -0.21130525443E+02  0.30617458487E+02  0.47000000000E+01 0.  1.
         -5    1    3    3    0  502 -0.15380211811E+02  0.18272238502E+02 -0.26934266825E+02  0.36303861291E+02  0.47000000000E+01 0.  1.
          5    1    3    3  503    0  0.18853713261E+02 -0.14353262497E+02 -0.57565033773E+02  0.62428373047E+02  0.47000000000E+01 0. -1.
         -5    1    3    3    0  503 -0.18943530534E+02  0.11230870821E+02 -0.12846244005E+02  0.25925003250E+02  0.47000000000E+01 0. -1.
<mgrwt>
<rscale>  0 0.10036758E+03</rscale>
<asrwt>0</asrwt>
<pdfrwt beam="1">  1        1 0.28306635E-02 0.10036758E+03</pdfrwt>
<pdfrwt beam="2">  1       -1 0.21057751E-01 0.10036758E+03</pdfrwt>
<totfact> 0.59498269E+04</totfact>
</mgrwt>
</event>
<event>
 7    1  0.1028619E-012  0.9508451E+02  0.7546771E-02  0.1290986E+00
          2   -1    0    0  501    0  0.00000000000E+00  0.00000000000E+00  0.14673520013E+02  0.14673520013E+02  0.00000000000E+00 0. -1.
         -2   -1    0    0    0  501 -0.00000000000E+00 -0.00000000000E+00 -0.15403706997E+03  0.15403706997E+03  0.00000000000E+00 0.  1.
         23    2    1    2    0    0  0.00000000000E+00  0.00000000000E+00 -0.13936354996E+03  0.16871058999E+03  0.95084510389E+02 0.  0.
          5    1    3    3  502    0 -0.11396871182E+02  0.23454395324E+02 -0.35870050823E+02  0.44595379568E+02  0.47000000000E+01 0. -1.
         -5    1    3    3    0  503 -0.12176766098E+02 -0.17259524676E+02 -0.29411314076E+02  0.36514109879E+02  0.47000000000E+01 0. -1.
          5    1    3    3  503    0  0.15159269636E+02  0.14305091756E+02 -0.50832815216E+02  0.55140767213E+02  0.47000000000E+01 0.  1.
         -5    1    3    3    0  502  0.84143676439E+01 -0.20499962404E+02 -0.23249369846E+02  0.32460333326E+02  0.47000000000E+01 0.  1.
<mgrwt>
<rscale>  0 0.95084510E+02</rscale>
<asrwt>0</asrwt>
<pdfrwt beam="1">  1        2 0.22574647E-02 0.95084510E+02</pdfrwt>
<pdfrwt beam="2">  1       -2 0.23698010E-01 0.95084510E+02</pdfrwt>
<totfact> 0.62193701E+04</totfact>
</mgrwt>
</event>
<event>
 7    1  0.1028619E-012  0.9586184E+02  0.7546771E-02  0.1289247E+00
         -1   -1    0    0    0  501 -0.00000000000E+00  0.00000000000E+00  0.34104016188E+02  0.34104016188E+02  0.00000000000E+00 0.  1.
          1   -1    0    0  501    0  0.00000000000E+00 -0.00000000000E+00 -0.67363717412E+02  0.67363717412E+02  0.00000000000E+00 0. -1.
         23    2    1    2    0    0  0.00000000000E+00  0.26645352591E-14 -0.33259701223E+02  0.10146773360E+03  0.95861844529E+02 0.  0.
          5    1    3    3  502    0  0.14476182520E+02 -0.16272802426E+02  0.27634334162E+00  0.22282960414E+02  0.47000000000E+01 0.  1.
         -5    1    3    3    0  502 -0.14923325581E+02  0.22406113818E+02 -0.21136497736E+02  0.34548243361E+02  0.47000000000E+01 0.  1.
          5    1    3    3  503    0 -0.20080047143E+02 -0.69146919646E+01 -0.51603395618E+01  0.22354873353E+02  0.47000000000E+01 0. -1.
         -5    1    3    3    0  503  0.20527190204E+02  0.78138057329E+00 -0.72392072677E+01  0.22281656472E+02  0.47000000000E+01 0. -1.
<mgrwt>
<rscale>  0 0.95861845E+02</rscale>
<asrwt>0</asrwt>
<pdfrwt beam="1">  1        1 0.10363649E-01 0.95861845E+02</pdfrwt>
<pdfrwt beam="2">  1       -1 0.52467718E-02 0.95861845E+02</pdfrwt>
<totfact> 0.85356735E+04</totfact>
</mgrwt>
</event>
<event>
 7    1  0.1028619E-012  0.1018103E+03  0.7546771E-02  0.1276535E+00
          2   -1    0    0  501    0  0.00000000000E+00  0.00000000000E+00  0.34822991778E+02  0.34822991778E+02  0.00000000000E+00 0. -1.
         -2   -1    0    0    0  501 -0.00000000000E+00 -0.00000000000E+00 -0.74414441322E+02  0.74414441322E+02  0.00000000000E+00 0.  1.
         23    2    1    2    0    0  0.17763568394E-14 -0.35527136788E-14 -0.39591449544E+02  0.10923743310E+03  0.10181028393E+03 0.  0.
          5    1    3    3  502    0 -0.67976017295E+01  0.20290497625E+02  0.28563375389E+01  0.22094351026E+02  0.47000000000E+01 0. -1.
         -5    1    3    3    0  502  0.22415327530E+02 -0.20782278948E+02 -0.26509903325E+02  0.40733462913E+02  0.47000000000E+01 0.  1.
          5    1    3    3  503    0 -0.59230355074E+01 -0.19461336510E+02 -0.67460887969E+01  0.21941414778E+02  0.47000000000E+01 0. -1.
         -5    1    3    3    0  503 -0.96946902931E+01  0.19953117834E+02 -0.91917949607E+01  0.24468204384E+02  0.47000000000E+01 0.  1.
<mgrwt>
<rscale>  0 0.10181028E+03</rscale>
<asrwt>0</asrwt>
<pdfrwt beam="1">  1        2 0.53573833E-02 0.10181028E+03</pdfrwt>
<pdfrwt beam="2">  1       -2 0.11448376E-01 0.10181028E+03</pdfrwt>
<totfact> 0.66307522E+04</totfact>
</mgrwt>
</event>
<event>
 7    1  0.1028619E-012  0.1033449E+03  0.7546771E-02  0.1273415E+00
          4   -1    0    0  501    0  0.00000000000E+00  0.00000000000E+00  0.20617779889E+03  0.20617779889E+03  0.00000000000E+00 0. -1.
         -4   -1    0    0    0  501 -0.00000000000E+00 -0.00000000000E+00 -0.12950191333E+02  0.12950191333E+02  0.00000000000E+00 0.  1.
         23    2    1    2    0    0  0.00000000000E+00  0.00000000000E+00  0.19322760756E+03  0.21912799023E+03  0.10334489720E+03 0.  0.
          5    1    3    3  502    0  0.20843500962E+02 -0.43551418768E+01  0.15013977113E+02  0.26475050555E+02  0.47000000000E+01 0.  1.
         -5    1    3    3    0  503 -0.20005595160E+02 -0.40228322860E+01  0.77146159120E+02  0.79937643724E+02  0.47000000000E+01 0. -1.
          5    1    3    3  503    0  0.23448599752E+02  0.44355598257E+00  0.49105643815E+02  0.54621312935E+02  0.47000000000E+01 0. -1.
         -5    1    3    3    0  502 -0.24286505554E+02  0.79344181803E+01  0.51961827513E+02  0.58093983014E+02  0.47000000000E+01 0.  1.
<mgrwt>
<rscale>  0 0.10334490E+03</rscale>
<asrwt>0</asrwt>
<pdfrwt beam="1">  1        4 0.31719659E-01 0.10334490E+03</pdfrwt>
<pdfrwt beam="2">  1       -4 0.19923373E-02 0.10334490E+03</pdfrwt>
<totfact> 0.14701048E+04</totfact>
</mgrwt>
</event>
<event>
 7    1  0.1028619E-012  0.8990961E+02  0.7546771E-02  0.1303071E+00
          1   -1    0    0  501    0  0.00000000000E+00  0.00000000000E+00  0.50673905280E+01  0.50673905280E+01  0.00000000000E+00 0. -1.
         -1   -1    0    0    0  501 -0.00000000000E+00 -0.00000000000E+00 -0.39881166173E+03  0.39881166173E+03  0.00000000000E+00 0.  1.
         23    2    1    2    0    0  0.00000000000E+00  0.88817841970E-15 -0.39374427120E+03  0.40387905226E+03  0.89909608766E+02 0.  0.
          5    1    3    3  502    0 -0.19794766961E+02  0.76558337086E+01 -0.15254231061E+03  0.15408339013E+03  0.47000000000E+01 0.  1.
         -5    1    3    3    0  503  0.19687246765E+02  0.46109370725E+01 -0.66601663950E+02  0.69761881187E+02  0.47000000000E+01 0.  1.
          5    1    3    3  503    0 -0.19261999098E+02 -0.57172900910E+01 -0.11529084809E+03  0.11712293400E+03  0.47000000000E+01 0. -1.
         -5    1    3    3    0  502  0.19369519294E+02 -0.65494806902E+01 -0.59309448558E+02  0.62910846945E+02  0.47000000000E+01 0. -1.
<mgrwt>
<rscale>  0 0.89909609E+02</rscale>
<asrwt>0</asrwt>
<pdfrwt beam="1">  1        1 0.77959824E-03 0.89909609E+02</pdfrwt>
<pdfrwt beam="2">  1       -1 0.61355664E-01 0.89909609E+02</pdfrwt>
<totfact> 0.55361311E+04</totfact>
</mgrwt>
</event>
<event>
 7    1  0.1028619E-012  0.9089737E+02  0.7546771E-02  0.1300693E+00
         -4   -1    0    0    0  501 -0.00000000000E+00  0.00000000000E+00  0.28264309839E+02  0.28264309839E+02  0.00000000000E+00 0.  1.
          4   -1    0    0  501    0  0.00000000000E+00 -0.00000000000E+00 -0.73080961813E+02  0.73080961813E+02  0.00000000000E+00 0. -1.
         23    2    1    2    0    0 -0.17763568394E-14 -0.17763568394E-14 -0.44816651973E+02  0.10134527165E+03  0.90897369556E+02 0.  0.
          5    1    3    3  502    0 -0.11406162933E+02 -0.16548865296E+02 -0.50865760277E+01  0.21258615927E+02  0.47000000000E+01 0.  1.
         -5    1    3    3    0  503  0.12442303711E+02 -0.16061921069E+02  0.24822103369E+00  0.20855403226E+02  0.47000000000E+01 0.  1.
          5    1    3    3  503    0 -0.13323428799E+02  0.14961239138E+02 -0.25988861377E+02  0.33149107789E+02  0.47000000000E+01 0. -1.
         -5    1    3    3    0  502  0.12287288021E+02  0.17649547227E+02 -0.13989435602E+02  0.26082144710E+02  0.47000000000E+01 0. -1.
<mgrwt>
<rscale>  0 0.90897370E+02</rscale>
<asrwt>0</asrwt>
<pdfrwt beam="1">  1        4 0.11243225E-01 0.90897370E+02</pdfrwt>
<pdfrwt beam="2">  1       -4 0.43483554E-02 0.90897370E+02</pdfrwt>
<totfact> 0.26595554E+04</totfact>
</mgrwt>
</event>
<event>
 7    1  0.1028619E-012  0.9555948E+02  0.7546771E-02  0.1289921E+00
         -3   -1    0    0    0  501 -0.00000000000E+00  0.00000000000E+00  0.15640657092E+02  0.15640657092E+02  0.00000000000E+00 0.  1.
          3   -1    0    0  501    0  0.00000000000E+00 -0.00000000000E+00 -0.14595957055E+03  0.14595957055E+03  0.00000000000E+00 0. -1.
         23    2    1    2    0    0  0.35527136788E-14  0.00000000000E+00 -0.13031891346E+03  0.16160022765E+03  0.95559480793E+02 0.  0.
          5    1    3    3  502    0 -0.14944081232E+02 -0.17165391312E+02 -0.35388451825E+02  0.42336848553E+02  0.47000000000E+01 0. -1.
         -5    1    3    3    0  503 -0.19373155705E+02 -0.54633580791E+01 -0.24677028896E+02  0.32190265587E+02  0.47000000000E+01 0.  1.
          5    1    3    3  503    0  0.42096766175E+01  0.19669143289E+02 -0.24888228807E+02  0.32343631647E+02  0.47000000000E+01 0. -1.
         -5    1    3    3    0  502  0.30107560319E+02  0.29596061025E+01 -0.45365203934E+02  0.54729481859E+02  0.47000000000E+01 0.  1.
<mgrwt>
<rscale>  0 0.95559481E+02</rscale>
<asrwt>0</asrwt>
<pdfrwt beam="1">  1        3 0.22455318E-01 0.95559481E+02</pdfrwt>
<pdfrwt beam="2">  1       -3 0.24062550E-02 0.95559481E+02</pdfrwt>
<totfact> 0.26946430E+04</totfact>
</mgrwt>
</event>
<event>
 7    1  0.1028619E-012  0.9940292E+02  0.7546771E-02  0.1281557E+00
         -2   -1    0    0    0  501 -0.00000000000E+00  0.00000000000E+00  0.12072156226E+02  0.12072156226E+02  0.00000000000E+00 0. -1.
          2   -1    0    0  501    0  0.00000000000E+00 -0.00000000000E+00 -0.20462253793E+03  0.20462253793E+03  0.00000000000E+00 0.  1.
         23    2    1    2    0    0  0.00000000000E+00  0.00000000000E+00 -0.19255038170E+03  0.21669469415E+03  0.99402922394E+02 0.  0.
          5    1    3    3  502    0 -0.19441728799E+02  0.11786550334E+02 -0.38104695038E+02  0.44620190177E+02  0.47000000000E+01 0.  1.
         -5    1    3    3    0  503  0.18065109066E+02  0.16571063789E+02 -0.71363167663E+02  0.75602513316E+02  0.47000000000E+01 0. -1.
          5    1    3    3  503    0 -0.18266906121E+02 -0.93003713917E+01 -0.40506446428E+02  0.45640321751E+02  0.47000000000E+01 0. -1.
         -5    1    3    3    0  502  0.19643525854E+02 -0.19057242732E+02 -0.42576072569E+02  0.50831668908E+02  0.47000000000E+01 0.  1.
<mgrwt>
<rscale>  0 0.99402922E+02</rscale>
<asrwt>0</asrwt>
<pdfrwt beam="1">  1        2 0.31480389E-01 0.99402922E+02</pdfrwt>
<pdfrwt beam="2">  1       -2 0.18572549E-02 0.99402922E+02</pdfrwt>
<totfact> 0.12345253E+05</totfact>
</mgrwt>
</event>
<event>
 7    1  0.1028619E-012  0.9108867E+02  0.7546771E-02  0.1300237E+00
          2   -1    0    0  501    0  0.00000000000E+00  0.00000000000E+00  0.13126503126E+03  0.13126503126E+03  0.00000000000E+00 0.  1.
         -2   -1    0    0    0  501 -0.00000000000E+00 -0.00000000000E+00 -0.15802277884E+02  0.15802277884E+02  0.00000000000E+00 0. -1.
         23    2    1    2    0    0  0.22204460493E-14  0.00000000000E+00  0.11546275338E+03  0.14706730914E+03  0.91088671094E+02 0.  0.
          5    1    3    3  502    0  0.18379437017E+02 -0.10061617854E+02  0.36234230003E+02  0.42119464418E+02  0.47000000000E+01 0.  1.
         -5    1    3    3    0  503 -0.21637398594E+01 -0.20753736532E+02  0.20126220838E+02  0.29369271619E+02  0.47000000000E+01 0.  1.
          5    1    3    3  503    0  0.23773952805E+01  0.22059652782E+02  0.44459730114E+02  0.49910298446E+02  0.47000000000E+01 0. -1.
         -5    1    3    3    0  502 -0.18593092438E+02  0.87557016041E+01  0.14642572420E+02  0.25668274661E+02  0.47000000000E+01 0. -1.
<mgrwt>
<rscale>  0 0.91088671E+02</rscale>
<asrwt>0</asrwt>
<pdfrwt beam="1">  1        2 0.20194619E-01 0.91088671E+02</pdfrwt>
<pdfrwt beam="2">  1       -2 0.24311198E-02 0.91088671E+02</pdfrwt>
<totfact> 0.13405865E+05</totfact>
</mgrwt>
</event>
<event>
 7    1  0.1028619E-012  0.9373200E+02  0.7546771E-02  0.1294058E+00
         -1   -1    0    0    0  501 -0.00000000000E+00  0.00000000000E+00  0.39437677727E+01  0.39437677727E+01  0.00000000000E+00 0.  1.
          1   -1    0    0  501    0  0.00000000000E+00 -0.00000000000E+00 -0.55693489692E+03  0.55693489692E+03  0.00000000000E+00 0. -1.
         23    2    1    2    0    0  0.00000000000E+00  0.00000000000E+00 -0.55299112915E+03  0.56087866469E+03  0.93731998762E+02 0.  0.
          5    1    3    3  502    0  0.22551176503E+02  0.83179807138E+01 -0.21941613115E+03  0.22077878742E+03  0.47000000000E+01 0. -1.
         -5    1    3    3    0  503 -0.20809295838E+02 -0.43064838257E+01 -0.15364322021E+03  0.15517700123E+03  0.47000000000E+01 0. -1.
          5    1    3    3  503    0  0.19267879569E+02 -0.67183621619E+01 -0.92114714203E+02  0.94464798449E+02  0.47000000000E+01 0.  1.
         -5    1    3    3    0  502 -0.21009760234E+02  0.27068652738E+01 -0.87817063582E+02  0.90458077588E+02  0.47000000000E+01 0.  1.
<mgrwt>
<rscale>  0 0.93731999E+02</rscale>
<asrwt>0</asrwt>
<pdfrwt beam="1">  1        1 0.85682275E-01 0.93731999E+02</pdfrwt>
<pdfrwt beam="2">  1       -1 0.60673363E-03 0.93731999E+02</pdfrwt>
<totfact> 0.13086301E+05</totfact>
</mgrwt>
</event>
<event>
 7    1  0.1028619E-012  0.9036705E+02  0.7546771E-02  0.1301965E+00
         -4   -1    0    0    0  501 -0.00000000000E+00  0.00000000000E+00  0.15729228426E+03  0.15729228426E+03  0.00000000000E+00 0.  1.
          4   -1    0    0  501    0  0.00000000000E+00 -0.00000000000E+00 -0.12979345741E+02  0.12979345741E+02  0.00000000000E+00 0. -1.
         23    2    1    2    0    0 -0.35527136788E-14  0.35527136788E-14  0.14431293852E+03  0.17027163000E+03  0.90367050187E+02 0.  0.
          5    1    3    3  502    0 -0.27210906377E+01 -0.21133541138E+02  0.24893349162E+02  0.33102865854E+02  0.47000000000E+01 0. -1.
         -5    1    3    3    0  502  0.17241010661E+02  0.11915621991E+02  0.24030761684E+02  0.32230451488E+02  0.47000000000E+01 0. -1.
          5    1    3    3  503    0 -0.19694102560E+02 -0.10459572503E+02  0.46878136145E+02  0.52123986618E+02  0.47000000000E+01 0.  1.
         -5    1    3    3    0  503  0.51741825369E+01  0.19677491650E+02  0.48510691527E+02  0.52814326039E+02  0.47000000000E+01 0.  1.
<mgrwt>
<rscale>  0 0.90367050E+02</rscale>
<asrwt>0</asrwt>
<pdfrwt beam="1">  1        4 0.19968225E-02 0.90367050E+02</pdfrwt>
<pdfrwt beam="2">  1       -4 0.24198812E-01 0.90367050E+02</pdfrwt>
<totfact> 0.23244030E+04</totfact>
</mgrwt>
</event>
<event>
 7    1  0.1028619E-012  0.1026553E+03  0.7546771E-02  0.1274809E+00
         -1   -1    0    0    0  501 -0.00000000000E+00  0.00000000000E+00  0.47517026603E+03  0.47517026603E+03  0.00000000000E+00 0.  1.
          1   -1    0    0  501    0  0.00000000000E+00 -0.00000000000E+00 -0.55443862777E+01  0.55443862777E+01  0.00000000000E+00 0. -1.
         23    2    1    2    0    0  0.17763568394E-14  0.35527136788E-14  0.46962587975E+03  0.48071465231E+03  0.10265529704E+03 0.  0.
          5    1    3    3  502    0  0.13872725657E+02  0.19566956585E+02  0.12824874223E+03  0.13055706871E+03  0.47000000000E+01 0.  1.
         -5    1    3    3    0  503 -0.12869255110E+02 -0.19451745183E+02  0.15673839220E+03  0.15853391342E+03  0.47000000000E+01 0.  1.
          5    1    3    3  503    0  0.22454156923E+02 -0.10242827849E+02  0.83153995873E+02  0.86866459092E+02  0.47000000000E+01 0. -1.
         -5    1    3    3    0  502 -0.23457627470E+02  0.10127616446E+02  0.10148474946E+03  0.10475721108E+03  0.47000000000E+01 0. -1.
<mgrwt>
<rscale>  0 0.10265530E+03</rscale>
<asrwt>0</asrwt>
<pdfrwt beam="1">  1        1 0.85298288E-03 0.10265530E+03</pdfrwt>
<pdfrwt beam="2">  1       -1 0.73103086E-01 0.10265530E+03</pdfrwt>
<totfact> 0.35493708E+04</totfact>
</mgrwt>
</event>
<event>
 7    1  0.1028619E-012  0.9225438E+02  0.7546771E-02  0.1297482E+00
          2   -1    0    0  501    0  0.00000000000E+00  0.00000000000E+00  0.44460884487E+02  0.44460884487E+02  0.00000000000E+00 0. -1.
         -2   -1    0    0    0  501 -0.00000000000E+00 -0.00000000000E+00 -0.47855945362E+02  0.47855945362E+02  0.00000000000E+00 0.  1.
         23    2    1    2    0    0 -0.88817841970E-15  0.00000000000E+00 -0.33950608751E+01  0.92316829850E+02  0.92254380032E+02 0.  0.
          5    1    3    3  502    0 -0.13287506908E+02  0.15655961315E+02 -0.64163631211E+01  0.22021050843E+02  0.47000000000E+01 0.  1.
         -5    1    3    3    0  502  0.15677869548E+02 -0.17009887066E+02  0.83062815160E+01  0.25024311463E+02  0.47000000000E+01 0. -1.
          5    1    3    3  503    0 -0.16487614310E+01  0.21771428238E+02  0.33772319158E+01  0.22587810810E+02  0.47000000000E+01 0. -1.
         -5    1    3    3    0  503 -0.74160120924E+00 -0.20417502487E+02 -0.86622111858E+01  0.22683656733E+02  0.47000000000E+01 0.  1.
<mgrwt>
<rscale>  0 0.92254380E+02</rscale>
<asrwt>0</asrwt>
<pdfrwt beam="1">  1        2 0.68401361E-02 0.92254380E+02</pdfrwt>
<pdfrwt beam="2">  1       -2 0.73624531E-02 0.92254380E+02</pdfrwt>
<totfact> 0.94772916E+04</totfact>
</mgrwt>
</event>
<event>
 7    1  0.1028619E-012  0.1020424E+03  0.7546771E-02  0.1276059E+00
         -1   -1    0    0    0  501 -0.00000000000E+00  0.00000000000E+00  0.38801906789E+02  0.38801906789E+02  0.00000000000E+00 0.  1.
          1   -1    0    0  501    0  0.00000000000E+00 -0.00000000000E+00 -0.67088484579E+02  0.67088484579E+02  0.00000000000E+00 0. -1.
         23    2    1    2    0    0  0.00000000000E+00  0.88817841970E-15 -0.28286577790E+02  0.10589039137E+03  0.10204236621E+03 0.  0.
          5    1    3    3  502    0  0.23149571737E+02  0.37695080168E+01 -0.28293094456E+02  0.37049980515E+02  0.47000000000E+01 0. -1.
         -5    1    3    3    0  502 -0.22433423561E+02 -0.36887185432E+01  0.42094326516E+01  0.23593949657E+02  0.47000000000E+01 0.  1.
          5    1    3    3  503    0  0.11373398032E+02 -0.18063162647E+02  0.27034119415E+01  0.22023407178E+02  0.47000000000E+01 0. -1.
         -5    1    3    3    0  503 -0.12089546208E+02  0.17982373174E+02 -0.69063279277E+01  0.23223054018E+02  0.47000000000E+01 0.  1.
<mgrwt>
<rscale>  0 0.10204237E+03</rscale>
<asrwt>0</asrwt>
<pdfrwt beam="1">  1        1 0.10321305E-01 0.10204237E+03</pdfrwt>
<pdfrwt beam="2">  1       -1 0.59695242E-02 0.10204237E+03</pdfrwt>
<totfact> 0.71625699E+04</totfact>
</mgrwt>
</event>
<event>
 7    1  0.1028619E-012  0.9643526E+02  0.7546771E-02  0.1287976E+00
         -1   -1    0    0    0  501 -0.00000000000E+00  0.00000000000E+00  0.68605475975E+01  0.68605475975E+01  0.00000000000E+00 0.  1.
          1   -1    0    0  501    0  0.00000000000E+00 -0.00000000000E+00 -0.33888542772E+03  0.33888542772E+03  0.00000000000E+00 0. -1.
         23    2    1    2    0    0  0.26645352591E-14  0.35527136788E-14 -0.33202488012E+03  0.34574597532E+03  0.96435255108E+02 0.  0.
          5    1    3    3  502    0 -0.23421788848E+02  0.95640843516E+01 -0.70211385676E+02  0.74778209265E+02  0.47000000000E+01 0. -1.
         -5    1    3    3    0  502  0.18324240481E+02 -0.84450105970E+01 -0.13446133287E+03  0.13604791814E+03  0.47000000000E+01 0.  1.
          5    1    3    3  503    0  0.12862594083E+01  0.20578220495E+02 -0.48421550784E+02  0.52837999605E+02  0.47000000000E+01 0. -1.
         -5    1    3    3    0  503  0.38112889589E+01 -0.21697294250E+02 -0.78930610793E+02  0.82081848307E+02  0.47000000000E+01 0.  1.
<mgrwt>
<rscale>  0 0.96435255E+02</rscale>
<asrwt>0</asrwt>
<pdfrwt beam="1">  1        1 0.52136210E-01 0.96435255E+02</pdfrwt>
<pdfrwt beam="2">  1       -1 0.10554691E-02 0.96435255E+02</pdfrwt>
<totfact> 0.11284904E+05</totfact>
</mgrwt>
</event>
<event>
 7    1  0.1028619E-012  0.9945594E+02  0.7546771E-02  0.1281444E+00
         -1   -1    0    0    0  501 -0.00000000000E+00  0.00000000000E+00  0.41437564422E+02  0.41437564422E+02  0.00000000000E+00 0. -1.
          1   -1    0    0  501    0  0.00000000000E+00 -0.00000000000E+00 -0.59677035509E+02  0.59677035509E+02  0.00000000000E+00 0.  1.
         23    2    1    2    0    0  0.00000000000E+00  0.88817841970E-15 -0.18239471087E+02  0.10111459993E+03  0.99455940062E+02 0.  0.
          5    1    3    3  502    0 -0.20144976470E+02 -0.14269216308E+02 -0.10604639319E+02  0.27275978188E+02  0.47000000000E+01 0.  1.
         -5    1    3    3    0  502  0.21306087770E+02  0.63178748968E+01  0.12266497385E+02  0.25815148215E+02  0.47000000000E+01 0. -1.
          5    1    3    3  503    0 -0.21262510530E+02  0.72091500855E+00 -0.88435329660E+01  0.23514084031E+02  0.47000000000E+01 0. -1.
         -5    1    3    3    0  503  0.20101399230E+02  0.72304264030E+01 -0.11057796187E+02  0.24509389496E+02  0.47000000000E+01 0.  1.
<mgrwt>
<rscale>  0 0.99455940E+02</rscale>
<asrwt>0</asrwt>
<pdfrwt beam="1">  1        1 0.91810824E-02 0.99455940E+02</pdfrwt>
<pdfrwt beam="2">  1       -1 0.63750099E-02 0.99455940E+02</pdfrwt>
<totfact> 0.75526240E+04</totfact>
</mgrwt>
</event>
<event>
 7    1  0.1028619E-012  0.9339071E+02  0.7546771E-02  0.1294842E+00
         -1   -1    0    0    0  501 -0.00000000000E+00  0.00000000000E+00  0.30138432760E+02  0.30138432760E+02  0.00000000000E+00 0.  1.
          1   -1    0    0  501    0  0.00000000000E+00 -0.00000000000E+00 -0.72348028359E+02  0.72348028359E+02  0.00000000000E+00 0. -1.
         23    2    1    2    0    0  0.35527136788E-14  0.00000000000E+00 -0.42209595599E+02  0.10248646112E+03  0.93390710202E+02 0.  0.
          5    1    3    3  502    0  0.80900862945E+00  0.20810333448E+02 -0.65527432882E+01  0.22332776759E+02  0.47000000000E+01 0.  1.
         -5    1    3    3    0  503  0.27982469341E+01 -0.24631380892E+02 -0.71756851963E+01  0.26231957011E+02  0.47000000000E+01 0. -1.
          5    1    3    3  503    0  0.20226057899E+02  0.38966601146E+01 -0.98684403961E+01  0.23318522553E+02  0.47000000000E+01 0. -1.
         -5    1    3    3    0  502 -0.23833313463E+02 -0.75612670452E-01 -0.18612726718E+02  0.30603204796E+02  0.47000000000E+01 0.  1.
<mgrwt>
<rscale>  0 0.93390710E+02</rscale>
<asrwt>0</asrwt>
<pdfrwt beam="1">  1        1 0.11130466E-01 0.93390710E+02</pdfrwt>
<pdfrwt beam="2">  1       -1 0.46366820E-02 0.93390710E+02</pdfrwt>
<totfact> 0.92813769E+04</totfact>
</mgrwt>
</event>
<event>
 7    1  0.1028619E-012  0.1032179E+03  0.7546771E-02  0.1273671E+00
         -1   -1    0    0    0  501 -0.00000000000E+00  0.00000000000E+00  0.75504886299E+01  0.75504886299E+01  0.00000000000E+00 0.  1.
          1   -1    0    0  501    0  0.00000000000E+00 -0.00000000000E+00 -0.35275647611E+03  0.35275647611E+03  0.00000000000E+00 0. -1.
         23    2    1    2    0    0  0.00000000000E+00  0.00000000000E+00 -0.34520598748E+03  0.36030696474E+03  0.10321790081E+03 0.  0.
          5    1    3    3  502    0  0.92151031171E+01  0.18511212351E+02 -0.45011347817E+02  0.49756351760E+02  0.47000000000E+01 0. -1.
         -5    1    3    3    0  503 -0.23656489936E+01 -0.21872527960E+02 -0.71820141795E+02  0.75261055945E+02  0.47000000000E+01 0. -1.
          5    1    3    3  503    0  0.20300102050E+02  0.13037572254E+02 -0.68657305960E+02  0.72924536990E+02  0.47000000000E+01 0.  1.
         -5    1    3    3    0  502 -0.27149556174E+02 -0.96762566463E+01 -0.15971719191E+03  0.16236502005E+03  0.47000000000E+01 0.  1.
<mgrwt>
<rscale>  0 0.10321790E+03</rscale>
<asrwt>0</asrwt>
<pdfrwt beam="1">  1        1 0.54270217E-01 0.10321790E+03</pdfrwt>
<pdfrwt beam="2">  1       -1 0.11616138E-02 0.10321790E+03</pdfrwt>
<totfact> 0.94718539E+04</totfact>
</mgrwt>
</event>
<event>
 7    1  0.1028619E-012  0.9692025E+02  0.7546771E-02  0.1286909E+00
         -1   -1    0    0    0  501 -0.00000000000E+00  0.00000000000E+00  0.82428073484E+02  0.82428073484E+02  0.00000000000E+00 0.  1.
          1   -1    0    0  501    0  0.00000000000E+00 -0.00000000000E+00 -0.28490095927E+02  0.28490095927E+02  0.00000000000E+00 0. -1.
         23    2    1    2    0    0  0.00000000000E+00  0.00000000000E+00  0.53937977558E+02  0.11091816941E+03  0.96920250116E+02 0.  0.
          5    1    3    3  502    0  0.40236272173E+01  0.22473545717E+02  0.16731108290E+02  0.28692678817E+02  0.47000000000E+01 0. -1.
         -5    1    3    3    0  503  0.17354081372E+02 -0.19365672039E+02  0.20123942115E+02  0.33215304304E+02  0.47000000000E+01 0.  1.
          5    1    3    3  503    0 -0.11327702517E+02  0.17922658215E+02  0.11549663984E+02  0.24597220573E+02  0.47000000000E+01 0.  1.
         -5    1    3    3    0  502 -0.10050006073E+02 -0.21030531893E+02  0.55332631691E+01  0.24412965716E+02  0.47000000000E+01 0. -1.
<mgrwt>
<rscale>  0 0.96920250E+02</rscale>
<asrwt>0</asrwt>
<pdfrwt beam="1">  1        1 0.43830917E-02 0.96920250E+02</pdfrwt>
<pdfrwt beam="2">  1       -1 0.12681242E-01 0.96920250E+02</pdfrwt>
<totfact> 0.72003151E+04</totfact>
</mgrwt>
</event>
<event>
 7    1  0.1028619E-012  0.9237424E+02  0.7546771E-02  0.1297202E+00
          4   -1    0    0  501    0  0.00000000000E+00  0.00000000000E+00  0.31568157428E+02  0.31568157428E+02  0.00000000000E+00 0. -1.
         -4   -1    0    0    0  501 -0.00000000000E+00 -0.00000000000E+00 -0.67576000678E+02  0.67576000678E+02  0.00000000000E+00 0.  1.
         23    2    1    2    0    0  0.00000000000E+00  0.17763568394E-14 -0.36007843250E+02  0.99144158106E+02  0.92374235104E+02 0.  0.
          5    1    3    3  502    0 -0.69876490040E+01  0.20006538858E+02 -0.17979126119E+02  0.28185595819E+02  0.47000000000E+01 0.  1.
         -5    1    3    3    0  502  0.12604684599E+02 -0.16945294677E+02 -0.86049802419E+00  0.21652979988E+02  0.47000000000E+01 0.  1.
          5    1    3    3  503    0 -0.17056245454E+02  0.14250493893E+02 -0.12821796250E+01  0.22753594656E+02  0.47000000000E+01 0. -1.
         -5    1    3    3    0  503  0.11439209859E+02 -0.17311738074E+02 -0.15886039482E+02  0.26551987642E+02  0.47000000000E+01 0. -1.
<mgrwt>
<rscale>  0 0.92374235E+02</rscale>
<asrwt>0</asrwt>
<pdfrwt beam="1">  1        4 0.48566396E-02 0.92374235E+02</pdfrwt>
<pdfrwt beam="2">  1       -4 0.10396308E-01 0.92374235E+02</pdfrwt>
<totfact> 0.25587448E+04</totfact>
</mgrwt>
</event>
<event>
 7    1  0.1028619E-012  0.9037695E+02  0.7546771E-02  0.1301941E+00
         -1   -1    0    0    0  501 -0.00000000000E+00  0.00000000000E+00  0.19800357858E+03  0.19800357858E+03  0.00000000000E+00 0.  1.
          1   -1    0    0  501    0  0.00000000000E+00 -0.00000000000E+00 -0.10312936659E+02  0.10312936659E+02  0.00000000000E+00 0. -1.
         23    2    1    2    0    0  0.00000000000E+00  0.00000000000E+00  0.18769064193E+03  0.20831651524E+03  0.90376952020E+02 0.  0.
          5    1    3    3  502    0 -0.12407164129E+01 -0.23249244094E+02  0.49549641075E+02  0.54948372667E+02  0.47000000000E+01 0. -1.
         -5    1    3    3    0  502 -0.17403587834E+02  0.12958836253E+02  0.37673718291E+02  0.43728884692E+02  0.47000000000E+01 0. -1.
          5    1    3    3  503    0  0.17117960721E+02 -0.11684348238E+02  0.52887093184E+02  0.56997220971E+02  0.47000000000E+01 0.  1.
         -5    1    3    3    0  503  0.15263435255E+01  0.21974756078E+02  0.47580189376E+02  0.52642036913E+02  0.47000000000E+01 0.  1.
<mgrwt>
<rscale>  0 0.90376952E+02</rscale>
<asrwt>0</asrwt>
<pdfrwt beam="1">  1        1 0.15866058E-02 0.90376952E+02</pdfrwt>
<pdfrwt beam="2">  1       -1 0.30462086E-01 0.90376952E+02</pdfrwt>
<totfact> 0.71238787E+04</totfact>
</mgrwt>
</event>
<event>
 7    1  0.1028619E-012  0.9094354E+02  0.7546771E-02  0.1300583E+00
          2   -1    0    0  501    0  0.00000000000E+00  0.00000000000E+00  0.12864149329E+03  0.12864149329E+03  0.00000000000E+00 0. -1.
         -2   -1    0    0    0  501 -0.00000000000E+00 -0.00000000000E+00 -0.16073211008E+02  0.16073211008E+02  0.00000000000E+00 0.  1.
         23    2    1    2    0    0  0.00000000000E+00  0.00000000000E+00  0.11256828228E+03  0.14471470429E+03  0.90943539979E+02 0.  0.
          5    1    3    3  502    0  0.27391927285E+01  0.23275220247E+02  0.42818609234E+02  0.49038376310E+02  0.47000000000E+01 0. -1.
         -5    1    3    3    0  503 -0.83082870836E+01  0.18460888793E+02  0.27373743802E+02  0.34369228955E+02  0.47000000000E+01 0. -1.
          5    1    3    3  503    0  0.38260169010E+01 -0.21406279552E+02  0.14959471783E+02  0.26809382790E+02  0.47000000000E+01 0. -1.
         -5    1    3    3    0  502  0.17430774541E+01 -0.20329829488E+02  0.27416457460E+02  0.34497716239E+02  0.47000000000E+01 0.  1.
<mgrwt>
<rscale>  0 0.90943540E+02</rscale>
<asrwt>0</asrwt>
<pdfrwt beam="1">  1        2 0.19790998E-01 0.90943540E+02</pdfrwt>
<pdfrwt beam="2">  1       -2 0.24728018E-02 0.90943540E+02</pdfrwt>
<totfact> 0.13375411E+05</totfact>
</mgrwt>
</event>
<event>
 7    1  0.1028619E-012  0.1017426E+03  0.7546771E-02  0.1276674E+00
          2   -1    0    0  501    0  0.00000000000E+00  0.00000000000E+00  0.14574320402E+02  0.14574320402E+02  0.00000000000E+00 0. -1.
         -2   -1    0    0    0  501 -0.00000000000E+00 -0.00000000000E+00 -0.17756491016E+03  0.17756491016E+03  0.00000000000E+00 0.  1.
         23    2    1    2    0    0  0.88817841970E-15  0.00000000000E+00 -0.16299058975E+03  0.19213923056E+03  0.10174257502E+03 0.  0.
          5    1    3    3  502    0  0.20222634142E+02 -0.17991154674E+02 -0.37145066584E+02  0.46200460492E+02  0.47000000000E+01 0. -1.
         -5    1    3    3    0  502 -0.15668994185E+02  0.14226774694E+02 -0.35313550958E+02  0.41437366931E+02  0.47000000000E+01 0. -1.
          5    1    3    3  503    0  0.29067072825E+01 -0.22708838639E+02 -0.31664058199E+02  0.39355341202E+02  0.47000000000E+01 0.  1.
         -5    1    3    3    0  503 -0.74603472396E+01  0.26473218619E+02 -0.58867914013E+02  0.65146061932E+02  0.47000000000E+01 0.  1.
<mgrwt>
<rscale>  0 0.10174258E+03</rscale>
<asrwt>0</asrwt>
<pdfrwt beam="1">  1        2 0.22422031E-02 0.10174258E+03</pdfrwt>
<pdfrwt beam="2">  1       -2 0.27317679E-01 0.10174258E+03</pdfrwt>
<totfact> 0.49524711E+04</totfact>
</mgrwt>
</event>
<event>
 7    1  0.1028619E-012  0.9933264E+02  0.7546771E-02  0.1281706E+00
          2   -1    0    0  501    0  0.00000000000E+00  0.00000000000E+00  0.25723990571E+02  0.25723990571E+02  0.00000000000E+00 0. -1.
         -2   -1    0    0    0  501 -0.00000000000E+00 -0.00000000000E+00 -0.95892711068E+02  0.95892711068E+02  0.00000000000E+00 0.  1.
         23    2    1    2    0    0  0.17763568394E-14  0.17763568394E-14 -0.70168720497E+02  0.12161670164E+03  0.99332637040E+02 0.  0.
          5    1    3    3  502    0  0.19556290623E+01 -0.20283941404E+02 -0.31411122368E+01  0.21147561325E+02  0.47000000000E+01 0. -1.
         -5    1    3    3    0  503 -0.20669104124E+02  0.32761725608E+01 -0.33595432996E+02  0.39858352828E+02  0.47000000000E+01 0.  1.
          5    1    3    3  503    0  0.17150194461E+02 -0.10819747049E+02 -0.21515068318E+02  0.29936336799E+02  0.47000000000E+01 0. -1.
         -5    1    3    3    0  502  0.15632806015E+01  0.27827515892E+02 -0.11917106947E+02  0.30674450687E+02  0.47000000000E+01 0.  1.
<mgrwt>
<rscale>  0 0.99332637E+02</rscale>
<asrwt>0</asrwt>
<pdfrwt beam="1">  1        2 0.39575369E-02 0.99332637E+02</pdfrwt>
<pdfrwt beam="2">  1       -2 0.14752725E-01 0.99332637E+02</pdfrwt>
<totfact> 0.65328840E+04</totfact>
</mgrwt>
</event>
<event>
 7    1  0.1028619E-012  0.9074467E+02  0.7546771E-02  0.1301058E+00
         -2   -1    0    0    0  501 -0.00000000000E+00  0.00000000000E+00  0.35996702897E+02  0.35996702897E+02  0.00000000000E+00 0. -1.
          2   -1    0    0  501    0  0.00000000000E+00 -0.00000000000E+00 -0.57189921019E+02  0.57189921019E+02  0.00000000000E+00 0.  1.
         23    2    1    2    0    0  0.00000000000E+00  0.00000000000E+00 -0.21193218121E+02  0.93186623916E+02  0.90744665863E+02 0.  0.
          5    1    3    3  502    0 -0.22274667530E+02 -0.12392051377E+02 -0.50519206069E+01  0.26407113676E+02  0.47000000000E+01 0. -1.
         -5    1    3    3    0  503 -0.15096828071E+02  0.13644394535E+02 -0.64657755343E+01  0.21862753104E+02  0.47000000000E+01 0.  1.
          5    1    3    3  503    0  0.17799664439E+02 -0.93647729629E+01 -0.10559050117E+02  0.23197210310E+02  0.47000000000E+01 0.  1.
         -5    1    3    3    0  502  0.19571831161E+02  0.81124298043E+01  0.88352813707E+00  0.21719546825E+02  0.47000000000E+01 0. -1.
<mgrwt>
<rscale>  0 0.90744666E+02</rscale>
<asrwt>0</asrwt>
<pdfrwt beam="1">  1        2 0.87984494E-02 0.90744666E+02</pdfrwt>
<pdfrwt beam="2">  1       -2 0.55379543E-02 0.90744666E+02</pdfrwt>
<totfact> 0.10613451E+05</totfact>
</mgrwt>
</event>
<event>
 7    1  0.1028619E-012  0.9638138E+02  0.7546771E-02  0.1288095E+00
         -1   -1    0    0    0  501 -0.00000000000E+00  0.00000000000E+00  0.44374087906E+01  0.44374087906E+01  0.00000000000E+00 0.  1.
          1   -1    0    0  501    0  0.00000000000E+00 -0.00000000000E+00 -0.52335559491E+03  0.52335559491E+03  0.00000000000E+00 0. -1.
         23    2    1    2    0    0 -0.88817841970E-15  0.00000000000E+00 -0.51891818612E+03  0.52779300370E+03  0.96381382382E+02 0.  0.
          5    1    3    3  502    0 -0.12202979764E+02  0.17898397881E+02 -0.16265571812E+03  0.16415918493E+03  0.47000000000E+01 0. -1.
         -5    1    3    3    0  503  0.65196816293E+00 -0.20985717177E+02 -0.15376579859E+03  0.15526376333E+03  0.47000000000E+01 0.  1.
          5    1    3    3  503    0 -0.56722236133E+01  0.21723325962E+02 -0.10826160578E+03  0.11066500033E+03  0.47000000000E+01 0.  1.
         -5    1    3    3    0  502  0.17223235214E+02 -0.18636006667E+02 -0.94235063631E+02  0.97705055106E+02  0.47000000000E+01 0. -1.
<mgrwt>
<rscale>  0 0.96381382E+02</rscale>
<asrwt>0</asrwt>
<pdfrwt beam="1">  1        1 0.80516270E-01 0.96381382E+02</pdfrwt>
<pdfrwt beam="2">  1       -1 0.68267807E-03 0.96381382E+02</pdfrwt>
<totfact> 0.12078202E+05</totfact>
</mgrwt>
</event>
<event>
 7    1  0.1028619E-012  0.9247684E+02  0.7546771E-02  0.1296962E+00
         -1   -1    0    0    0  501 -0.00000000000E+00  0.00000000000E+00  0.16493434146E+02  0.16493434146E+02  0.00000000000E+00 0.  1.
          1   -1    0    0  501    0  0.00000000000E+00 -0.00000000000E+00 -0.12962682888E+03  0.12962682888E+03  0.00000000000E+00 0. -1.
         23    2    1    2    0    0  0.00000000000E+00  0.00000000000E+00 -0.11313339473E+03  0.14612026303E+03  0.92476841766E+02 0.  0.
          5    1    3    3  502    0  0.37661118091E+01 -0.23014043264E+02 -0.18690500734E+02  0.30253175092E+02  0.47000000000E+01 0.  1.
         -5    1    3    3    0  502 -0.12367508576E+01  0.20294083453E+02 -0.35654112105E+02  0.41312045288E+02  0.47000000000E+01 0. -1.
          5    1    3    3  503    0 -0.12680211172E+02 -0.16510167440E+02 -0.40406024270E+02  0.45695844249E+02  0.47000000000E+01 0. -1.
         -5    1    3    3    0  503  0.10150850220E+02  0.19230127251E+02 -0.18382757625E+02  0.28859198398E+02  0.47000000000E+01 0.  1.
<mgrwt>
<rscale>  0 0.92476842E+02</rscale>
<asrwt>0</asrwt>
<pdfrwt beam="1">  1        1 0.19942589E-01 0.92476842E+02</pdfrwt>
<pdfrwt beam="2">  1       -1 0.25374514E-02 0.92476842E+02</pdfrwt>
<totfact> 0.10509823E+05</totfact>
</mgrwt>
</event>
<event>
 7    1  0.1028619E-012  0.1018246E+03  0.7546771E-02  0.1276505E+00
         -1   -1    0    0    0  501 -0.00000000000E+00  0.00000000000E+00  0.50132639718E+03  0.50132639718E+03  0.00000000000E+00 0.  1.
          1   -1    0    0  501    0  0.00000000000E+00 -0.00000000000E+00 -0.51704117336E+01  0.51704117336E+01  0.00000000000E+00 0. -1.
         23    2    1    2    0    0  0.88817841970E-15  0.35527136788E-14  0.49615598545E+03  0.50649680891E+03  0.10182463133E+03 0.  0.
          5    1    3    3  502    0  0.37504668928E+00  0.21057587973E+02  0.16574760754E+03  0.16714640910E+03  0.47000000000E+01 0.  1.
         -5    1    3    3    0  502  0.35158503971E+01 -0.28870494705E+02  0.16914828048E+03  0.17169477994E+03  0.47000000000E+01 0.  1.
          5    1    3    3  503    0  0.12109058319E+02  0.20837490494E+02  0.93353345671E+02  0.96528583598E+02  0.47000000000E+01 0. -1.
         -5    1    3    3    0  503 -0.15999955405E+02 -0.13024583761E+02  0.67906751756E+02  0.71127036275E+02  0.47000000000E+01 0. -1.
<mgrwt>
<rscale>  0 0.10182463E+03</rscale>
<asrwt>0</asrwt>
<pdfrwt beam="1">  1        1 0.79544835E-03 0.10182463E+03</pdfrwt>
<pdfrwt beam="2">  1       -1 0.77127100E-01 0.10182463E+03</pdfrwt>
<totfact> 0.35107628E+04</totfact>
</mgrwt>
</event>
<event>
 7    1  0.1028619E-012  0.9121566E+02  0.7546771E-02  0.1299934E+00
          1   -1    0    0  501    0  0.00000000000E+00  0.00000000000E+00  0.16155971109E+03  0.16155971109E+03  0.00000000000E+00 0. -1.
         -1   -1    0    0    0  501 -0.00000000000E+00 -0.00000000000E+00 -0.12874956083E+02  0.12874956083E+02  0.00000000000E+00 0.  1.
         23    2    1    2    0    0  0.22204460493E-14  0.17763568394E-14  0.14868475501E+03  0.17443466718E+03  0.91215660609E+02 0.  0.
          5    1    3    3  502    0 -0.49548546856E+00 -0.20330183893E+02  0.43630071483E+02  0.48365638841E+02  0.47000000000E+01 0.  1.
         -5    1    3    3    0  503  0.16792174873E+02  0.12603584173E+02  0.27768805512E+02  0.35128678178E+02  0.47000000000E+01 0. -1.
          5    1    3    3  503    0 -0.18958770468E+02 -0.12405583922E+02  0.58383560796E+02  0.62801780718E+02  0.47000000000E+01 0. -1.
         -5    1    3    3    0  502  0.26620810635E+01  0.20132183642E+02  0.18902317219E+02  0.28138569438E+02  0.47000000000E+01 0.  1.
<mgrwt>
<rscale>  0 0.91215661E+02</rscale>
<asrwt>0</asrwt>
<pdfrwt beam="1">  1        1 0.24855339E-01 0.91215661E+02</pdfrwt>
<pdfrwt beam="2">  1       -1 0.19807626E-02 0.91215661E+02</pdfrwt>
<totfact> 0.11355504E+05</totfact>
</mgrwt>
</event>
<event>
 7    1  0.1028619E-012  0.9395959E+02  0.7546771E-02  0.1293537E+00
          1   -1    0    0  501    0  0.00000000000E+00  0.00000000000E+00  0.39725566013E+03  0.39725566013E+03  0.00000000000E+00 0. -1.
         -1   -1    0    0    0  501 -0.00000000000E+00 -0.00000000000E+00 -0.55558713574E+01  0.55558713574E+01  0.00000000000E+00 0.  1.
         23    2    1    2    0    0 -0.88817841970E-15  0.17763568394E-14  0.39169978877E+03  0.40281153149E+03  0.93959594373E+02 0.  0.
          5    1    3    3  502    0  0.15595218838E+02  0.14217961856E+02  0.52463605771E+02  0.56743997220E+02  0.47000000000E+01 0.  1.
         -5    1    3    3    0  502 -0.15737401206E+02 -0.14801825576E+02  0.12053132554E+03  0.12254244274E+03  0.47000000000E+01 0. -1.
          5    1    3    3  503    0 -0.51347464235E+01  0.22224616541E+02  0.10269789846E+03  0.10530549630E+03  0.47000000000E+01 0. -1.
         -5    1    3    3    0  503  0.52769287909E+01 -0.21640752821E+02  0.11600695900E+03  0.11821959523E+03  0.47000000000E+01 0.  1.
<mgrwt>
<rscale>  0 0.93959594E+02</rscale>
<asrwt>0</asrwt>
<pdfrwt beam="1">  1        1 0.61116233E-01 0.93959594E+02</pdfrwt>
<pdfrwt beam="2">  1       -1 0.85474975E-03 0.93959594E+02</pdfrwt>
<totfact> 0.12438087E+05</totfact>
</mgrwt>
</event>
<event>
 7    1  0.1028619E-012  0.9678229E+02  0.7546771E-02  0.1287212E+00
          1   -1    0    0  501    0  0.00000000000E+00  0.00000000000E+00  0.33665033720E+03  0.33665033720E+03  0.00000000000E+00 0. -1.
         -1   -1    0    0    0  501 -0.00000000000E+00 -0.00000000000E+00 -0.69558911094E+01  0.69558911094E+01  0.00000000000E+00 0.  1.
         23    2    1    2    0    0  0.17763568394E-14  0.00000000000E+00  0.32969444610E+03  0.34360622831E+03  0.96782293578E+02 0.  0.
          5    1    3    3  502    0  0.28645526549E+02  0.51279462541E+01  0.96904254657E+02  0.10128863014E+03  0.47000000000E+01 0. -1.
         -5    1    3    3    0  503 -0.15296495406E+02  0.16449602218E+02  0.71221771806E+02  0.74827822126E+02  0.47000000000E+01 0. -1.
          5    1    3    3  503    0  0.85957324250E+01 -0.18349213416E+02  0.91902414935E+02  0.94226981910E+02  0.47000000000E+01 0.  1.
         -5    1    3    3    0  502 -0.21944763568E+02 -0.32283350559E+01  0.69666004696E+02  0.73262794143E+02  0.47000000000E+01 0.  1.
<mgrwt>
<rscale>  0 0.96782294E+02</rscale>
<asrwt>0</asrwt>
<pdfrwt beam="1">  1        1 0.51792347E-01 0.96782294E+02</pdfrwt>
<pdfrwt beam="2">  1       -1 0.10701374E-02 0.96782294E+02</pdfrwt>
<totfact> 0.11163294E+05</totfact>
</mgrwt>
</event>
<event>
 7    1  0.1028619E-012  0.9295958E+02  0.7546771E-02  0.1295839E+00
         -1   -1    0    0    0  501 -0.00000000000E+00  0.00000000000E+00  0.22567679159E+02  0.22567679159E+02  0.00000000000E+00 0.  1.
          1   -1    0    0  501    0  0.00000000000E+00 -0.00000000000E+00 -0.95728541438E+02  0.95728541438E+02  0.00000000000E+00 0. -1.
         23    2    1    2    0    0 -0.17763568394E-14  0.00000000000E+00 -0.73160862278E+02  0.11829622060E+03  0.92959582821E+02 0.  0.
          5    1    3    3  502    0  0.86123176815E+01  0.18534775429E+02 -0.16211119720E+02  0.26506608961E+02  0.47000000000E+01 0. -1.
         -5    1    3    3    0  503 -0.23535047889E+02  0.16303338209E+01 -0.13306308231E+02  0.27490076505E+02  0.47000000000E+01 0. -1.
          5    1    3    3  503    0  0.23940121750E+02  0.26101703686E+00 -0.22952627458E+02  0.33497920332E+02  0.47000000000E+01 0.  1.
         -5    1    3    3    0  502 -0.90173915432E+01 -0.20426126287E+02 -0.20690806869E+02  0.30801614799E+02  0.47000000000E+01 0.  1.
<mgrwt>
<rscale>  0 0.92959583E+02</rscale>
<asrwt>0</asrwt>
<pdfrwt beam="1">  1        1 0.14727468E-01 0.92959583E+02</pdfrwt>
<pdfrwt beam="2">  1       -1 0.34719506E-02 0.92959583E+02</pdfrwt>
<totfact> 0.98350319E+04</totfact>
</mgrwt>
</event>
<event>
 7    1  0.1028619E-012  0.9277430E+02  0.7546771E-02  0.1296269E+00
         -1   -1    0    0    0  501 -0.00000000000E+00  0.00000000000E+00  0.51368398919E+02  0.51368398919E+02  0.00000000000E+00 0.  1.
          1   -1    0    0  501    0  0.00000000000E+00 -0.00000000000E+00 -0.41888939139E+02  0.41888939139E+02  0.00000000000E+00 0. -1.
         23    2    1    2    0    0  0.00000000000E+00  0.00000000000E+00  0.94794597798E+01  0.93257338057E+02  0.92774301096E+02 0.  0.
          5    1    3    3  502    0 -0.22569661050E+02  0.92507632229E+01  0.37040377167E+01  0.25115256629E+02  0.47000000000E+01 0.  1.
         -5    1    3    3    0  503  0.17463322490E+02 -0.10961350812E+02 -0.52613591379E+01  0.21791988069E+02  0.47000000000E+01 0. -1.
          5    1    3    3  503    0 -0.33573085535E+01  0.20232901803E+02 -0.28849693312E+01  0.21238052738E+02  0.47000000000E+01 0. -1.
         -5    1    3    3    0  502  0.84636471144E+01 -0.18522314213E+02  0.13921750532E+02  0.25112040621E+02  0.47000000000E+01 0.  1.
<mgrwt>
<rscale>  0 0.92774301E+02</rscale>
<asrwt>0</asrwt>
<pdfrwt beam="1">  1        1 0.64444522E-02 0.92774301E+02</pdfrwt>
<pdfrwt beam="2">  1       -1 0.79028306E-02 0.92774301E+02</pdfrwt>
<totfact> 0.86928192E+04</totfact>
</mgrwt>
</event>
<event>
 7    1  0.1028619E-012  0.9880227E+02  0.7546771E-02  0.1282835E+00
         -1   -1    0    0    0  501 -0.00000000000E+00  0.00000000000E+00  0.13753507191E+02  0.13753507191E+02  0.00000000000E+00 0.  1.
          1   -1    0    0  501    0  0.00000000000E+00 -0.00000000000E+00 -0.17744361381E+03  0.17744361381E+03  0.00000000000E+00 0. -1.
         23    2    1    2    0    0 -0.17763568394E-14  0.00000000000E+00 -0.16369010662E+03  0.19119712101E+03  0.98802267556E+02 0.  0.
          5    1    3    3  502    0  0.19930389046E+02  0.14089770742E+02 -0.29202231230E+02  0.38348433552E+02  0.47000000000E+01 0. -1.
         -5    1    3    3    0  503  0.14966344395E+01 -0.21551760961E+02 -0.43088164673E+02  0.48429311889E+02  0.47000000000E+01 0.  1.
          5    1    3    3  503    0 -0.62949466279E+01  0.23677837295E+02 -0.30298039508E+02  0.39247006638E+02  0.47000000000E+01 0.  1.
         -5    1    3    3    0  502 -0.15132076858E+02 -0.16215847077E+02 -0.61101671212E+02  0.65172368926E+02  0.47000000000E+01 0. -1.
<mgrwt>
<rscale>  0 0.98802268E+02</rscale>
<asrwt>0</asrwt>
<pdfrwt beam="1">  1        1 0.27299016E-01 0.98802268E+02</pdfrwt>
<pdfrwt beam="2">  1       -1 0.21159243E-02 0.98802268E+02</pdfrwt>
<totfact> 0.93136158E+04</totfact>
</mgrwt>
</event>
<event>
 7    1  0.1028619E-012  0.9842216E+02  0.7546771E-02  0.1283649E+00
         -1   -1    0    0    0  501 -0.00000000000E+00  0.00000000000E+00  0.70039073711E+02  0.70039073711E+02  0.00000000000E+00 0.  1.
          1   -1    0    0  501    0  0.00000000000E+00 -0.00000000000E+00 -0.34576848189E+02  0.34576848189E+02  0.00000000000E+00 0. -1.
         23    2    1    2    0    0  0.00000000000E+00  0.17763568394E-14  0.35462225522E+02  0.10461592190E+03  0.98422160492E+02 0.  0.
          5    1    3    3  502    0  0.94798084531E+01  0.22176433286E+02  0.18530925100E+02  0.30775739579E+02  0.47000000000E+01 0.  1.
         -5    1    3    3    0  502 -0.92547957636E+01 -0.21402385924E+02  0.62705291844E+01  0.24599246008E+02  0.47000000000E+01 0.  1.
          5    1    3    3  503    0  0.15094246385E+02  0.13351942742E+02 -0.66613467290E+01  0.21738771565E+02  0.47000000000E+01 0. -1.
         -5    1    3    3    0  503 -0.15319259074E+02 -0.14125990103E+02  0.17322117966E+02  0.27502164748E+02  0.47000000000E+01 0. -1.
<mgrwt>
<rscale>  0 0.98422160E+02</rscale>
<asrwt>0</asrwt>
<pdfrwt beam="1">  1        1 0.53195151E-02 0.98422160E+02</pdfrwt>
<pdfrwt beam="2">  1       -1 0.10775242E-01 0.98422160E+02</pdfrwt>
<totfact> 0.71189317E+04</totfact>
</mgrwt>
</event>
<event>
 7    1  0.1028619E-012  0.1025666E+03  0.7546771E-02  0.1274990E+00
          4   -1    0    0  501    0  0.00000000000E+00  0.00000000000E+00  0.48485452824E+02  0.48485452824E+02  0.00000000000E+00 0. -1.
         -4   -1    0    0    0  501 -0.00000000000E+00 -0.00000000000E+00 -0.54242547407E+02  0.54242547407E+02  0.00000000000E+00 0.  1.
         23    2    1    2    0    0  0.00000000000E+00 -0.17763568394E-14 -0.57570945827E+01  0.10272800023E+03  0.10256655348E+03 0.  0.
          5    1    3    3  502    0 -0.18507794237E+02  0.92651541254E+01 -0.75465469608E+01  0.22526027158E+02  0.47000000000E+01 0. -1.
         -5    1    3    3    0  503  0.14585232629E+02 -0.15533167644E+02  0.22951512706E+01  0.21940055316E+02  0.47000000000E+01 0.  1.
          5    1    3    3  503    0 -0.67592917542E+00  0.28688635579E+02 -0.12901432290E+02  0.31812444842E+02  0.47000000000E+01 0.  1.
         -5    1    3    3    0  502  0.45984907832E+01 -0.22420622061E+02  0.12395733398E+02  0.26449472916E+02  0.47000000000E+01 0. -1.
<mgrwt>
<rscale>  0 0.10256655E+03</rscale>
<asrwt>0</asrwt>
<pdfrwt beam="1">  1        4 0.74593004E-02 0.10256655E+03</pdfrwt>
<pdfrwt beam="2">  1       -4 0.83450073E-02 0.10256655E+03</pdfrwt>
<totfact> 0.19055030E+04</totfact>
</mgrwt>
</event>
<event>
 7    1  0.1028619E-012  0.9281964E+02  0.7546771E-02  0.1296164E+00
         -1   -1    0    0    0  501 -0.00000000000E+00  0.00000000000E+00  0.50309355737E+01  0.50309355737E+01  0.00000000000E+00 0.  1.
          1   -1    0    0  501    0  0.00000000000E+00 -0.00000000000E+00 -0.42812542256E+03  0.42812542256E+03  0.00000000000E+00 0. -1.
         23    2    1    2    0    0 -0.13322676296E-14  0.17763568394E-14 -0.42309448699E+03  0.43315635814E+03  0.92819640559E+02 0.  0.
          5    1    3    3  502    0 -0.27571016140E+01 -0.20289694755E+02 -0.11303828103E+03  0.11497398098E+03  0.47000000000E+01 0.  1.
         -5    1    3    3    0  503  0.21931300010E+02  0.69089379478E+01 -0.10342040575E+03  0.10604992064E+03  0.47000000000E+01 0.  1.
          5    1    3    3  503    0 -0.19054458476E+02 -0.68163497103E+01 -0.15656376961E+03  0.15793618637E+03  0.47000000000E+01 0. -1.
         -5    1    3    3    0  502 -0.11973992020E+00  0.20197106517E+02 -0.50072030603E+02  0.54196270148E+02  0.47000000000E+01 0. -1.
<mgrwt>
<rscale>  0 0.92819641E+02</rscale>
<asrwt>0</asrwt>
<pdfrwt beam="1">  1        1 0.65865457E-01 0.92819641E+02</pdfrwt>
<pdfrwt beam="2">  1       -1 0.77399000E-03 0.92819641E+02</pdfrwt>
<totfact> 0.13003151E+05</totfact>
</mgrwt>
</event>
<event>
 7    1  0.1028619E-012  0.9196009E+02  0.7546771E-02  0.1298173E+00
         -2   -1    0    0    0  501 -0.00000000000E+00  0.00000000000E+00  0.11213518376E+03  0.11213518376E+03  0.00000000000E+00 0. -1.
          2   -1    0    0  501    0  0.00000000000E+00 -0.00000000000E+00 -0.18853713126E+02  0.18853713126E+02  0.00000000000E+00 0.  1.
         23    2    1    2    0    0 -0.35527136788E-14  0.00000000000E+00  0.93281470631E+02  0.13098889688E+03  0.91960091038E+02 0.  0.
          5    1    3    3  502    0 -0.16582642975E+02  0.18114798976E+02  0.35926785302E+02  0.43771610573E+02  0.47000000000E+01 0. -1.
         -5    1    3    3    0  502  0.17377884984E+02 -0.10441613924E+02  0.29928647452E+02  0.36453149742E+02  0.47000000000E+01 0. -1.
          5    1    3    3  503    0 -0.20621401803E+02 -0.47997055518E+01  0.17749339940E+02  0.28025139679E+02  0.47000000000E+01 0.  1.
         -5    1    3    3    0  503  0.19826159793E+02 -0.28734795002E+01  0.96766979372E+01  0.22738996890E+02  0.47000000000E+01 0.  1.
<mgrwt>
<rscale>  0 0.91960091E+02</rscale>
<asrwt>0</asrwt>
<pdfrwt beam="1">  1        2 0.29005713E-02 0.91960091E+02</pdfrwt>
<pdfrwt beam="2">  1       -2 0.17251566E-01 0.91960091E+02</pdfrwt>
<totfact> 0.75428181E+04</totfact>
</mgrwt>
</event>
<event>
 7    1  0.1028619E-012  0.9217611E+02  0.7546771E-02  0.1297666E+00
          2   -1    0    0  501    0  0.00000000000E+00  0.00000000000E+00  0.27913363041E+03  0.27913363041E+03  0.00000000000E+00 0.  1.
         -2   -1    0    0    0  501 -0.00000000000E+00 -0.00000000000E+00 -0.76096482900E+01  0.76096482900E+01  0.00000000000E+00 0. -1.
         23    2    1    2    0    0  0.00000000000E+00  0.00000000000E+00  0.27152398212E+03  0.28674327870E+03  0.92176108689E+02 0.  0.
          5    1    3    3  502    0  0.14465737551E+02  0.14343737224E+02  0.58363339083E+02  0.61994916803E+02  0.47000000000E+01 0.  1.
         -5    1    3    3    0  502 -0.79286862380E+01  0.18444541064E+02  0.10617039052E+03  0.10815408908E+03  0.47000000000E+01 0.  1.
          5    1    3    3  503    0  0.10843712264E+02 -0.21296392391E+02  0.47398145904E+02  0.53289742537E+02  0.47000000000E+01 0. -1.
         -5    1    3    3    0  503 -0.17380763577E+02 -0.11491885896E+02  0.59592106607E+02  0.63304530279E+02  0.47000000000E+01 0. -1.
<mgrwt>
<rscale>  0 0.92176109E+02</rscale>
<asrwt>0</asrwt>
<pdfrwt beam="1">  1        2 0.42943627E-01 0.92176109E+02</pdfrwt>
<pdfrwt beam="2">  1       -2 0.11707153E-02 0.92176109E+02</pdfrwt>
<totfact> 0.16986810E+05</totfact>
</mgrwt>
</event>
<event>
 7    1  0.1028619E-012  0.9231356E+02  0.7546771E-02  0.1297344E+00
          2   -1    0    0  501    0  0.00000000000E+00  0.00000000000E+00  0.67448697438E+01  0.67448697438E+01  0.00000000000E+00 0. -1.
         -2   -1    0    0    0  501 -0.00000000000E+00 -0.00000000000E+00 -0.31586202931E+03  0.31586202931E+03  0.00000000000E+00 0.  1.
         23    2    1    2    0    0 -0.17763568394E-14  0.71054273576E-14 -0.30911715957E+03  0.32260689906E+03  0.92313557937E+02 0.  0.
          5    1    3    3  502    0 -0.20379845384E+02 -0.20193701296E+01 -0.71794202499E+02  0.74805838449E+02  0.47000000000E+01 0. -1.
         -5    1    3    3    0  502  0.91401505443E+01 -0.22513245316E+02 -0.92039334407E+02  0.95308539201E+02  0.47000000000E+01 0. -1.
          5    1    3    3  503    0 -0.11359680854E+02  0.16885540428E+02 -0.84074766529E+02  0.86630365297E+02  0.47000000000E+01 0.  1.
         -5    1    3    3    0  503  0.22599375694E+02  0.76470750172E+01 -0.61208856135E+02  0.65862156110E+02  0.47000000000E+01 0.  1.
<mgrwt>
<rscale>  0 0.92313558E+02</rscale>
<asrwt>0</asrwt>
<pdfrwt beam="1">  1        2 0.10376723E-02 0.92313558E+02</pdfrwt>
<pdfrwt beam="2">  1       -2 0.48594157E-01 0.92313558E+02</pdfrwt>
<totfact> 0.47962576E+04</totfact>
</mgrwt>
</event>
<event>
 7    1  0.1028619E-012  0.9910023E+02  0.7546771E-02  0.1282200E+00
          2   -1    0    0  501    0  0.00000000000E+00  0.00000000000E+00  0.84961257805E+01  0.84961257805E+01  0.00000000000E+00 0. -1.
         -2   -1    0    0    0  501 -0.00000000000E+00 -0.00000000000E+00 -0.28898038026E+03  0.28898038026E+03  0.00000000000E+00 0.  1.
         23    2    1    2    0    0  0.00000000000E+00 -0.17763568394E-14 -0.28048425448E+03  0.29747650604E+03  0.99100225202E+02 0.  0.
          5    1    3    3  502    0  0.59418872393E+01 -0.22733421858E+02 -0.68086695376E+02  0.72180347606E+02  0.47000000000E+01 0.  1.
         -5    1    3    3    0  502  0.14856134809E+02  0.14918830328E+02 -0.79649857094E+02  0.82519488456E+02  0.47000000000E+01 0. -1.
          5    1    3    3  503    0 -0.26700925957E+02 -0.12327217549E+02 -0.61132841026E+02  0.68001573448E+02  0.47000000000E+01 0. -1.
         -5    1    3    3    0  503  0.59029039087E+01  0.20141809079E+02 -0.71614860985E+02  0.74775096532E+02  0.47000000000E+01 0.  1.
<mgrwt>
<rscale>  0 0.99100225E+02</rscale>
<asrwt>0</asrwt>
<pdfrwt beam="1">  1        2 0.13070963E-02 0.99100225E+02</pdfrwt>
<pdfrwt beam="2">  1       -2 0.44458518E-01 0.99100225E+02</pdfrwt>
<totfact> 0.42001089E+04</totfact>
</mgrwt>
</event>
<event>
 7    1  0.1028619E-012  0.9941941E+02  0.7546771E-02  0.1281522E+00
         -2   -1    0    0    0  501 -0.00000000000E+00  0.00000000000E+00  0.17563425901E+03  0.17563425901E+03  0.00000000000E+00 0.  1.
          2   -1    0    0  501    0  0.00000000000E+00 -0.00000000000E+00 -0.14069320621E+02  0.14069320621E+02  0.00000000000E+00 0. -1.
         23    2    1    2    0    0  0.00000000000E+00  0.00000000000E+00  0.16156493839E+03  0.18970357963E+03  0.99419408609E+02 0.  0.
          5    1    3    3  502    0  0.29360201747E+02 -0.84261153847E+01  0.61986519565E+02  0.69263550840E+02  0.47000000000E+01 0.  1.
         -5    1    3    3    0  503 -0.31616519786E+01  0.20246858682E+02  0.28751517526E+02  0.35618409422E+02  0.47000000000E+01 0.  1.
          5    1    3    3  503    0 -0.25873462053E+01 -0.20010610568E+02  0.38189707243E+02  0.43447239671E+02  0.47000000000E+01 0. -1.
         -5    1    3    3    0  502 -0.23611203564E+02  0.81898672708E+01  0.32637194051E+02  0.41374379695E+02  0.47000000000E+01 0. -1.
<mgrwt>
<rscale>  0 0.99419409E+02</rscale>
<asrwt>0</asrwt>
<pdfrwt beam="1">  1        2 0.21645110E-02 0.99419409E+02</pdfrwt>
<pdfrwt beam="2">  1       -2 0.27020654E-01 0.99419409E+02</pdfrwt>
<totfact> 0.52763436E+04</totfact>
</mgrwt>
</event>
<event>
 7    1  0.1028619E-012  0.9881052E+02  0.7546771E-02  0.1282817E+00
          4   -1    0    0  501    0  0.00000000000E+00  0.00000000000E+00  0.16194609799E+03  0.16194609799E+03  0.00000000000E+00 0. -1.
         -4   -1    0    0    0  501 -0.00000000000E+00 -0.00000000000E+00 -0.15072172214E+02  0.15072172214E+02  0.00000000000E+00 0.  1.
         23    2    1    2    0    0  0.17763568394E-14 -0.35527136788E-14  0.14687392578E+03  0.17701827021E+03  0.98810515196E+02 0.  0.
          5    1    3    3  502    0  0.17243944646E+02  0.10719659327E+02  0.23527662905E+02  0.31430966335E+02  0.47000000000E+01 0. -1.
         -5    1    3    3    0  503 -0.17951697820E+02 -0.90528188989E+01  0.66565229203E+02  0.69693878666E+02  0.47000000000E+01 0. -1.
          5    1    3    3  503    0  0.13506495687E+02 -0.19828465270E+02  0.16007457978E+02  0.29221946746E+02  0.47000000000E+01 0.  1.
         -5    1    3    3    0  502 -0.12798742512E+02  0.18161624842E+02  0.40773575692E+02  0.46671478458E+02  0.47000000000E+01 0.  1.
<mgrwt>
<rscale>  0 0.98810515E+02</rscale>
<asrwt>0</asrwt>
<pdfrwt beam="1">  1        4 0.24914783E-01 0.98810515E+02</pdfrwt>
<pdfrwt beam="2">  1       -4 0.23187958E-02 0.98810515E+02</pdfrwt>
<totfact> 0.18015085E+04</totfact>
</mgrwt>
</event>
<event>
 7    1  0.1028619E-012  0.9686099E+02  0.7546771E-02  0.1287039E+00
         -2   -1    0    0    0  501 -0.00000000000E+00  0.00000000000E+00  0.14125112304E+02  0.14125112304E+02  0.00000000000E+00 0.  1.
          2   -1    0    0  501    0  0.00000000000E+00 -0.00000000000E+00 -0.16605267942E+03  0.16605267942E+03  0.00000000000E+00 0. -1.
         23    2    1    2    0    0  0.00000000000E+00  0.17763568394E-14 -0.15192756711E+03  0.18017779172E+03  0.96860987918E+02 0.  0.
          5    1    3    3  502    0  0.21233751156E+02 -0.11352714106E+02 -0.53949659728E+02  0.59265606303E+02  0.47000000000E+01 0. -1.
         -5    1    3    3    0  502 -0.37649639346E+01  0.23024508292E+02 -0.31656733564E+02  0.39604819346E+02  0.47000000000E+01 0.  1.
          5    1    3    3  503    0 -0.16282463829E+02  0.12574573495E+02 -0.39795288126E+02  0.45044350189E+02  0.47000000000E+01 0. -1.
         -5    1    3    3    0  503 -0.11863233922E+01 -0.24246367681E+02 -0.26525885693E+02  0.36263015880E+02  0.47000000000E+01 0.  1.
<mgrwt>
<rscale>  0 0.96860988E+02</rscale>
<asrwt>0</asrwt>
<pdfrwt beam="1">  1        2 0.25546565E-01 0.96860988E+02</pdfrwt>
<pdfrwt beam="2">  1       -2 0.21730943E-02 0.96860988E+02</pdfrwt>
<totfact> 0.12283967E+05</totfact>
</mgrwt>
</event>
<event>
 7    1  0.1028619E-012  0.9108106E+02  0.7546771E-02  0.1300255E+00
         -2   -1    0    0    0  501 -0.00000000000E+00  0.00000000000E+00  0.53618161428E+03  0.53618161428E+03  0.00000000000E+00 0.  1.
          2   -1    0    0  501    0  0.00000000000E+00 -0.00000000000E+00 -0.38679801122E+01  0.38679801122E+01  0.00000000000E+00 0. -1.
         23    2    1    2    0    0  0.00000000000E+00 -0.17763568394E-14  0.53231363417E+03  0.54004959439E+03  0.91081058856E+02 0.  0.
          5    1    3    3  502    0  0.85979157305E+01  0.19869476901E+02  0.11921464810E+03  0.12125569095E+03  0.47000000000E+01 0. -1.
         -5    1    3    3    0  502 -0.11880340198E+02 -0.16275649517E+02  0.15859490703E+03  0.15993896894E+03  0.47000000000E+01 0.  1.
          5    1    3    3  503    0 -0.13751665903E+02  0.15179539991E+02  0.13254644296E+03  0.13420199809E+03  0.47000000000E+01 0.  1.
         -5    1    3    3    0  503  0.17034090371E+02 -0.18773367375E+02  0.12195763608E+03  0.12465293641E+03  0.47000000000E+01 0. -1.
<mgrwt>
<rscale>  0 0.91081059E+02</rscale>
<asrwt>0</asrwt>
<pdfrwt beam="1">  1        2 0.59507429E-03 0.91081059E+02</pdfrwt>
<pdfrwt beam="2">  1       -2 0.82489420E-01 0.91081059E+02</pdfrwt>
<totfact> 0.34438422E+04</totfact>
</mgrwt>
</event>
<event>
 7    1  0.1028619E-012  0.9360621E+02  0.7546771E-02  0.1294346E+00
          1   -1    0    0  501    0  0.00000000000E+00  0.00000000000E+00  0.10271878555E+03  0.10271878555E+03  0.00000000000E+00 0. -1.
         -1   -1    0    0    0  501 -0.00000000000E+00 -0.00000000000E+00 -0.21325512992E+02  0.21325512992E+02  0.00000000000E+00 0.  1.
         23    2    1    2    0    0  0.35527136788E-14  0.00000000000E+00  0.81393272553E+02  0.12404429854E+03  0.93606213377E+02 0.  0.
          5    1    3    3  502    0 -0.15983692408E+01 -0.20351801208E+02  0.18435779234E+02  0.27905529069E+02  0.47000000000E+01 0.  1.
         -5    1    3    3    0  503 -0.33046565386E+01  0.27630548298E+02  0.14739627636E+02  0.31838884669E+02  0.47000000000E+01 0.  1.
          5    1    3    3  503    0 -0.12848665151E+02 -0.16566846271E+02  0.19832678921E+02  0.29239934075E+02  0.47000000000E+01 0. -1.
         -5    1    3    3    0  502  0.17751690930E+02  0.92880991815E+01  0.28385186763E+02  0.35059950725E+02  0.47000000000E+01 0. -1.
<mgrwt>
<rscale>  0 0.93606213E+02</rscale>
<asrwt>0</asrwt>
<pdfrwt beam="1">  1        1 0.15802890E-01 0.93606213E+02</pdfrwt>
<pdfrwt beam="2">  1       -1 0.32808482E-02 0.93606213E+02</pdfrwt>
<totfact> 0.97649610E+04</totfact>
</mgrwt>
</event>
<event>
 7    1  0.1028619E-012  0.9844645E+02  0.7546771E-02  0.1283597E+00
         -2   -1    0    0    0  501 -0.00000000000E+00  0.00000000000E+00  0.97785979029E+02  0.97785979029E+02  0.00000000000E+00 0. -1.
          2   -1    0    0  501    0  0.00000000000E+00 -0.00000000000E+00 -0.24777843574E+02  0.24777843574E+02  0.00000000000E+00 0.  1.
         23    2    1    2    0    0  0.00000000000E+00  0.00000000000E+00  0.73008135455E+02  0.12256382260E+03  0.98446446194E+02 0.  0.
          5    1    3    3  502    0 -0.20879228019E+02  0.87919286898E+00  0.17682651450E+02  0.27775552291E+02  0.47000000000E+01 0.  1.
         -5    1    3    3    0  502  0.23973962954E+02  0.70143958581E+01  0.82411216163E+01  0.26720006259E+02  0.47000000000E+01 0.  1.
          5    1    3    3  503    0  0.15865693273E+02 -0.19518788891E+02  0.31125736834E+02  0.40293980149E+02  0.47000000000E+01 0. -1.
         -5    1    3    3    0  503 -0.18960428209E+02  0.11625200164E+02  0.15958625555E+02  0.27774283903E+02  0.47000000000E+01 0.  1.
<mgrwt>
<rscale>  0 0.98446446E+02</rscale>
<asrwt>0</asrwt>
<pdfrwt beam="1">  1        2 0.38119760E-02 0.98446446E+02</pdfrwt>
<pdfrwt beam="2">  1       -2 0.15043997E-01 0.98446446E+02</pdfrwt>
<totfact> 0.66397389E+04</totfact>
</mgrwt>
</event>
<event>
 7    1  0.1028619E-012  0.9670444E+02  0.7546771E-02  0.1287383E+00
         -2   -1    0    0    0  501 -0.00000000000E+00  0.00000000000E+00  0.13057294337E+02  0.13057294337E+02  0.00000000000E+00 0.  1.
          2   -1    0    0  501    0  0.00000000000E+00 -0.00000000000E+00 -0.17905220536E+03  0.17905220536E+03  0.00000000000E+00 0. -1.
         23    2    1    2    0    0  0.00000000000E+00  0.17763568394E-14 -0.16599491103E+03  0.19210949970E+03  0.96704443477E+02 0.  0.
          5    1    3    3  502    0  0.22427134738E+02 -0.85015621080E+01 -0.51072863850E+02  0.56619611026E+02  0.47000000000E+01 0. -1.
         -5    1    3    3    0  503  0.36056230432E-01  0.23306810338E+02 -0.48308698952E+02  0.53842632760E+02  0.47000000000E+01 0. -1.
          5    1    3    3  503    0 -0.15084037477E+01 -0.23391486856E+02 -0.37382123813E+02  0.44372853413E+02  0.47000000000E+01 0.  1.
         -5    1    3    3    0  502 -0.20954787220E+02  0.85862386268E+01 -0.29231224410E+02  0.37274402500E+02  0.47000000000E+01 0.  1.
<mgrwt>
<rscale>  0 0.96704443E+02</rscale>
<asrwt>0</asrwt>
<pdfrwt beam="1">  1        2 0.27546491E-01 0.96704443E+02</pdfrwt>
<pdfrwt beam="2">  1       -2 0.20088147E-02 0.96704443E+02</pdfrwt>
<totfact> 0.12673553E+05</totfact>
</mgrwt>
</event>
<event>
 7    1  0.1028619E-012  0.9000891E+02  0.7546771E-02  0.1302830E+00
         -1   -1    0    0    0  501 -0.00000000000E+00  0.00000000000E+00  0.41603383093E+03  0.41603383093E+03  0.00000000000E+00 0.  1.
          1   -1    0    0  501    0  0.00000000000E+00 -0.00000000000E+00 -0.48683567552E+01  0.48683567552E+01  0.00000000000E+00 0. -1.
         23    2    1    2    0    0  0.00000000000E+00  0.00000000000E+00  0.41116547417E+03  0.42090218768E+03  0.90008913141E+02 0.  0.
          5    1    3    3  502    0 -0.80317080124E+01 -0.20518266205E+02  0.12868790473E+03  0.13064522343E+03  0.47000000000E+01 0. -1.
         -5    1    3    3    0  503  0.11037410160E+02  0.18405105380E+02  0.88286771224E+02  0.90979208065E+02  0.47000000000E+01 0.  1.
          5    1    3    3  503    0  0.92701858382E+00 -0.20345881710E+02  0.76355952475E+02  0.79165243285E+02  0.47000000000E+01 0.  1.
         -5    1    3    3    0  502 -0.39327207317E+01  0.22459042535E+02  0.11783484575E+03  0.12011251290E+03  0.47000000000E+01 0.  1.
<mgrwt>
<rscale>  0 0.90008913E+02</rscale>
<asrwt>0</asrwt>
<pdfrwt beam="1">  1        1 0.74897829E-03 0.90008913E+02</pdfrwt>
<pdfrwt beam="2">  1       -1 0.64005177E-01 0.90008913E+02</pdfrwt>
<totfact> 0.54017035E+04</totfact>
</mgrwt>
</event>
<event>
 7    1  0.1028619E-012  0.9453782E+02  0.7546771E-02  0.1292220E+00
         -1   -1    0    0    0  501 -0.00000000000E+00  0.00000000000E+00  0.75339970829E+02  0.75339970829E+02  0.00000000000E+00 0.  1.
          1   -1    0    0  501    0  0.00000000000E+00 -0.00000000000E+00 -0.29656897429E+02  0.29656897429E+02  0.00000000000E+00 0. -1.
         23    2    1    2    0    0  0.35527136788E-14  0.17763568394E-14  0.45683073400E+02  0.10499686826E+03  0.94537818616E+02 0.  0.
          5    1    3    3  502    0 -0.63221045256E+00 -0.22075797019E+02  0.81919572628E+01  0.24019547620E+02  0.47000000000E+01 0.  1.
         -5    1    3    3    0  503  0.13933022946E+02 -0.16175953245E+02  0.11555998543E+02  0.24726942676E+02  0.47000000000E+01 0. -1.
          5    1    3    3  503    0  0.63079927249E+01  0.22778905607E+02  0.90796487667E+01  0.25752656845E+02  0.47000000000E+01 0. -1.
         -5    1    3    3    0  502 -0.19608805218E+02  0.15472844658E+02  0.16855468828E+02  0.30497721116E+02  0.47000000000E+01 0.  1.
<mgrwt>
<rscale>  0 0.94537819E+02</rscale>
<asrwt>0</asrwt>
<pdfrwt beam="1">  1        1 0.45625996E-02 0.94537819E+02</pdfrwt>
<pdfrwt beam="2">  1       -1 0.11590765E-01 0.94537819E+02</pdfrwt>
<totfact> 0.77941306E+04</totfact>
</mgrwt>
</event>
<event>
 7    1  0.1028619E-012  0.9435283E+02  0.7546771E-02  0.1292640E+00
          1   -1    0    0  501    0  0.00000000000E+00  0.00000000000E+00  0.92850171236E+02  0.92850171236E+02  0.00000000000E+00 0. -1.
         -1   -1    0    0    0  501 -0.00000000000E+00 -0.00000000000E+00 -0.23969952637E+02  0.23969952637E+02  0.00000000000E+00 0.  1.
         23    2    1    2    0    0 -0.35527136788E-14  0.00000000000E+00  0.68880218599E+02  0.11682012387E+03  0.94352831582E+02 0.  0.
          5    1    3    3  502    0  0.20304408899E+02  0.91151544437E+01  0.80230739854E+01  0.24120836997E+02  0.47000000000E+01 0. -1.
         -5    1    3    3    0  503 -0.18364768030E+02 -0.12842948742E+02  0.85594016778E+01  0.24445028007E+02  0.47000000000E+01 0.  1.
          5    1    3    3  503    0  0.17910021870E+02  0.11760061919E+02  0.25998019226E+02  0.34015510336E+02  0.47000000000E+01 0.  1.
         -5    1    3    3    0  502 -0.19849662738E+02 -0.80322676206E+01  0.26299723709E+02  0.34238748533E+02  0.47000000000E+01 0. -1.
<mgrwt>
<rscale>  0 0.94352832E+02</rscale>
<asrwt>0</asrwt>
<pdfrwt beam="1">  1        1 0.14284642E-01 0.94352832E+02</pdfrwt>
<pdfrwt beam="2">  1       -1 0.36876851E-02 0.94352832E+02</pdfrwt>
<totfact> 0.93940608E+04</totfact>
</mgrwt>
</event>
<event>
 7    1  0.1028619E-012  0.9441847E+02  0.7546771E-02  0.1292491E+00
          1   -1    0    0  501    0  0.00000000000E+00  0.00000000000E+00  0.78233487882E+01  0.78233487882E+01  0.00000000000E+00 0. -1.
         -1   -1    0    0    0  501 -0.00000000000E+00 -0.00000000000E+00 -0.28487949361E+03  0.28487949361E+03  0.00000000000E+00 0.  1.
         23    2    1    2    0    0  0.00000000000E+00 -0.17763568394E-14 -0.27705614482E+03  0.29270284240E+03  0.94418465167E+02 0.  0.
          5    1    3    3  502    0  0.10847268079E+02 -0.25099633381E+02 -0.70421303416E+02  0.75689528968E+02  0.47000000000E+01 0. -1.
         -5    1    3    3    0  503  0.13418162821E+02  0.17059101999E+02 -0.63227763342E+02  0.67014178438E+02  0.47000000000E+01 0. -1.
          5    1    3    3  503    0 -0.19056100196E+02 -0.11313054509E+02 -0.61345196280E+02  0.65394520135E+02  0.47000000000E+01 0.  1.
         -5    1    3    3    0  502 -0.52093307045E+01  0.19353585891E+02 -0.82061881783E+02  0.84604614856E+02  0.47000000000E+01 0.  1.
<mgrwt>
<rscale>  0 0.94418465E+02</rscale>
<asrwt>0</asrwt>
<pdfrwt beam="1">  1        1 0.12035921E-02 0.94418465E+02</pdfrwt>
<pdfrwt beam="2">  1       -1 0.43827616E-01 0.94418465E+02</pdfrwt>
<totfact> 0.56402545E+04</totfact>
</mgrwt>
</event>
<event>
 7    1  0.1028619E-012  0.1007096E+03  0.7546771E-02  0.1278811E+00
         -1   -1    0    0    0  501 -0.00000000000E+00  0.00000000000E+00  0.72354593591E+01  0.72354593591E+01  0.00000000000E+00 0.  1.
          1   -1    0    0  501    0  0.00000000000E+00 -0.00000000000E+00 -0.35044182834E+03  0.35044182834E+03  0.00000000000E+00 0. -1.
         23    2    1    2    0    0  0.00000000000E+00  0.00000000000E+00 -0.34320636898E+03  0.35767728770E+03  0.10070963423E+03 0.  0.
          5    1    3    3  502    0  0.27337351854E+02  0.11573451456E+02 -0.92240418856E+02  0.97013712720E+02  0.47000000000E+01 0. -1.
         -5    1    3    3    0  503 -0.21785143273E+02  0.14619067011E+02 -0.89185505731E+02  0.93083049049E+02  0.47000000000E+01 0.  1.
          5    1    3    3  503    0  0.12948687242E+02 -0.18096762577E+02 -0.76018824267E+02  0.79348049503E+02  0.47000000000E+01 0. -1.
         -5    1    3    3    0  502 -0.18500895824E+02 -0.80957558897E+01 -0.85761620129E+02  0.88232476429E+02  0.47000000000E+01 0.  1.
<mgrwt>
<rscale>  0 0.10070963E+03</rscale>
<asrwt>0</asrwt>
<pdfrwt beam="1">  1        1 0.53914132E-01 0.10070963E+03</pdfrwt>
<pdfrwt beam="2">  1       -1 0.11131475E-02 0.10070963E+03</pdfrwt>
<totfact> 0.10107686E+05</totfact>
</mgrwt>
</event>
<event>
 7    1  0.1028619E-012  0.9198679E+02  0.7546771E-02  0.1298110E+00
         -1   -1    0    0    0  501 -0.00000000000E+00  0.00000000000E+00  0.14462459175E+03  0.14462459175E+03  0.00000000000E+00 0.  1.
          1   -1    0    0  501    0  0.00000000000E+00 -0.00000000000E+00 -0.14626783559E+02  0.14626783559E+02  0.00000000000E+00 0. -1.
         23    2    1    2    0    0  0.88817841970E-15  0.00000000000E+00  0.12999780819E+03  0.15925137531E+03  0.91986794725E+02 0.  0.
          5    1    3    3  502    0  0.73054774315E+01 -0.21569035000E+02  0.22185907636E+02  0.32138726934E+02  0.47000000000E+01 0. -1.
         -5    1    3    3    0  503 -0.17571991122E+02  0.11816788134E+02  0.31991258079E+02  0.38651545212E+02  0.47000000000E+01 0.  1.
          5    1    3    3  503    0  0.21251248219E+02 -0.86309686295E+01  0.34694854263E+02  0.41856087761E+02  0.47000000000E+01 0.  1.
         -5    1    3    3    0  502 -0.10984734528E+02  0.18383215495E+02  0.41125788216E+02  0.46605015406E+02  0.47000000000E+01 0. -1.
<mgrwt>
<rscale>  0 0.91986795E+02</rscale>
<asrwt>0</asrwt>
<pdfrwt beam="1">  1        1 0.22502745E-02 0.91986795E+02</pdfrwt>
<pdfrwt beam="2">  1       -1 0.22249936E-01 0.91986795E+02</pdfrwt>
<totfact> 0.73710302E+04</totfact>
</mgrwt>
</event>
<event>
 7    1  0.1028619E-012  0.9276124E+02  0.7546771E-02  0.1296299E+00
         -3   -1    0    0    0  501 -0.00000000000E+00  0.00000000000E+00  0.40823452575E+03  0.40823452575E+03  0.00000000000E+00 0.  1.
          3   -1    0    0  501    0  0.00000000000E+00 -0.00000000000E+00 -0.52694267645E+01  0.52694267645E+01  0.00000000000E+00 0. -1.
         23    2    1    2    0    0 -0.88817841970E-15 -0.35527136788E-14  0.40296509899E+03  0.41350395252E+03  0.92761240531E+02 0.  0.
          5    1    3    3  502    0  0.31609685475E+01 -0.19804246306E+02  0.16688645859E+03  0.16815284700E+03  0.47000000000E+01 0.  1.
         -5    1    3    3    0  502  0.73023075066E-02  0.20088432734E+02  0.87597889193E+02  0.89994585248E+02  0.47000000000E+01 0.  1.
          5    1    3    3  503    0 -0.17320971362E+02 -0.15160926513E+02  0.95368088956E+02  0.98219306314E+02  0.47000000000E+01 0. -1.
         -5    1    3    3    0  503  0.14152700507E+02  0.14876740085E+02  0.53112662252E+02  0.57137213956E+02  0.47000000000E+01 0. -1.
<mgrwt>
<rscale>  0 0.92761241E+02</rscale>
<asrwt>0</asrwt>
<pdfrwt beam="1">  1        3 0.81068136E-03 0.92761241E+02</pdfrwt>
<pdfrwt beam="2">  1       -3 0.62805287E-01 0.92761241E+02</pdfrwt>
<totfact> 0.19286788E+04</totfact>
</mgrwt>
</event>
<event>
 7    1  0.1028619E-012  0.9183484E+02  0.7546771E-02  0.1298468E+00
          2   -1    0    0  501    0  0.00000000000E+00  0.00000000000E+00  0.26311832505E+02  0.26311832505E+02  0.00000000000E+00 0.  1.
         -2   -1    0    0    0  501 -0.00000000000E+00 -0.00000000000E+00 -0.80131600471E+02  0.80131600471E+02  0.00000000000E+00 0. -1.
         23    2    1    2    0    0  0.00000000000E+00  0.00000000000E+00 -0.53819767966E+02  0.10644343298E+03  0.91834835437E+02 0.  0.
          5    1    3    3  502    0  0.14583304812E+02 -0.14115471727E+02  0.13286984709E+01  0.20875218824E+02  0.47000000000E+01 0. -1.
         -5    1    3    3    0  502 -0.14931637361E+02  0.13399562509E+02 -0.72019177828E+01  0.21827956603E+02  0.47000000000E+01 0.  1.
          5    1    3    3  503    0 -0.19731458551E+02  0.47878167000E+01 -0.26450653765E+02  0.33674630361E+02  0.47000000000E+01 0. -1.
         -5    1    3    3    0  503  0.20079791100E+02 -0.40719074820E+01 -0.21495894889E+02  0.30065627188E+02  0.47000000000E+01 0.  1.
<mgrwt>
<rscale>  0 0.91834835E+02</rscale>
<asrwt>0</asrwt>
<pdfrwt beam="1">  1        2 0.40479743E-02 0.91834835E+02</pdfrwt>
<pdfrwt beam="2">  1       -2 0.12327938E-01 0.91834835E+02</pdfrwt>
<totfact> 0.83549350E+04</totfact>
</mgrwt>
</event>
<event>
 7    1  0.1028619E-012  0.1009575E+03  0.7546771E-02  0.1278295E+00
         -4   -1    0    0    0  501 -0.00000000000E+00  0.00000000000E+00  0.15703896451E+03  0.15703896451E+03  0.00000000000E+00 0.  1.
          4   -1    0    0  501    0  0.00000000000E+00 -0.00000000000E+00 -0.16225941253E+02  0.16225941253E+02  0.00000000000E+00 0. -1.
         23    2    1    2    0    0  0.00000000000E+00  0.00000000000E+00  0.14081302326E+03  0.17326490576E+03  0.10095751607E+03 0.  0.
          5    1    3    3  502    0 -0.20021904768E+02 -0.19845388189E+00  0.43002257973E+02  0.47667601631E+02  0.47000000000E+01 0.  1.
         -5    1    3    3    0  502  0.17333526301E+02  0.13358599277E+02  0.14594513947E+02  0.26720650180E+02  0.47000000000E+01 0.  1.
          5    1    3    3  503    0 -0.19305932596E+02 -0.19015707648E+02  0.60116005325E+02  0.66108549122E+02  0.47000000000E+01 0. -1.
         -5    1    3    3    0  503  0.21994311063E+02  0.58555622527E+01  0.23100246013E+02  0.32768104832E+02  0.47000000000E+01 0. -1.
<mgrwt>
<rscale>  0 0.10095752E+03</rscale>
<asrwt>0</asrwt>
<pdfrwt beam="1">  1        4 0.24962988E-02 0.10095752E+03</pdfrwt>
<pdfrwt beam="2">  1       -4 0.24159840E-01 0.10095752E+03</pdfrwt>
<totfact> 0.17120610E+04</totfact>
</mgrwt>
</event>
<event>
 7    1  0.1028619E-012  0.9247793E+02  0.7546771E-02  0.1296960E+00
         -1   -1    0    0    0  501 -0.00000000000E+00  0.00000000000E+00  0.13747425536E+03  0.13747425536E+03  0.00000000000E+00 0.  1.
          1   -1    0    0  501    0  0.00000000000E+00 -0.00000000000E+00 -0.15552308368E+02  0.15552308368E+02  0.00000000000E+00 0. -1.
         23    2    1    2    0    0  0.35527136788E-14  0.00000000000E+00  0.12192194699E+03  0.15302656373E+03  0.92477932762E+02 0.  0.
          5    1    3    3  502    0 -0.20654017511E+02 -0.26569960298E+01  0.30198783944E+02  0.36982490707E+02  0.47000000000E+01 0.  1.
         -5    1    3    3    0  502  0.20630677685E+02  0.74592577683E+01  0.28553066628E+02  0.36312986686E+02  0.47000000000E+01 0. -1.
          5    1    3    3  503    0 -0.21445641662E+02 -0.14269912358E+01  0.14858783018E+02  0.26548545780E+02  0.47000000000E+01 0. -1.
         -5    1    3    3    0  503  0.21468981488E+02 -0.33752705027E+01  0.48311313401E+02  0.53182540553E+02  0.47000000000E+01 0.  1.
<mgrwt>
<rscale>  0 0.92477933E+02</rscale>
<asrwt>0</asrwt>
<pdfrwt beam="1">  1        1 0.23926629E-02 0.92477933E+02</pdfrwt>
<pdfrwt beam="2">  1       -1 0.21149885E-01 0.92477933E+02</pdfrwt>
<totfact> 0.73535020E+04</totfact>
</mgrwt>
</event>
<event>
 7    1  0.1028619E-012  0.9376183E+02  0.7546771E-02  0.1293989E+00
         -1   -1    0    0    0  501 -0.00000000000E+00  0.00000000000E+00  0.59231683972E+03  0.59231683972E+03  0.00000000000E+00 0.  1.
          1   -1    0    0  501    0  0.00000000000E+00 -0.00000000000E+00 -0.37105483252E+01  0.37105483252E+01  0.00000000000E+00 0. -1.
         23    2    1    2    0    0  0.00000000000E+00  0.00000000000E+00  0.58860629139E+03  0.59602738804E+03  0.93761831416E+02 0.  0.
          5    1    3    3  502    0 -0.16158158184E+02 -0.12701167183E+02  0.11948419887E+03  0.12133000249E+03  0.47000000000E+01 0. -1.
         -5    1    3    3    0  502  0.18190216750E+02  0.12056194810E+02  0.13364869132E+03  0.13550017900E+03  0.47000000000E+01 0.  1.
          5    1    3    3  503    0  0.19063522283E+02 -0.10966558571E+02  0.21998024983E+03  0.22112684957E+03  0.47000000000E+01 0. -1.
         -5    1    3    3    0  503 -0.21095580849E+02  0.11611530944E+02  0.11549315137E+03  0.11807035698E+03  0.47000000000E+01 0. -1.
<mgrwt>
<rscale>  0 0.93761831E+02</rscale>
<asrwt>0</asrwt>
<pdfrwt beam="1">  1        1 0.57085406E-03 0.93761831E+02</pdfrwt>
<pdfrwt beam="2">  1       -1 0.91125592E-01 0.93761831E+02</pdfrwt>
<totfact> 0.39031080E+04</totfact>
</mgrwt>
</event>
<event>
 7    1  0.1028619E-012  0.9133478E+02  0.7546771E-02  0.1299651E+00
          1   -1    0    0  501    0  0.00000000000E+00  0.00000000000E+00  0.39559241258E+02  0.39559241258E+02  0.00000000000E+00 0. -1.
         -1   -1    0    0    0  501 -0.00000000000E+00 -0.00000000000E+00 -0.52718673799E+02  0.52718673799E+02  0.00000000000E+00 0.  1.
         23    2    1    2    0    0  0.88817841970E-15 -0.88817841970E-15 -0.13159432541E+02  0.92277915057E+02  0.91334784954E+02 0.  0.
          5    1    3    3  502    0 -0.53049048230E+01  0.20489126029E+02 -0.82249579717E+01  0.23188062322E+02  0.47000000000E+01 0.  1.
         -5    1    3    3    0  502  0.10331268944E+02 -0.19753946385E+02  0.54460076105E+00  0.22789034770E+02  0.47000000000E+01 0. -1.
          5    1    3    3  503    0 -0.23167770830E+02  0.79351015700E+01  0.57472250550E-02  0.24935947449E+02  0.47000000000E+01 0. -1.
         -5    1    3    3    0  503  0.18141406709E+02 -0.86702812138E+01 -0.54848225552E+01  0.21364870517E+02  0.47000000000E+01 0.  1.
<mgrwt>
<rscale>  0 0.91334785E+02</rscale>
<asrwt>0</asrwt>
<pdfrwt beam="1">  1        1 0.60860371E-02 0.91334785E+02</pdfrwt>
<pdfrwt beam="2">  1       -1 0.81105652E-02 0.91334785E+02</pdfrwt>
<totfact> 0.90068865E+04</totfact>
</mgrwt>
</event>
<event>
 7    1  0.1028619E-012  0.9012688E+02  0.7546771E-02  0.1302545E+00
          2   -1    0    0  501    0  0.00000000000E+00  0.00000000000E+00  0.22143807397E+02  0.22143807397E+02  0.00000000000E+00 0. -1.
         -2   -1    0    0    0  501 -0.00000000000E+00 -0.00000000000E+00 -0.91705721866E+02  0.91705721866E+02  0.00000000000E+00 0.  1.
         23    2    1    2    0    0  0.00000000000E+00  0.00000000000E+00 -0.69561914468E+02  0.11384952926E+03  0.90126884829E+02 0.  0.
          5    1    3    3  502    0  0.43347170329E+01 -0.21856941786E+02 -0.16403195012E+02  0.28065467796E+02  0.47000000000E+01 0.  1.
         -5    1    3    3    0  503 -0.19513959757E+02  0.62128257714E+01 -0.29625768603E+02  0.36320379882E+02  0.47000000000E+01 0.  1.
          5    1    3    3  503    0 -0.40937707385E+01  0.21171257054E+02 -0.17002662618E+02  0.27859677317E+02  0.47000000000E+01 0. -1.
         -5    1    3    3    0  502  0.19273013463E+02 -0.55271410389E+01 -0.65302882349E+01  0.21604004268E+02  0.47000000000E+01 0. -1.
<mgrwt>
<rscale>  0 0.90126885E+02</rscale>
<asrwt>0</asrwt>
<pdfrwt beam="1">  1        2 0.34067396E-02 0.90126885E+02</pdfrwt>
<pdfrwt beam="2">  1       -2 0.14108573E-01 0.90126885E+02</pdfrwt>
<totfact> 0.84241444E+04</totfact>
</mgrwt>
</event>
<event>
 7    1  0.1028619E-012  0.9109692E+02  0.7546771E-02  0.1300217E+00
         -1   -1    0    0    0  501 -0.00000000000E+00  0.00000000000E+00  0.40486070753E+02  0.40486070753E+02  0.00000000000E+00 0.  1.
          1   -1    0    0  501    0  0.00000000000E+00 -0.00000000000E+00 -0.51243846168E+02  0.51243846168E+02  0.00000000000E+00 0. -1.
         23    2    1    2    0    0  0.00000000000E+00 -0.35527136788E-14 -0.10757775415E+02  0.91729916921E+02  0.91096915021E+02 0.  0.
          5    1    3    3  502    0 -0.48714113435E+01  0.21449352815E+02  0.30861490391E+01  0.22702856660E+02  0.47000000000E+01 0.  1.
         -5    1    3    3    0  502 -0.10825570339E+02 -0.19346954086E+02 -0.49221798681E+01  0.23190848631E+02  0.47000000000E+01 0.  1.
          5    1    3    3  503    0  0.61518161286E+01  0.19197690729E+02 -0.92836104401E+00  0.20720714883E+02  0.47000000000E+01 0. -1.
         -5    1    3    3    0  503  0.95451655540E+01 -0.21300089458E+02 -0.79933835421E+01  0.25115496747E+02  0.47000000000E+01 0. -1.
<mgrwt>
<rscale>  0 0.91096915E+02</rscale>
<asrwt>0</asrwt>
<pdfrwt beam="1">  1        1 0.78836687E-02 0.91096915E+02</pdfrwt>
<pdfrwt beam="2">  1       -1 0.62286262E-02 0.91096915E+02</pdfrwt>
<totfact> 0.94341327E+04</totfact>
</mgrwt>
</event>
<event>
 7    1  0.1028619E-012  0.9769492E+02  0.7546771E-02  0.1285219E+00
          1   -1    0    0  501    0  0.00000000000E+00  0.00000000000E+00  0.19698121757E+03  0.19698121757E+03  0.00000000000E+00 0. -1.
         -1   -1    0    0    0  501 -0.00000000000E+00 -0.00000000000E+00 -0.12113206224E+02  0.12113206224E+02  0.00000000000E+00 0.  1.
         23    2    1    2    0    0  0.17763568394E-14 -0.17763568394E-14  0.18486801134E+03  0.20909442379E+03  0.97694915132E+02 0.  0.
          5    1    3    3  502    0  0.70643975155E+01  0.22132294441E+02  0.51869520699E+02  0.57028776482E+02  0.47000000000E+01 0. -1.
         -5    1    3    3    0  503 -0.12820358710E+02 -0.18061074416E+02  0.24192478948E+02  0.33135027451E+02  0.47000000000E+01 0.  1.
          5    1    3    3  503    0  0.24164571457E+02  0.50294850213E+01  0.42643334874E+02  0.49495113320E+02  0.47000000000E+01 0. -1.
         -5    1    3    3    0  502 -0.18408610263E+02 -0.91007050467E+01  0.66162676821E+02  0.69435506538E+02  0.47000000000E+01 0.  1.
<mgrwt>
<rscale>  0 0.97694915E+02</rscale>
<asrwt>0</asrwt>
<pdfrwt beam="1">  1        1 0.30304800E-01 0.97694915E+02</pdfrwt>
<pdfrwt beam="2">  1       -1 0.18635703E-02 0.97694915E+02</pdfrwt>
<totfact> 0.98014775E+04</totfact>
</mgrwt>
</event>
<event>
 7    1  0.1028619E-012  0.1017673E+03  0.7546771E-02  0.1276623E+00
          1   -1    0    0  501    0  0.00000000000E+00  0.00000000000E+00  0.12728645173E+02  0.12728645173E+02  0.00000000000E+00 0. -1.
         -1   -1    0    0    0  501 -0.00000000000E+00 -0.00000000000E+00 -0.20341090098E+03  0.20341090098E+03  0.00000000000E+00 0.  1.
         23    2    1    2    0    0 -0.35527136788E-14  0.00000000000E+00 -0.19068225581E+03  0.21613954616E+03  0.10176728714E+03 0.  0.
          5    1    3    3  502    0  0.25316434770E+02 -0.18457209302E+01 -0.75260139277E+02  0.79564484031E+02  0.47000000000E+01 0.  1.
         -5    1    3    3    0  503  0.11062459992E+02 -0.17350010926E+02 -0.42432175118E+02  0.47391775504E+02  0.47000000000E+01 0. -1.
          5    1    3    3  503    0 -0.28837669047E+02 -0.34010236749E+00 -0.35438971705E+02  0.45931879356E+02  0.47000000000E+01 0. -1.
         -5    1    3    3    0  502 -0.75412257147E+01  0.19535834224E+02 -0.37550969712E+02  0.43251407265E+02  0.47000000000E+01 0.  1.
<mgrwt>
<rscale>  0 0.10176729E+03</rscale>
<asrwt>0</asrwt>
<pdfrwt beam="1">  1        1 0.19582531E-02 0.10176729E+03</pdfrwt>
<pdfrwt beam="2">  1       -1 0.31293985E-01 0.10176729E+03</pdfrwt>
<totfact> 0.51831140E+04</totfact>
</mgrwt>
</event>
<event>
 7    1  0.1028619E-012  0.9609696E+02  0.7546771E-02  0.1288724E+00
          2   -1    0    0  501    0  0.00000000000E+00  0.00000000000E+00  0.91647119873E+02  0.91647119873E+02  0.00000000000E+00 0. -1.
         -2   -1    0    0    0  501 -0.00000000000E+00 -0.00000000000E+00 -0.25190711877E+02  0.25190711877E+02  0.00000000000E+00 0.  1.
         23    2    1    2    0    0 -0.17763568394E-14  0.17763568394E-14  0.66456407996E+02  0.11683783175E+03  0.96096955021E+02 0.  0.
          5    1    3    3  502    0 -0.17730096999E+01 -0.20619867101E+02  0.19465760007E+02  0.28798060617E+02  0.47000000000E+01 0.  1.
         -5    1    3    3    0  503  0.19184777886E+02  0.12998756611E+02  0.14576278284E+02  0.27777351648E+02  0.47000000000E+01 0.  1.
          5    1    3    3  503    0 -0.12436651879E+02 -0.17301179230E+02  0.25394802620E+02  0.33481145631E+02  0.47000000000E+01 0. -1.
         -5    1    3    3    0  502 -0.49751163073E+01  0.24922289720E+02  0.70195670855E+01  0.26781273854E+02  0.47000000000E+01 0. -1.
<mgrwt>
<rscale>  0 0.96096955E+02</rscale>
<asrwt>0</asrwt>
<pdfrwt beam="1">  1        2 0.14099557E-01 0.96096955E+02</pdfrwt>
<pdfrwt beam="2">  1       -2 0.38754942E-02 0.96096955E+02</pdfrwt>
<totfact> 0.10327610E+05</totfact>
</mgrwt>
</event>
<event>
 7    1  0.1028619E-012  0.9022548E+02  0.7546771E-02  0.1302307E+00
         -1   -1    0    0    0  501 -0.00000000000E+00  0.00000000000E+00  0.82744805701E+01  0.82744805701E+01  0.00000000000E+00 0.  1.
          1   -1    0    0  501    0  0.00000000000E+00 -0.00000000000E+00 -0.24595614255E+03  0.24595614255E+03  0.00000000000E+00 0. -1.
         23    2    1    2    0    0  0.17763568394E-14 -0.17763568394E-14 -0.23768166198E+03  0.25423062312E+03  0.90225480273E+02 0.  0.
          5    1    3    3  502    0 -0.68869271106E+01 -0.21125804957E+02 -0.48203135022E+02  0.53285660605E+02  0.47000000000E+01 0.  1.
         -5    1    3    3    0  503  0.57538912520E+01  0.22000167518E+02 -0.51438420304E+02  0.56436829453E+02  0.47000000000E+01 0.  1.
          5    1    3    3  503    0 -0.12982375924E+02 -0.16203804650E+02 -0.73826777788E+02  0.76834812997E+02  0.47000000000E+01 0. -1.
         -5    1    3    3    0  502  0.14115411783E+02  0.15329442088E+02 -0.64213328865E+02  0.67673320064E+02  0.47000000000E+01 0. -1.
<mgrwt>
<rscale>  0 0.90225480E+02</rscale>
<asrwt>0</asrwt>
<pdfrwt beam="1">  1        1 0.37839413E-01 0.90225480E+02</pdfrwt>
<pdfrwt beam="2">  1       -1 0.12729968E-02 0.90225480E+02</pdfrwt>
<totfact> 0.12677813E+05</totfact>
</mgrwt>
</event>
<event>
 7    1  0.1028619E-012  0.1033089E+03  0.7546771E-02  0.1273488E+00
          2   -1    0    0  501    0  0.00000000000E+00  0.00000000000E+00  0.12774858534E+03  0.12774858534E+03  0.00000000000E+00 0. -1.
         -2   -1    0    0    0  501 -0.00000000000E+00 -0.00000000000E+00 -0.20886189669E+02  0.20886189669E+02  0.00000000000E+00 0.  1.
         23    2    1    2    0    0 -0.17763568394E-14  0.00000000000E+00  0.10686239567E+03  0.14863477501E+03  0.10330888023E+03 0.  0.
          5    1    3    3  502    0  0.15143121555E+02  0.14364555648E+02  0.10186783641E+02  0.23696310902E+02  0.47000000000E+01 0.  1.
         -5    1    3    3    0  502 -0.12162570019E+02 -0.18540294603E+02  0.42097697741E+02  0.47811889615E+02  0.47000000000E+01 0. -1.
          5    1    3    3  503    0 -0.11219873727E+02  0.23666516667E+02  0.11674333546E+02  0.29058039186E+02  0.47000000000E+01 0. -1.
         -5    1    3    3    0  503  0.82393221906E+01 -0.19490777712E+02  0.42903580746E+02  0.48068535310E+02  0.47000000000E+01 0.  1.
<mgrwt>
<rscale>  0 0.10330888E+03</rscale>
<asrwt>0</asrwt>
<pdfrwt beam="1">  1        2 0.19653628E-01 0.10330888E+03</pdfrwt>
<pdfrwt beam="2">  1       -2 0.32132600E-02 0.10330888E+03</pdfrwt>
<totfact> 0.93951295E+04</totfact>
</mgrwt>
</event>
<event>
 7    1  0.1028619E-012  0.9790421E+02  0.7546771E-02  0.1284766E+00
         -2   -1    0    0    0  501 -0.00000000000E+00  0.00000000000E+00  0.66266667313E+01  0.66266667313E+01  0.00000000000E+00 0.  1.
          2   -1    0    0  501    0  0.00000000000E+00 -0.00000000000E+00 -0.36161595874E+03  0.36161595874E+03  0.00000000000E+00 0. -1.
         23    2    1    2    0    0 -0.88817841970E-15 -0.17763568394E-14 -0.35498929201E+03  0.36824262547E+03  0.97904207127E+02 0.  0.
          5    1    3    3  502    0 -0.65201853990E+01 -0.21315725542E+02 -0.10137938216E+03  0.10390737269E+03  0.47000000000E+01 0. -1.
         -5    1    3    3    0  502  0.70979889569E+01  0.26802660269E+02 -0.11013427069E+03  0.11366798857E+03  0.47000000000E+01 0.  1.
          5    1    3    3  503    0  0.21144183193E+02  0.15682582346E+01 -0.54002523714E+02  0.58205656806E+02  0.47000000000E+01 0.  1.
         -5    1    3    3    0  503 -0.21721986751E+02 -0.70551929610E+01 -0.89473115445E+02  0.92461607403E+02  0.47000000000E+01 0. -1.
<mgrwt>
<rscale>  0 0.97904207E+02</rscale>
<asrwt>0</asrwt>
<pdfrwt beam="1">  1        2 0.55633229E-01 0.97904207E+02</pdfrwt>
<pdfrwt beam="2">  1       -2 0.10194871E-02 0.97904207E+02</pdfrwt>
<totfact> 0.15915214E+05</totfact>
</mgrwt>
</event>
<event>
 7    1  0.1028619E-012  0.9346677E+02  0.7546771E-02  0.1294667E+00
          1   -1    0    0  501    0  0.00000000000E+00  0.00000000000E+00  0.26276389561E+03  0.26276389561E+03  0.00000000000E+00 0. -1.
         -1   -1    0    0    0  501 -0.00000000000E+00 -0.00000000000E+00 -0.83116799125E+01  0.83116799125E+01  0.00000000000E+00 0.  1.
         23    2    1    2    0    0 -0.26645352591E-14 -0.17763568394E-14  0.25445221569E+03  0.27107557552E+03  0.93466772553E+02 0.  0.
          5    1    3    3  502    0  0.57438640943E+01  0.22691158804E+02  0.60871344556E+02  0.65385711364E+02  0.47000000000E+01 0. -1.
         -5    1    3    3    0  503  0.16670922106E+02 -0.12674180584E+02  0.58128542753E+02  0.61964279871E+02  0.47000000000E+01 0. -1.
          5    1    3    3  503    0 -0.19610319294E+02  0.13230052269E+02  0.71605421195E+02  0.75558091892E+02  0.47000000000E+01 0.  1.
         -5    1    3    3    0  502 -0.28044669063E+01 -0.23247030489E+02  0.63846907191E+02  0.68167492392E+02  0.47000000000E+01 0.  1.
<mgrwt>
<rscale>  0 0.93466773E+02</rscale>
<asrwt>0</asrwt>
<pdfrwt beam="1">  1        1 0.40425208E-01 0.93466773E+02</pdfrwt>
<pdfrwt beam="2">  1       -1 0.12787202E-02 0.93466773E+02</pdfrwt>
<totfact> 0.11686167E+05</totfact>
</mgrwt>
</event>
<event>
 7    1  0.1028619E-012  0.1000754E+03  0.7546771E-02  0.1280138E+00
          2   -1    0    0  501    0  0.00000000000E+00  0.00000000000E+00  0.74618559177E+03  0.74618559177E+03  0.00000000000E+00 0. -1.
         -2   -1    0    0    0  501 -0.00000000000E+00 -0.00000000000E+00 -0.33554262201E+01  0.33554262201E+01  0.00000000000E+00 0.  1.
         23    2    1    2    0    0  0.00000000000E+00 -0.88817841970E-15  0.74283016555E+03  0.74954101799E+03  0.10007538558E+03 0.  0.
          5    1    3    3  502    0 -0.27681631883E+02 -0.50271613243E+01  0.19326525138E+03  0.19535888126E+03  0.47000000000E+01 0.  1.
         -5    1    3    3    0  502  0.20715404443E+02  0.83587931367E+01  0.20346069433E+03  0.20473725001E+03  0.47000000000E+01 0. -1.
          5    1    3    3  503    0 -0.79423758133E+00 -0.23541854862E+02  0.12932635371E+03  0.13153800024E+03  0.47000000000E+01 0. -1.
         -5    1    3    3    0  503  0.77604650219E+01  0.20210223049E+02  0.21677786613E+03  0.21790688649E+03  0.47000000000E+01 0.  1.
<mgrwt>
<rscale>  0 0.10007539E+03</rscale>
<asrwt>0</asrwt>
<pdfrwt beam="1">  1        2 0.11479765E+00 0.10007539E+03</pdfrwt>
<pdfrwt beam="2">  1       -2 0.51622001E-03 0.10007539E+03</pdfrwt>
<totfact> 0.18792473E+05</totfact>
</mgrwt>
</event>
<event>
 7    1  0.1028619E-012  0.9424870E+02  0.7546771E-02  0.1292877E+00
         -1   -1    0    0    0  501 -0.00000000000E+00  0.00000000000E+00  0.30801626690E+02  0.30801626690E+02  0.00000000000E+00 0.  1.
          1   -1    0    0  501    0  0.00000000000E+00 -0.00000000000E+00 -0.72096981382E+02  0.72096981382E+02  0.00000000000E+00 0. -1.
         23    2    1    2    0    0  0.00000000000E+00 -0.17763568394E-14 -0.41295354692E+02  0.10289860807E+03  0.94248698792E+02 0.  0.
          5    1    3    3  502    0 -0.19508676036E+02  0.12271277115E+02 -0.18676253548E+02  0.30034399100E+02  0.47000000000E+01 0. -1.
         -5    1    3    3    0  502  0.20062823599E+02  0.82797892938E+00  0.22234089543E+01  0.20742130731E+02  0.47000000000E+01 0.  1.
          5    1    3    3  503    0 -0.21597330717E+02 -0.59180139484E+01 -0.99504344750E+01  0.24951327208E+02  0.47000000000E+01 0.  1.
         -5    1    3    3    0  503  0.21043183154E+02 -0.71812420954E+01 -0.14892075623E+02  0.27170751032E+02  0.47000000000E+01 0. -1.
<mgrwt>
<rscale>  0 0.94248699E+02</rscale>
<asrwt>0</asrwt>
<pdfrwt beam="1">  1        1 0.11091843E-01 0.94248699E+02</pdfrwt>
<pdfrwt beam="2">  1       -1 0.47387118E-02 0.94248699E+02</pdfrwt>
<totfact> 0.90443865E+04</totfact>
</mgrwt>
</event>
<event>
 7    1  0.1028619E-012  0.1027273E+03  0.7546771E-02  0.1274663E+00
         -1   -1    0    0    0  501 -0.00000000000E+00  0.00000000000E+00  0.16617193753E+02  0.16617193753E+02  0.00000000000E+00 0.  1.
          1   -1    0    0  501    0  0.00000000000E+00 -0.00000000000E+00 -0.15876478668E+03  0.15876478668E+03  0.00000000000E+00 0. -1.
         23    2    1    2    0    0  0.00000000000E+00  0.00000000000E+00 -0.14214759292E+03  0.17538198043E+03  0.10272731324E+03 0.  0.
          5    1    3    3  502    0 -0.79253286055E+01 -0.21909969379E+02 -0.25755428909E+02  0.35046964348E+02  0.47000000000E+01 0.  1.
         -5    1    3    3    0  502  0.20897563252E+02  0.15480859156E+02 -0.37091259046E+02  0.45543568675E+02  0.47000000000E+01 0. -1.
          5    1    3    3  503    0 -0.71171573137E+01 -0.20325531351E+02 -0.48700548278E+02  0.53456660534E+02  0.47000000000E+01 0.  1.
         -5    1    3    3    0  503 -0.58550773326E+01  0.26754641574E+02 -0.30600356692E+02  0.41334786875E+02  0.47000000000E+01 0. -1.
<mgrwt>
<rscale>  0 0.10272731E+03</rscale>
<asrwt>0</asrwt>
<pdfrwt beam="1">  1        1 0.24425352E-01 0.10272731E+03</pdfrwt>
<pdfrwt beam="2">  1       -1 0.25564913E-02 0.10272731E+03</pdfrwt>
<totfact> 0.81972767E+04</totfact>
</mgrwt>
</event>
<event>
 7    1  0.1028619E-012  0.1016057E+03  0.7546771E-02  0.1276955E+00
          2   -1    0    0  501    0  0.00000000000E+00  0.00000000000E+00  0.10122822263E+03  0.10122822263E+03  0.00000000000E+00 0. -1.
         -2   -1    0    0    0  501 -0.00000000000E+00 -0.00000000000E+00 -0.25496138860E+02  0.25496138860E+02  0.00000000000E+00 0.  1.
         23    2    1    2    0    0 -0.35527136788E-14  0.00000000000E+00  0.75732083775E+02  0.12672436149E+03  0.10160568529E+03 0.  0.
          5    1    3    3  502    0  0.24091866279E+02  0.10474309772E+02  0.14593878217E+02  0.30417108137E+02  0.47000000000E+01 0.  1.
         -5    1    3    3    0  503  0.20593588047E+02 -0.16101440123E+02  0.18690313618E+02  0.32477223801E+02  0.47000000000E+01 0.  1.
          5    1    3    3  503    0 -0.21377356168E+02  0.69613677760E+01  0.26982119893E+02  0.35434119037E+02  0.47000000000E+01 0. -1.
         -5    1    3    3    0  502 -0.23308098157E+02 -0.13342374245E+01  0.15465772047E+02  0.28395910520E+02  0.47000000000E+01 0. -1.
<mgrwt>
<rscale>  0 0.10160569E+03</rscale>
<asrwt>0</asrwt>
<pdfrwt beam="1">  1        2 0.15573573E-01 0.10160569E+03</pdfrwt>
<pdfrwt beam="2">  1       -2 0.39224830E-02 0.10160569E+03</pdfrwt>
<totfact> 0.91164556E+04</totfact>
</mgrwt>
</event>
<event>
 7    1  0.1028619E-012  0.9060924E+02  0.7546771E-02  0.1301383E+00
         -2   -1    0    0    0  501 -0.00000000000E+00  0.00000000000E+00  0.55727647558E+01  0.55727647558E+01  0.00000000000E+00 0.  1.
          2   -1    0    0  501    0  0.00000000000E+00 -0.00000000000E+00 -0.36831064687E+03  0.36831064687E+03  0.00000000000E+00 0. -1.
         23    2    1    2    0    0  0.71054273576E-14  0.00000000000E+00 -0.36273788212E+03  0.37388341163E+03  0.90609239972E+02 0.  0.
          5    1    3    3  502    0  0.16270014236E+02 -0.12799239544E+02 -0.96772546214E+02  0.99073455562E+02  0.47000000000E+01 0. -1.
         -5    1    3    3    0  503 -0.17251917027E+02  0.17906967426E+02 -0.12213992369E+03  0.12473387304E+03  0.47000000000E+01 0. -1.
          5    1    3    3  503    0 -0.20019149518E+02  0.67622251389E+00 -0.69828007593E+02  0.72796045694E+02  0.47000000000E+01 0.  1.
         -5    1    3    3    0  502  0.21001052309E+02 -0.57839503958E+01 -0.73997404616E+02  0.77280037333E+02  0.47000000000E+01 0.  1.
<mgrwt>
<rscale>  0 0.90609240E+02</rscale>
<asrwt>0</asrwt>
<pdfrwt beam="1">  1        2 0.56663190E-01 0.90609240E+02</pdfrwt>
<pdfrwt beam="2">  1       -2 0.85734821E-03 0.90609240E+02</pdfrwt>
<totfact> 0.19700482E+05</totfact>
</mgrwt>
</event>
<event>
 7    1  0.1028619E-012  0.9121969E+02  0.7546771E-02  0.1299925E+00
          2   -1    0    0  501    0  0.00000000000E+00  0.00000000000E+00  0.35835818489E+03  0.35835818489E+03  0.00000000000E+00 0. -1.
         -2   -1    0    0    0  501 -0.00000000000E+00 -0.00000000000E+00 -0.58049687525E+01  0.58049687525E+01  0.00000000000E+00 0.  1.
         23    2    1    2    0    0  0.71054273576E-14  0.00000000000E+00  0.35255321614E+03  0.36416315364E+03  0.91219692292E+02 0.  0.
          5    1    3    3  502    0  0.10445832446E+02 -0.18740750054E+02  0.68601754244E+02  0.72032088776E+02  0.47000000000E+01 0. -1.
         -5    1    3    3    0  503 -0.65709455117E+01  0.19096224328E+02  0.61293190505E+02  0.64705396304E+02  0.47000000000E+01 0. -1.
          5    1    3    3  503    0 -0.24129841652E+02  0.44450400035E+01  0.12001668523E+03  0.12258916091E+03  0.47000000000E+01 0.  1.
         -5    1    3    3    0  502  0.20254954717E+02 -0.48005142774E+01  0.10264158616E+03  0.10483650765E+03  0.47000000000E+01 0.  1.
<mgrwt>
<rscale>  0 0.91219692E+02</rscale>
<asrwt>0</asrwt>
<pdfrwt beam="1">  1        2 0.55132011E-01 0.91219692E+02</pdfrwt>
<pdfrwt beam="2">  1       -2 0.89307240E-03 0.91219692E+02</pdfrwt>
<totfact> 0.19160367E+05</totfact>
</mgrwt>
</event>
<event>
 7    1  0.1028619E-012  0.1015694E+03  0.7546771E-02  0.1277030E+00
          1   -1    0    0  501    0  0.00000000000E+00  0.00000000000E+00  0.37647881422E+01  0.37647881422E+01  0.00000000000E+00 0. -1.
         -1   -1    0    0    0  501 -0.00000000000E+00 -0.00000000000E+00 -0.68505523671E+03  0.68505523671E+03  0.00000000000E+00 0.  1.
         23    2    1    2    0    0  0.00000000000E+00  0.00000000000E+00 -0.68129044857E+03  0.68882002485E+03  0.10156944091E+03 0.  0.
          5    1    3    3  502    0 -0.22195398931E+02 -0.44041078083E+01 -0.17693809137E+03  0.17844105491E+03  0.47000000000E+01 0. -1.
         -5    1    3    3    0  502  0.30674379853E+01 -0.20896875700E+02 -0.10015625624E+03  0.10246684466E+03  0.47000000000E+01 0. -1.
          5    1    3    3  503    0  0.31199463555E+02  0.70683033944E+01 -0.22007747442E+03  0.22243999682E+03  0.47000000000E+01 0.  1.
         -5    1    3    3    0  503 -0.12071502609E+02  0.18232680114E+02 -0.18411862653E+03  0.18547212846E+03  0.47000000000E+01 0.  1.
<mgrwt>
<rscale>  0 0.10156944E+03</rscale>
<asrwt>0</asrwt>
<pdfrwt beam="1">  1        1 0.57919901E-03 0.10156944E+03</pdfrwt>
<pdfrwt beam="2">  1       -1 0.10539296E+00 0.10156944E+03</pdfrwt>
<totfact> 0.28222646E+04</totfact>
</mgrwt>
</event>
<event>
 7    1  0.1028619E-012  0.1006965E+03  0.7546771E-02  0.1278838E+00
          4   -1    0    0  501    0  0.00000000000E+00  0.00000000000E+00  0.30992458416E+02  0.30992458416E+02  0.00000000000E+00 0. -1.
         -4   -1    0    0    0  501 -0.00000000000E+00 -0.00000000000E+00 -0.81792327991E+02  0.81792327991E+02  0.00000000000E+00 0.  1.
         23    2    1    2    0    0  0.00000000000E+00 -0.88817841970E-15 -0.50799869575E+02  0.11278478641E+03  0.10069648105E+03 0.  0.
          5    1    3    3  502    0 -0.17328927013E+02  0.10940561752E+02 -0.26615006116E+02  0.33918080037E+02  0.47000000000E+01 0. -1.
         -5    1    3    3    0  502  0.17048622948E+02 -0.10498747276E+02  0.32731571179E+01  0.20825052132E+02  0.47000000000E+01 0. -1.
          5    1    3    3  503    0 -0.23901258982E+02 -0.71996101488E+01 -0.11183841310E+02  0.27753790257E+02  0.47000000000E+01 0.  1.
         -5    1    3    3    0  503  0.24181563046E+02  0.67577956729E+01 -0.16274179266E+02  0.30287863981E+02  0.47000000000E+01 0.  1.
<mgrwt>
<rscale>  0 0.10069648E+03</rscale>
<asrwt>0</asrwt>
<pdfrwt beam="1">  1        4 0.47680706E-02 0.10069648E+03</pdfrwt>
<pdfrwt beam="2">  1       -4 0.12583435E-01 0.10069648E+03</pdfrwt>
<totfact> 0.19594698E+04</totfact>
</mgrwt>
</event>
<event>
 7    1  0.1028619E-012  0.9135757E+02  0.7546771E-02  0.1299597E+00
         -3   -1    0    0    0  501 -0.00000000000E+00  0.00000000000E+00  0.21525348067E+02  0.21525348067E+02  0.00000000000E+00 0.  1.
          3   -1    0    0  501    0  0.00000000000E+00 -0.00000000000E+00 -0.96934609049E+02  0.96934609049E+02  0.00000000000E+00 0. -1.
         23    2    1    2    0    0  0.00000000000E+00  0.88817841970E-15 -0.75409260982E+02  0.11845995712E+03  0.91357565632E+02 0.  0.
          5    1    3    3  502    0 -0.22420121202E+02  0.53946807513E+01 -0.11302207605E+02  0.26107361258E+02  0.47000000000E+01 0. -1.
         -5    1    3    3    0  503 -0.12771790692E+02 -0.18890404496E+02 -0.21456569255E+02  0.31661338944E+02  0.47000000000E+01 0. -1.
          5    1    3    3  503    0  0.13942442233E+02  0.14855293532E+02 -0.25324768006E+02  0.32840604682E+02  0.47000000000E+01 0. -1.
         -5    1    3    3    0  502  0.21249469660E+02 -0.13595697871E+01 -0.17325716116E+02  0.27850652232E+02  0.47000000000E+01 0.  1.
<mgrwt>
<rscale>  0 0.91357566E+02</rscale>
<asrwt>0</asrwt>
<pdfrwt beam="1">  1        3 0.14913016E-01 0.91357566E+02</pdfrwt>
<pdfrwt beam="2">  1       -3 0.33115921E-02 0.91357566E+02</pdfrwt>
<totfact> 0.33172708E+04</totfact>
</mgrwt>
</event>
<event>
 7    1  0.1028619E-012  0.9221998E+02  0.7546771E-02  0.1297563E+00
          2   -1    0    0  501    0  0.00000000000E+00  0.00000000000E+00  0.66550913422E+03  0.66550913422E+03  0.00000000000E+00 0. -1.
         -2   -1    0    0    0  501 -0.00000000000E+00 -0.00000000000E+00 -0.31947436136E+01  0.31947436136E+01  0.00000000000E+00 0.  1.
         23    2    1    2    0    0  0.00000000000E+00  0.00000000000E+00  0.66231439061E+03  0.66870387783E+03  0.92219977367E+02 0.  0.
          5    1    3    3  502    0  0.14833025718E+02 -0.15721217481E+02  0.19058018285E+03  0.19185950961E+03  0.47000000000E+01 0. -1.
         -5    1    3    3    0  502 -0.15497922004E+02  0.12776379370E+02  0.80726473238E+02  0.83320315276E+02  0.47000000000E+01 0.  1.
          5    1    3    3  503    0  0.21840280765E+02  0.20268084127E+01  0.22106400457E+03  0.22219921227E+03  0.47000000000E+01 0.  1.
         -5    1    3    3    0  503 -0.21175384480E+02  0.91802969815E+00  0.16994372995E+03  0.17132484068E+03  0.47000000000E+01 0. -1.
<mgrwt>
<rscale>  0 0.92219977E+02</rscale>
<asrwt>0</asrwt>
<pdfrwt beam="1">  1        2 0.10238591E+00 0.92219977E+02</pdfrwt>
<pdfrwt beam="2">  1       -2 0.49149955E-03 0.92219977E+02</pdfrwt>
<totfact> 0.22732591E+05</totfact>
</mgrwt>
</event>
<event>
 7    1  0.1028619E-012  0.1022187E+03  0.7546771E-02  0.1275698E+00
          2   -1    0    0  501    0  0.00000000000E+00  0.00000000000E+00  0.50030011316E+03  0.50030011316E+03  0.00000000000E+00 0. -1.
         -2   -1    0    0    0  501 -0.00000000000E+00 -0.00000000000E+00 -0.52211936857E+01  0.52211936857E+01  0.00000000000E+00 0.  1.
         23    2    1    2    0    0 -0.17763568394E-14  0.17763568394E-14  0.49507891947E+03  0.50552130684E+03  0.10221866350E+03 0.  0.
          5    1    3    3  502    0  0.24850993676E+02  0.45027409227E+01  0.14162744780E+03  0.14393842619E+03  0.47000000000E+01 0. -1.
         -5    1    3    3    0  502 -0.27443953174E+02 -0.87817742891E+01  0.17752161970E+03  0.17990638006E+03  0.47000000000E+01 0.  1.
          5    1    3    3  503    0  0.13883063606E+02 -0.15622044836E+02  0.70122387296E+02  0.73321394832E+02  0.47000000000E+01 0.  1.
         -5    1    3    3    0  503 -0.11290104108E+02  0.19901078202E+02  0.10580746467E+03  0.10835510576E+03  0.47000000000E+01 0. -1.
<mgrwt>
<rscale>  0 0.10221866E+03</rscale>
<asrwt>0</asrwt>
<pdfrwt beam="1">  1        2 0.76969211E-01 0.10221866E+03</pdfrwt>
<pdfrwt beam="2">  1       -2 0.80326096E-03 0.10221866E+03</pdfrwt>
<totfact> 0.15897066E+05</totfact>
</mgrwt>
</event>
<event>
 7    1  0.1028619E-012  0.9182693E+02  0.7546771E-02  0.1298487E+00
          3   -1    0    0  501    0  0.00000000000E+00  0.00000000000E+00  0.51592991977E+01  0.51592991977E+01  0.00000000000E+00 0. -1.
         -3   -1    0    0    0  501 -0.00000000000E+00 -0.00000000000E+00 -0.40859156235E+03  0.40859156235E+03  0.00000000000E+00 0.  1.
         23    2    1    2    0    0  0.00000000000E+00  0.00000000000E+00 -0.40343226315E+03  0.41375086154E+03  0.91826926765E+02 0.  0.
          5    1    3    3  502    0 -0.11873308121E+02  0.20673022155E+02 -0.10319313182E+03  0.10601538448E+03  0.47000000000E+01 0.  1.
         -5    1    3    3    0  503  0.71562535530E+01 -0.20103875542E+02 -0.10342091769E+03  0.10570408693E+03  0.47000000000E+01 0. -1.
          5    1    3    3  503    0  0.13991550208E+02  0.17646291285E+02 -0.12929509140E+03  0.13132579996E+03  0.47000000000E+01 0. -1.
         -5    1    3    3    0  502 -0.92744956394E+01 -0.18215437898E+02 -0.67523122232E+02  0.70705590183E+02  0.47000000000E+01 0.  1.
<mgrwt>
<rscale>  0 0.91826927E+02</rscale>
<asrwt>0</asrwt>
<pdfrwt beam="1">  1        3 0.79373836E-03 0.91826927E+02</pdfrwt>
<pdfrwt beam="2">  1       -3 0.62860238E-01 0.91826927E+02</pdfrwt>
<totfact> 0.19810206E+04</totfact>
</mgrwt>
</event>
<event>
 7    1  0.1028619E-012  0.9192608E+02  0.7546771E-02  0.1298253E+00
         -2   -1    0    0    0  501 -0.00000000000E+00  0.00000000000E+00  0.25573996461E+02  0.25573996461E+02  0.00000000000E+00 0.  1.
          2   -1    0    0  501    0  0.00000000000E+00 -0.00000000000E+00 -0.82607388017E+02  0.82607388017E+02  0.00000000000E+00 0. -1.
         23    2    1    2    0    0  0.00000000000E+00  0.88817841970E-15 -0.57033391557E+02  0.10818138448E+03  0.91926080059E+02 0.  0.
          5    1    3    3  502    0  0.21030918415E+02  0.25450220182E+01 -0.27916828410E+02  0.35358393274E+02  0.47000000000E+01 0. -1.
         -5    1    3    3    0  503 -0.21888726067E+02 -0.65779485482E+01 -0.12586466888E+02  0.26512164843E+02  0.47000000000E+01 0. -1.
          5    1    3    3  503    0  0.21371733871E+02  0.30883057141E+00 -0.86451069748E+01  0.23530283882E+02  0.47000000000E+01 0.  1.
         -5    1    3    3    0  502 -0.20513926218E+02  0.37240959586E+01 -0.78849892841E+01  0.22780542478E+02  0.47000000000E+01 0.  1.
<mgrwt>
<rscale>  0 0.91926080E+02</rscale>
<asrwt>0</asrwt>
<pdfrwt beam="1">  1        2 0.12708829E-01 0.91926080E+02</pdfrwt>
<pdfrwt beam="2">  1       -2 0.39344611E-02 0.91926080E+02</pdfrwt>
<totfact> 0.11331158E+05</totfact>
</mgrwt>
</event>
<event>
 7    1  0.1028619E-012  0.9781144E+02  0.7546771E-02  0.1284967E+00
         -2   -1    0    0    0  501 -0.00000000000E+00  0.00000000000E+00  0.53086318379E+01  0.53086318379E+01  0.00000000000E+00 0.  1.
          2   -1    0    0  501    0  0.00000000000E+00 -0.00000000000E+00 -0.45054343612E+03  0.45054343612E+03  0.00000000000E+00 0. -1.
         23    2    1    2    0    0 -0.35527136788E-14  0.00000000000E+00 -0.44523480429E+03  0.45585206796E+03  0.97811435515E+02 0.  0.
          5    1    3    3  502    0 -0.40126872809E+00  0.20864707210E+02 -0.74669971709E+02  0.77673622927E+02  0.47000000000E+01 0.  1.
         -5    1    3    3    0  503 -0.18797434135E+02  0.14820405676E+02 -0.82579187454E+02  0.86106911192E+02  0.47000000000E+01 0. -1.
          5    1    3    3  503    0  0.57151022752E+00 -0.26550914327E+02 -0.18017953908E+03  0.18218681066E+03  0.47000000000E+01 0. -1.
         -5    1    3    3    0  502  0.18627192635E+02 -0.91341985589E+01 -0.10780610604E+03  0.10988472318E+03  0.47000000000E+01 0.  1.
<mgrwt>
<rscale>  0 0.97811436E+02</rscale>
<asrwt>0</asrwt>
<pdfrwt beam="1">  1        2 0.69314401E-01 0.97811436E+02</pdfrwt>
<pdfrwt beam="2">  1       -2 0.81671228E-03 0.97811436E+02</pdfrwt>
<totfact> 0.17264384E+05</totfact>
</mgrwt>
</event>
<event>
 7    1  0.1028619E-012  0.9797077E+02  0.7546771E-02  0.1284622E+00
         -2   -1    0    0    0  501 -0.00000000000E+00  0.00000000000E+00  0.17730901482E+02  0.17730901482E+02  0.00000000000E+00 0.  1.
          2   -1    0    0  501    0  0.00000000000E+00 -0.00000000000E+00 -0.13533253906E+03  0.13533253906E+03  0.00000000000E+00 0. -1.
         23    2    1    2    0    0  0.00000000000E+00  0.00000000000E+00 -0.11760163758E+03  0.15306344054E+03  0.97970769465E+02 0.  0.
          5    1    3    3  502    0  0.21720359963E+02  0.49276477408E+01 -0.35456588242E+02  0.42134491796E+02  0.47000000000E+01 0. -1.
         -5    1    3    3    0  503 -0.19719132906E+02  0.55930347684E+01 -0.35423838018E+02  0.41195443199E+02  0.47000000000E+01 0.  1.
          5    1    3    3  503    0  0.22337690627E+02 -0.62183580563E+01 -0.11125204793E+02  0.26143844039E+02  0.47000000000E+01 0.  1.
         -5    1    3    3    0  502 -0.24338917685E+02 -0.43023244529E+01 -0.35596006527E+02  0.43589661508E+02  0.47000000000E+01 0. -1.
<mgrwt>
<rscale>  0 0.97970769E+02</rscale>
<asrwt>0</asrwt>
<pdfrwt beam="1">  1        2 0.20820391E-01 0.97970769E+02</pdfrwt>
<pdfrwt beam="2">  1       -2 0.27278310E-02 0.97970769E+02</pdfrwt>
<totfact> 0.11093473E+05</totfact>
</mgrwt>
</event>
<event>
 7    1  0.1028619E-012  0.9209872E+02  0.7546771E-02  0.1297847E+00
          2   -1    0    0  501    0  0.00000000000E+00  0.00000000000E+00  0.48510118440E+03  0.48510118440E+03  0.00000000000E+00 0.  1.
         -2   -1    0    0    0  501 -0.00000000000E+00 -0.00000000000E+00 -0.43713428333E+01  0.43713428333E+01  0.00000000000E+00 0. -1.
         23    2    1    2    0    0 -0.35527136788E-14 -0.88817841970E-15  0.48072984157E+03  0.48947252724E+03  0.92098720640E+02 0.  0.
          5    1    3    3  502    0  0.16034920868E+02  0.13330391512E+02  0.13946550089E+03  0.14109406070E+03  0.47000000000E+01 0. -1.
         -5    1    3    3    0  503 -0.22090218860E+02  0.52716916569E+01  0.10158787517E+03  0.10420151095E+03  0.47000000000E+01 0.  1.
          5    1    3    3  503    0  0.23544011890E+02 -0.77253465107E+01  0.14448350366E+03  0.14666824572E+03  0.47000000000E+01 0.  1.
         -5    1    3    3    0  502 -0.17488713898E+02 -0.10876736658E+02  0.95192961851E+02  0.97508709868E+02  0.47000000000E+01 0. -1.
<mgrwt>
<rscale>  0 0.92098721E+02</rscale>
<asrwt>0</asrwt>
<pdfrwt beam="1">  1        2 0.74630909E-01 0.92098721E+02</pdfrwt>
<pdfrwt beam="2">  1       -2 0.67251466E-03 0.92098721E+02</pdfrwt>
<totfact> 0.20775695E+05</totfact>
</mgrwt>
</event>
<event>
 7    1  0.1028619E-012  0.9381809E+02  0.7546771E-02  0.1293860E+00
         -2   -1    0    0    0  501 -0.00000000000E+00  0.00000000000E+00  0.25513206152E+02  0.25513206152E+02  0.00000000000E+00 0.  1.
          2   -1    0    0  501    0  0.00000000000E+00 -0.00000000000E+00 -0.86247820539E+02  0.86247820539E+02  0.00000000000E+00 0. -1.
         23    2    1    2    0    0  0.35527136788E-14  0.00000000000E+00 -0.60734614387E+02  0.11176102669E+03  0.93818088352E+02 0.  0.
          5    1    3    3  502    0  0.23205279891E+02  0.38281177147E+01 -0.18137330032E+02  0.30069789503E+02  0.47000000000E+01 0.  1.
         -5    1    3    3    0  502 -0.23556187952E+02 -0.52464921377E+01 -0.24275646129E+02  0.34551652140E+02  0.47000000000E+01 0.  1.
          5    1    3    3  503    0  0.19879679223E+02 -0.66008049434E+01 -0.12060606374E+02  0.24623576061E+02  0.47000000000E+01 0. -1.
         -5    1    3    3    0  503 -0.19528771163E+02  0.80191793664E+01 -0.62610318520E+01  0.22516008987E+02  0.47000000000E+01 0.  1.
<mgrwt>
<rscale>  0 0.93818088E+02</rscale>
<asrwt>0</asrwt>
<pdfrwt beam="1">  1        2 0.13268895E-01 0.93818088E+02</pdfrwt>
<pdfrwt beam="2">  1       -2 0.39251087E-02 0.93818088E+02</pdfrwt>
<totfact> 0.10842600E+05</totfact>
</mgrwt>
</event>
<event>
 7    1  0.1028619E-012  0.9207702E+02  0.7546771E-02  0.1297898E+00
         -2   -1    0    0    0  501 -0.00000000000E+00  0.00000000000E+00  0.45655801994E+01  0.45655801994E+01  0.00000000000E+00 0.  1.
          2   -1    0    0  501    0  0.00000000000E+00 -0.00000000000E+00 -0.46424426878E+03  0.46424426878E+03  0.00000000000E+00 0. -1.
         23    2    1    2    0    0  0.35527136788E-14  0.00000000000E+00 -0.45967868858E+03  0.46880984898E+03  0.92077020830E+02 0.  0.
          5    1    3    3  502    0  0.15344652354E+02 -0.15281831875E+02 -0.99547306594E+02  0.10198406244E+03  0.47000000000E+01 0. -1.
         -5    1    3    3    0  503  0.22287958823E+02 -0.16592287788E+01 -0.76886203992E+02  0.80206511662E+02  0.47000000000E+01 0.  1.
          5    1    3    3  503    0 -0.16411807620E+02  0.12348992156E+02 -0.11505094408E+03  0.11696433119E+03  0.47000000000E+01 0.  1.
         -5    1    3    3    0  502 -0.21220803558E+02  0.45920684973E+01 -0.16819423391E+03  0.16965494369E+03  0.47000000000E+01 0. -1.
<mgrwt>
<rscale>  0 0.92077021E+02</rscale>
<asrwt>0</asrwt>
<pdfrwt beam="1">  1        2 0.71422170E-01 0.92077021E+02</pdfrwt>
<pdfrwt beam="2">  1       -2 0.70239720E-03 0.92077021E+02</pdfrwt>
<totfact> 0.20485151E+05</totfact>
</mgrwt>
</event>
<event>
 7    1  0.1028619E-012  0.9220539E+02  0.7546771E-02  0.1297597E+00
          1   -1    0    0  501    0  0.00000000000E+00  0.00000000000E+00  0.71835401546E+01  0.71835401546E+01  0.00000000000E+00 0. -1.
         -1   -1    0    0    0  501 -0.00000000000E+00 -0.00000000000E+00 -0.29587900008E+03  0.29587900008E+03  0.00000000000E+00 0.  1.
         23    2    1    2    0    0 -0.44408920985E-15  0.00000000000E+00 -0.28869545992E+03  0.30306254023E+03  0.92205394158E+02 0.  0.
          5    1    3    3  502    0  0.62862089821E+00  0.20192318580E+02 -0.42378789723E+02  0.47182377137E+02  0.47000000000E+01 0.  1.
         -5    1    3    3    0  503  0.10350178621E+02 -0.19857269943E+02 -0.67863489467E+02  0.71616901425E+02  0.47000000000E+01 0. -1.
          5    1    3    3  503    0 -0.85430756357E+01  0.21194702960E+02 -0.79244024944E+02  0.82606931091E+02  0.47000000000E+01 0. -1.
         -5    1    3    3    0  502 -0.24357238837E+01 -0.21529751597E+02 -0.99209155787E+02  0.10165633058E+03  0.47000000000E+01 0.  1.
<mgrwt>
<rscale>  0 0.92205394E+02</rscale>
<asrwt>0</asrwt>
<pdfrwt beam="1">  1        1 0.11051598E-02 0.92205394E+02</pdfrwt>
<pdfrwt beam="2">  1       -1 0.45519854E-01 0.92205394E+02</pdfrwt>
<totfact> 0.59152545E+04</totfact>
</mgrwt>
</event>
<event>
 7    1  0.1028619E-012  0.9233520E+02  0.7546771E-02  0.1297293E+00
         -3   -1    0    0    0  501 -0.00000000000E+00  0.00000000000E+00  0.66361148104E+02  0.66361148104E+02  0.00000000000E+00 0.  1.
          3   -1    0    0  501    0  0.00000000000E+00 -0.00000000000E+00 -0.32118905206E+02  0.32118905206E+02  0.00000000000E+00 0. -1.
         23    2    1    2    0    0 -0.13322676296E-14  0.17763568394E-14  0.34242242898E+02  0.98480053310E+02  0.92335202936E+02 0.  0.
          5    1    3    3  502    0  0.37110372289E+01 -0.21946373351E+02  0.17676458653E+02  0.28809066127E+02  0.47000000000E+01 0.  1.
         -5    1    3    3    0  502 -0.18646397801E+01  0.21114149025E+02  0.15527737028E+01  0.21766609216E+02  0.47000000000E+01 0. -1.
          5    1    3    3  503    0  0.20413780556E+02 -0.56469049286E+01  0.90595423304E+01  0.23511173495E+02  0.47000000000E+01 0. -1.
         -5    1    3    3    0  503 -0.22260178005E+02  0.64791292539E+01  0.59534682110E+01  0.24393204473E+02  0.47000000000E+01 0.  1.
<mgrwt>
<rscale>  0 0.92335203E+02</rscale>
<asrwt>0</asrwt>
<pdfrwt beam="1">  1        3 0.49413700E-02 0.92335203E+02</pdfrwt>
<pdfrwt beam="2">  1       -3 0.10209407E-01 0.92335203E+02</pdfrwt>
<totfact> 0.33607320E+04</totfact>
</mgrwt>
</event>
<event>
 7    1  0.1028619E-012  0.9268712E+02  0.7546771E-02  0.1296472E+00
         -1   -1    0    0    0  501 -0.00000000000E+00  0.00000000000E+00  0.35043511981E+02  0.35043511981E+02  0.00000000000E+00 0.  1.
          1   -1    0    0  501    0  0.00000000000E+00 -0.00000000000E+00 -0.61287398843E+02  0.61287398843E+02  0.00000000000E+00 0. -1.
         23    2    1    2    0    0 -0.17763568394E-14  0.00000000000E+00 -0.26243886862E+02  0.96330910824E+02  0.92687123068E+02 0.  0.
          5    1    3    3  502    0  0.20800331477E+02 -0.46948794125E+01 -0.81143095030E+01  0.23294370585E+02  0.47000000000E+01 0. -1.
         -5    1    3    3    0  503 -0.10522477807E+02  0.17034449210E+02 -0.83566309128E+01  0.22199510790E+02  0.47000000000E+01 0.  1.
          5    1    3    3  503    0  0.15319988742E+02 -0.16463527625E+02 -0.83607384203E+01  0.24448757512E+02  0.47000000000E+01 0. -1.
         -5    1    3    3    0  502 -0.25597842412E+02  0.41239578273E+01 -0.14122080256E+01  0.26388271937E+02  0.47000000000E+01 0.  1.
<mgrwt>
<rscale>  0 0.92687123E+02</rscale>
<asrwt>0</asrwt>
<pdfrwt beam="1">  1        1 0.94288306E-02 0.92687123E+02</pdfrwt>
<pdfrwt beam="2">  1       -1 0.53913095E-02 0.92687123E+02</pdfrwt>
<totfact> 0.92369125E+04</totfact>
</mgrwt>
</event>
<event>
 7    1  0.1028619E-012  0.1004876E+03  0.7546771E-02  0.1279274E+00
          2   -1    0    0  501    0  0.00000000000E+00  0.00000000000E+00  0.51507212446E+02  0.51507212446E+02  0.00000000000E+00 0. -1.
         -2   -1    0    0    0  501 -0.00000000000E+00 -0.00000000000E+00 -0.49011338108E+02  0.49011338108E+02  0.00000000000E+00 0.  1.
         23    2    1    2    0    0 -0.35527136788E-14  0.00000000000E+00  0.24958743375E+01  0.10051855055E+03  0.10048755951E+03 0.  0.
          5    1    3    3  502    0  0.15213148330E+02  0.25937200265E+02  0.11550271029E+02  0.32552680389E+02  0.47000000000E+01 0. -1.
         -5    1    3    3    0  503  0.19675963805E+02 -0.73104582429E+01  0.35564705675E+01  0.21801945654E+02  0.47000000000E+01 0. -1.
          5    1    3    3  503    0 -0.12029853420E+02 -0.16314542956E+02 -0.40493920715E+01  0.21198331569E+02  0.47000000000E+01 0.  1.
         -5    1    3    3    0  502 -0.22859258716E+02 -0.23121990657E+01 -0.85614751872E+01  0.24965592942E+02  0.47000000000E+01 0. -1.
<mgrwt>
<rscale>  0 0.10048756E+03</rscale>
<asrwt>0</asrwt>
<pdfrwt beam="1">  1        2 0.79241865E-02 0.10048756E+03</pdfrwt>
<pdfrwt beam="2">  1       -2 0.75402059E-02 0.10048756E+03</pdfrwt>
<totfact> 0.77013403E+04</totfact>
</mgrwt>
</event>
<event>
 7    1  0.1028619E-012  0.9203007E+02  0.7546771E-02  0.1298009E+00
          3   -1    0    0  501    0  0.00000000000E+00  0.00000000000E+00  0.54940554321E+03  0.54940554321E+03  0.00000000000E+00 0. -1.
         -3   -1    0    0    0  501 -0.00000000000E+00 -0.00000000000E+00 -0.38539537770E+01  0.38539537770E+01  0.00000000000E+00 0.  1.
         23    2    1    2    0    0  0.00000000000E+00  0.00000000000E+00  0.54555158943E+03  0.55325949699E+03  0.92030072658E+02 0.  0.
          5    1    3    3  502    0  0.14084906145E+02  0.14451897219E+02  0.10334852140E+03  0.10540516491E+03  0.47000000000E+01 0.  1.
         -5    1    3    3    0  503 -0.11624700484E+02 -0.21350317214E+02  0.17718920424E+03  0.17891079846E+03  0.47000000000E+01 0.  1.
          5    1    3    3  503    0  0.17104566401E+02  0.11083373566E+02  0.19058325353E+03  0.19172760336E+03  0.47000000000E+01 0. -1.
         -5    1    3    3    0  502 -0.19564772062E+02 -0.41849535705E+01  0.74430610264E+02  0.77215930263E+02  0.47000000000E+01 0. -1.
<mgrwt>
<rscale>  0 0.92030073E+02</rscale>
<asrwt>0</asrwt>
<pdfrwt beam="1">  1        3 0.84523868E-01 0.92030073E+02</pdfrwt>
<pdfrwt beam="2">  1       -3 0.59291640E-03 0.92030073E+02</pdfrwt>
<totfact> 0.16282977E+04</totfact>
</mgrwt>
</event>
<event>
 7    1  0.1028619E-012  0.9111818E+02  0.7546771E-02  0.1300166E+00
          2   -1    0    0  501    0  0.00000000000E+00  0.00000000000E+00  0.19147573038E+02  0.19147573038E+02  0.00000000000E+00 0.  1.
         -2   -1    0    0    0  501 -0.00000000000E+00 -0.00000000000E+00 -0.10840176445E+03  0.10840176445E+03  0.00000000000E+00 0. -1.
         23    2    1    2    0    0 -0.17763568394E-14 -0.35527136788E-14 -0.89254191411E+02  0.12754933749E+03  0.91118180453E+02 0.  0.
          5    1    3    3  502    0  0.26184342752E+00 -0.21460402047E+02 -0.22062340686E+02  0.31136060999E+02  0.47000000000E+01 0.  1.
         -5    1    3    3    0  502 -0.11017202165E+02  0.16849180365E+02 -0.18275903726E+02  0.27592975184E+02  0.47000000000E+01 0. -1.
          5    1    3    3  503    0  0.67317724771E+01 -0.20010294918E+02 -0.30785333268E+02  0.37623867528E+02  0.47000000000E+01 0. -1.
         -5    1    3    3    0  503  0.40235862606E+01  0.24621516600E+02 -0.18130613731E+02  0.31196433776E+02  0.47000000000E+01 0.  1.
<mgrwt>
<rscale>  0 0.91118180E+02</rscale>
<asrwt>0</asrwt>
<pdfrwt beam="1">  1        2 0.29457805E-02 0.91118180E+02</pdfrwt>
<pdfrwt beam="2">  1       -2 0.16677194E-01 0.91118180E+02</pdfrwt>
<totfact> 0.78002468E+04</totfact>
</mgrwt>
</event>
<event>
 7    1  0.1028619E-012  0.9339413E+02  0.7546771E-02  0.1294834E+00
         -3   -1    0    0    0  501 -0.00000000000E+00  0.00000000000E+00  0.29347584361E+02  0.29347584361E+02  0.00000000000E+00 0.  1.
          3   -1    0    0  501    0  0.00000000000E+00 -0.00000000000E+00 -0.74303083224E+02  0.74303083224E+02  0.00000000000E+00 0. -1.
         23    2    1    2    0    0  0.35527136788E-14  0.17763568394E-14 -0.44955498863E+02  0.10365066758E+03  0.93394132646E+02 0.  0.
          5    1    3    3  502    0 -0.20899857361E+02  0.90059013632E+01 -0.88179910312E+01  0.24854723151E+02  0.47000000000E+01 0.  1.
         -5    1    3    3    0  503  0.19188936561E+02 -0.10028053591E+02 -0.24595155046E+01  0.22291620885E+02  0.47000000000E+01 0.  1.
          5    1    3    3  503    0 -0.21268825602E+02  0.95416953533E+00 -0.14238808112E+02  0.26040488445E+02  0.47000000000E+01 0. -1.
         -5    1    3    3    0  502  0.22979746401E+02  0.67982692127E-01 -0.19439184215E+02  0.30463835105E+02  0.47000000000E+01 0. -1.
<mgrwt>
<rscale>  0 0.93394133E+02</rscale>
<asrwt>0</asrwt>
<pdfrwt beam="1">  1        3 0.11431244E-01 0.93394133E+02</pdfrwt>
<pdfrwt beam="2">  1       -3 0.45150130E-02 0.93394133E+02</pdfrwt>
<totfact> 0.32219130E+04</totfact>
</mgrwt>
</event>
<event>
 7    1  0.1028619E-012  0.9411271E+02  0.7546771E-02  0.1293187E+00
         -3   -1    0    0    0  501 -0.00000000000E+00  0.00000000000E+00  0.15850017497E+02  0.15850017497E+02  0.00000000000E+00 0.  1.
          3   -1    0    0  501    0  0.00000000000E+00 -0.00000000000E+00 -0.13970335343E+03  0.13970335343E+03  0.00000000000E+00 0. -1.
         23    2    1    2    0    0 -0.44408920985E-15  0.00000000000E+00 -0.12385333593E+03  0.15555337093E+03  0.94112711070E+02 0.  0.
          5    1    3    3  502    0  0.21727098848E+02 -0.71216696679E+01 -0.30489477239E+02  0.38399000319E+02  0.47000000000E+01 0.  1.
         -5    1    3    3    0  502 -0.20651850158E+02  0.57690077576E+01 -0.18128145487E+02  0.28469282117E+02  0.47000000000E+01 0.  1.
          5    1    3    3  503    0 -0.32098506421E+01 -0.20097610287E+02 -0.54666872617E+02  0.58521569034E+02  0.47000000000E+01 0. -1.
         -5    1    3    3    0  503  0.21346019525E+01  0.21450272198E+02 -0.20568840588E+02  0.30163519456E+02  0.47000000000E+01 0. -1.
<mgrwt>
<rscale>  0 0.94112711E+02</rscale>
<asrwt>0</asrwt>
<pdfrwt beam="1">  1        3 0.21492823E-01 0.94112711E+02</pdfrwt>
<pdfrwt beam="2">  1       -3 0.24384643E-02 0.94112711E+02</pdfrwt>
<totfact> 0.28416564E+04</totfact>
</mgrwt>
</event>
<event>
 7    1  0.1028619E-012  0.9490939E+02  0.7546771E-02  0.1291380E+00
          1   -1    0    0  501    0  0.00000000000E+00  0.00000000000E+00  0.41128137456E+02  0.41128137456E+02  0.00000000000E+00 0. -1.
         -1   -1    0    0    0  501 -0.00000000000E+00 -0.00000000000E+00 -0.54754434457E+02  0.54754434457E+02  0.00000000000E+00 0.  1.
         23    2    1    2    0    0 -0.44408920985E-15 -0.17763568394E-14 -0.13626297001E+02  0.95882571913E+02  0.94909386399E+02 0.  0.
          5    1    3    3  502    0  0.22981013238E+01 -0.20790551313E+02  0.61556293561E+01  0.22304933677E+02  0.47000000000E+01 0.  1.
         -5    1    3    3    0  503 -0.17193984169E+02  0.11868345118E+02 -0.10169060543E+02  0.23706338810E+02  0.47000000000E+01 0.  1.
          5    1    3    3  503    0  0.13577301167E+02 -0.17169568631E+02 -0.41014687706E+01  0.22760695069E+02  0.47000000000E+01 0. -1.
         -5    1    3    3    0  502  0.13185816778E+01  0.26091774826E+02 -0.55113970440E+01  0.27110604357E+02  0.47000000000E+01 0. -1.
<mgrwt>
<rscale>  0 0.94909386E+02</rscale>
<asrwt>0</asrwt>
<pdfrwt beam="1">  1        1 0.63274058E-02 0.94909386E+02</pdfrwt>
<pdfrwt beam="2">  1       -1 0.84237591E-02 0.94909386E+02</pdfrwt>
<totfact> 0.81264657E+04</totfact>
</mgrwt>
</event>
<event>
 7    1  0.1028619E-012  0.9314890E+02  0.7546771E-02  0.1295400E+00
          2   -1    0    0  501    0  0.00000000000E+00  0.00000000000E+00  0.80311735228E+03  0.80311735228E+03  0.00000000000E+00 0. -1.
         -2   -1    0    0    0  501 -0.00000000000E+00 -0.00000000000E+00 -0.27009496294E+01  0.27009496294E+01  0.00000000000E+00 0.  1.
         23    2    1    2    0    0 -0.26645352591E-14  0.00000000000E+00  0.80041640265E+03  0.80581830191E+03  0.93148902624E+02 0.  0.
          5    1    3    3  502    0  0.66227544504E+01  0.19239597070E+02  0.18509177676E+03  0.18626615043E+03  0.47000000000E+01 0. -1.
         -5    1    3    3    0  503 -0.24615393576E+02 -0.50089529454E+01  0.21595256226E+03  0.21745943612E+03  0.47000000000E+01 0.  1.
          5    1    3    3  503    0  0.18165256304E+02  0.10511141884E+02  0.18660643644E+03  0.18784172263E+03  0.47000000000E+01 0.  1.
         -5    1    3    3    0  502 -0.17261717882E+00 -0.24741786008E+02  0.21276562719E+03  0.21425099272E+03  0.47000000000E+01 0. -1.
<mgrwt>
<rscale>  0 0.93148903E+02</rscale>
<asrwt>0</asrwt>
<pdfrwt beam="1">  1        2 0.12355633E+00 0.93148903E+02</pdfrwt>
<pdfrwt beam="2">  1       -2 0.41553135E-03 0.93148903E+02</pdfrwt>
<totfact> 0.23051589E+05</totfact>
</mgrwt>
</event>
<event>
 7    1  0.1028619E-012  0.9770989E+02  0.7546771E-02  0.1285187E+00
          4   -1    0    0  501    0  0.00000000000E+00  0.00000000000E+00  0.37465429600E+03  0.37465429600E+03  0.00000000000E+00 0. -1.
         -4   -1    0    0    0  501 -0.00000000000E+00 -0.00000000000E+00 -0.63706883260E+01  0.63706883260E+01  0.00000000000E+00 0.  1.
         23    2    1    2    0    0 -0.35527136788E-14  0.17763568394E-14  0.36828360768E+03  0.38102498433E+03  0.97709892024E+02 0.  0.
          5    1    3    3  502    0  0.22543430163E+02  0.17418372069E+02  0.75196626155E+02  0.80549540745E+02  0.47000000000E+01 0. -1.
         -5    1    3    3    0  502  0.77916948812E+01 -0.18427872579E+02  0.13246015736E+03  0.13404506811E+03  0.47000000000E+01 0. -1.
          5    1    3    3  503    0 -0.14017322537E+02  0.14569364863E+02  0.96967202476E+02  0.99163905125E+02  0.47000000000E+01 0.  1.
         -5    1    3    3    0  503 -0.16317802507E+02 -0.13559864354E+02  0.63659621682E+02  0.67266470345E+02  0.47000000000E+01 0.  1.
<mgrwt>
<rscale>  0 0.97709892E+02</rscale>
<asrwt>0</asrwt>
<pdfrwt beam="1">  1        4 0.57639105E-01 0.97709892E+02</pdfrwt>
<pdfrwt beam="2">  1       -4 0.98010619E-03 0.97709892E+02</pdfrwt>
<totfact> 0.12978099E+04</totfact>
</mgrwt>
</event>
<event>
 7    1  0.1028619E-012  0.9387257E+02  0.7546771E-02  0.1293736E+00
         -1   -1    0    0    0  501 -0.00000000000E+00  0.00000000000E+00  0.51557454549E+02  0.51557454549E+02  0.00000000000E+00 0.  1.
          1   -1    0    0  501    0  0.00000000000E+00 -0.00000000000E+00 -0.42729315076E+02  0.42729315076E+02  0.00000000000E+00 0. -1.
         23    2    1    2    0    0  0.00000000000E+00  0.17763568394E-14  0.88281394732E+01  0.94286769625E+02  0.93872567238E+02 0.  0.
          5    1    3    3  502    0  0.38094893548E+01 -0.20621043868E+02  0.13353102780E+02  0.25300889573E+02  0.47000000000E+01 0. -1.
         -5    1    3    3    0  503  0.24837421851E+02 -0.20947553395E+01 -0.48072594509E+01  0.25816375957E+02  0.47000000000E+01 0.  1.
          5    1    3    3  503    0 -0.19968411690E+02  0.38407542181E+01  0.47549878512E+01  0.21405344376E+02  0.47000000000E+01 0.  1.
         -5    1    3    3    0  502 -0.86784995155E+01  0.18875044989E+02 -0.44726917073E+01  0.21764159719E+02  0.47000000000E+01 0. -1.
<mgrwt>
<rscale>  0 0.93872567E+02</rscale>
<asrwt>0</asrwt>
<pdfrwt beam="1">  1        1 0.65737408E-02 0.93872567E+02</pdfrwt>
<pdfrwt beam="2">  1       -1 0.79319161E-02 0.93872567E+02</pdfrwt>
<totfact> 0.84338453E+04</totfact>
</mgrwt>
</event>
<event>
 7    1  0.1028619E-012  0.9136994E+02  0.7546771E-02  0.1299568E+00
         -3   -1    0    0    0  501 -0.00000000000E+00  0.00000000000E+00  0.19864432341E+03  0.19864432341E+03  0.00000000000E+00 0.  1.
          3   -1    0    0  501    0  0.00000000000E+00 -0.00000000000E+00 -0.10506800822E+02  0.10506800822E+02  0.00000000000E+00 0. -1.
         23    2    1    2    0    0  0.00000000000E+00 -0.17763568394E-14  0.18813752259E+03  0.20915112423E+03  0.91369936861E+02 0.  0.
          5    1    3    3  502    0 -0.19491583244E+02 -0.82227718445E+01  0.39089347178E+02  0.44694550640E+02  0.47000000000E+01 0. -1.
         -5    1    3    3    0  502  0.24926263153E+02 -0.64585488188E+01  0.61951285751E+02  0.67253871664E+02  0.47000000000E+01 0.  1.
          5    1    3    3  503    0 -0.20136820738E+02 -0.91396174909E+00  0.49800632351E+02  0.53930694953E+02  0.47000000000E+01 0.  1.
         -5    1    3    3    0  503  0.14702140828E+02  0.15595282412E+02  0.37296257307E+02  0.43272006974E+02  0.47000000000E+01 0. -1.
<mgrwt>
<rscale>  0 0.91369937E+02</rscale>
<asrwt>0</asrwt>
<pdfrwt beam="1">  1        3 0.16164310E-02 0.91369937E+02</pdfrwt>
<pdfrwt beam="2">  1       -3 0.30560662E-01 0.91369937E+02</pdfrwt>
<totfact> 0.27870792E+04</totfact>
</mgrwt>
</event>
<event>
 7    1  0.1028619E-012  0.1019807E+03  0.7546771E-02  0.1276185E+00
         -2   -1    0    0    0  501 -0.00000000000E+00  0.00000000000E+00  0.53199526311E+01  0.53199526311E+01  0.00000000000E+00 0.  1.
          2   -1    0    0  501    0  0.00000000000E+00 -0.00000000000E+00 -0.48872915127E+03  0.48872915127E+03  0.00000000000E+00 0. -1.
         23    2    1    2    0    0  0.88817841970E-15  0.00000000000E+00 -0.48340919864E+03  0.49404910390E+03  0.10198070277E+03 0.  0.
          5    1    3    3  502    0  0.10729779168E+02  0.17567875457E+02 -0.66656567221E+02  0.69921000871E+02  0.47000000000E+01 0. -1.
         -5    1    3    3    0  502 -0.57975169107E+01 -0.21216065317E+02 -0.86391644345E+02  0.89271153473E+02  0.47000000000E+01 0.  1.
          5    1    3    3  503    0  0.21840163326E+02  0.20640529960E+01 -0.22186993409E+03  0.22300136928E+03  0.47000000000E+01 0. -1.
         -5    1    3    3    0  503 -0.26772425583E+02  0.15841368639E+01 -0.10849105298E+03  0.11185558028E+03  0.47000000000E+01 0.  1.
<mgrwt>
<rscale>  0 0.10198070E+03</rscale>
<asrwt>0</asrwt>
<pdfrwt beam="1">  1        2 0.75189134E-01 0.10198070E+03</pdfrwt>
<pdfrwt beam="2">  1       -2 0.81845388E-03 0.10198070E+03</pdfrwt>
<totfact> 0.15873150E+05</totfact>
</mgrwt>
</event>
<event>
 7    1  0.1028619E-012  0.9035801E+02  0.7546771E-02  0.1301987E+00
          1   -1    0    0  501    0  0.00000000000E+00  0.00000000000E+00  0.13580081217E+03  0.13580081217E+03  0.00000000000E+00 0. -1.
         -1   -1    0    0    0  501 -0.00000000000E+00 -0.00000000000E+00 -0.15030412987E+02  0.15030412987E+02  0.00000000000E+00 0.  1.
         23    2    1    2    0    0  0.00000000000E+00  0.00000000000E+00  0.12077039918E+03  0.15083122516E+03  0.90358005529E+02 0.  0.
          5    1    3    3  502    0  0.11679205290E+02 -0.18673166236E+02  0.35047490510E+02  0.41659423478E+02  0.47000000000E+01 0. -1.
         -5    1    3    3    0  502  0.39337192014E+01  0.21582235783E+02  0.21840356103E+02  0.31310672348E+02  0.47000000000E+01 0.  1.
          5    1    3    3  503    0 -0.23929013567E+01 -0.20330968496E+02  0.22238368461E+02  0.30589365614E+02  0.47000000000E+01 0. -1.
         -5    1    3    3    0  503 -0.13220023135E+02  0.17421898948E+02  0.41644184109E+02  0.47271763716E+02  0.47000000000E+01 0.  1.
<mgrwt>
<rscale>  0 0.90358006E+02</rscale>
<asrwt>0</asrwt>
<pdfrwt beam="1">  1        1 0.20892432E-01 0.90358006E+02</pdfrwt>
<pdfrwt beam="2">  1       -1 0.23123713E-02 0.90358006E+02</pdfrwt>
<totfact> 0.11283955E+05</totfact>
</mgrwt>
</event>
<event>
 7    1  0.1028619E-012  0.9068604E+02  0.7546771E-02  0.1301199E+00
          1   -1    0    0  501    0  0.00000000000E+00  0.00000000000E+00  0.10352335603E+03  0.10352335603E+03  0.00000000000E+00 0. -1.
         -1   -1    0    0    0  501 -0.00000000000E+00 -0.00000000000E+00 -0.19860150854E+02  0.19860150854E+02  0.00000000000E+00 0.  1.
         23    2    1    2    0    0  0.00000000000E+00  0.00000000000E+00  0.83663205180E+02  0.12338350689E+03  0.90686040111E+02 0.  0.
          5    1    3    3  502    0  0.19276447737E+02  0.55145515240E+01  0.22265993553E+02  0.30329130960E+02  0.47000000000E+01 0. -1.
         -5    1    3    3    0  503 -0.23519038613E+02  0.88618340235E+01  0.16722816567E+02  0.30551920946E+02  0.47000000000E+01 0.  1.
          5    1    3    3  503    0  0.20670213735E+02 -0.18330810248E+01  0.14990022463E+02  0.26027076196E+02  0.47000000000E+01 0.  1.
         -5    1    3    3    0  502 -0.16427622858E+02 -0.12543304523E+02  0.29684372597E+02  0.36475378786E+02  0.47000000000E+01 0. -1.
<mgrwt>
<rscale>  0 0.90686040E+02</rscale>
<asrwt>0</asrwt>
<pdfrwt beam="1">  1        1 0.15926670E-01 0.90686040E+02</pdfrwt>
<pdfrwt beam="2">  1       -1 0.30554079E-02 0.90686040E+02</pdfrwt>
<totfact> 0.10661187E+05</totfact>
</mgrwt>
</event>
<event>
 7    1  0.1028619E-012  0.1017841E+03  0.7546771E-02  0.1276588E+00
          1   -1    0    0  501    0  0.00000000000E+00  0.00000000000E+00  0.17882325557E+03  0.17882325557E+03  0.00000000000E+00 0. -1.
         -1   -1    0    0    0  501 -0.00000000000E+00 -0.00000000000E+00 -0.14483593247E+02  0.14483593247E+02  0.00000000000E+00 0.  1.
         23    2    1    2    0    0  0.00000000000E+00  0.35527136788E-14  0.16433966233E+03  0.19330684882E+03  0.10178414998E+03 0.  0.
          5    1    3    3  502    0 -0.19940816957E+02 -0.16474750836E+02  0.40337594231E+02  0.48148365542E+02  0.47000000000E+01 0.  1.
         -5    1    3    3    0  502  0.24274739453E+02 -0.29565145263E+01  0.31415088478E+02  0.40087426179E+02  0.47000000000E+01 0. -1.
          5    1    3    3  503    0 -0.21878104119E+02  0.48062439919E+01  0.26634786603E+02  0.35117706055E+02  0.47000000000E+01 0. -1.
         -5    1    3    3    0  503  0.17544181624E+02  0.14625021370E+02  0.65952193014E+02  0.69953351044E+02  0.47000000000E+01 0.  1.
<mgrwt>
<rscale>  0 0.10178415E+03</rscale>
<asrwt>0</asrwt>
<pdfrwt beam="1">  1        1 0.27511269E-01 0.10178415E+03</pdfrwt>
<pdfrwt beam="2">  1       -1 0.22282452E-02 0.10178415E+03</pdfrwt>
<totfact> 0.86035754E+04</totfact>
</mgrwt>
</event>
<event>
 7    1  0.1028619E-012  0.9776569E+02  0.7546771E-02  0.1285066E+00
         -4   -1    0    0    0  501 -0.00000000000E+00  0.00000000000E+00  0.22154880806E+02  0.22154880806E+02  0.00000000000E+00 0.  1.
          4   -1    0    0  501    0  0.00000000000E+00 -0.00000000000E+00 -0.10785581031E+03  0.10785581031E+03  0.00000000000E+00 0. -1.
         23    2    1    2    0    0 -0.35527136788E-14 -0.35527136788E-14 -0.85700929506E+02  0.13001069112E+03  0.97765691767E+02 0.  0.
          5    1    3    3  502    0  0.24283861853E+02  0.44785013197E+01 -0.19387077045E+02  0.31744474746E+02  0.47000000000E+01 0. -1.
         -5    1    3    3    0  502 -0.12967206339E+02 -0.24074539689E+02 -0.27145750605E+02  0.38816409898E+02  0.47000000000E+01 0. -1.
          5    1    3    3  503    0  0.88664943760E+01  0.20513032858E+02 -0.27147958980E+02  0.35475356466E+02  0.47000000000E+01 0.  1.
         -5    1    3    3    0  503 -0.20183149890E+02 -0.91699448905E+00 -0.12020142876E+02  0.23974450007E+02  0.47000000000E+01 0.  1.
<mgrwt>
<rscale>  0 0.97765692E+02</rscale>
<asrwt>0</asrwt>
<pdfrwt beam="1">  1        4 0.16593202E-01 0.97765692E+02</pdfrwt>
<pdfrwt beam="2">  1       -4 0.34084432E-02 0.97765692E+02</pdfrwt>
<totfact> 0.20451623E+04</totfact>
</mgrwt>
</event>
<event>
 7    1  0.1028619E-012  0.1031032E+03  0.7546771E-02  0.1273903E+00
         -2   -1    0    0    0  501 -0.00000000000E+00  0.00000000000E+00  0.50082980743E+01  0.50082980743E+01  0.00000000000E+00 0.  1.
          2   -1    0    0  501    0  0.00000000000E+00 -0.00000000000E+00 -0.53063250935E+03  0.53063250935E+03  0.00000000000E+00 0. -1.
         23    2    1    2    0    0  0.35527136788E-14  0.00000000000E+00 -0.52562421127E+03  0.53564080742E+03  0.10310316726E+03 0.  0.
          5    1    3    3  502    0  0.17382955537E+02  0.16623170789E+02 -0.69379478232E+02  0.73580560952E+02  0.47000000000E+01 0. -1.
         -5    1    3    3    0  502 -0.20305550497E+02  0.12505239613E+02 -0.14739802234E+03  0.14938863206E+03  0.47000000000E+01 0.  1.
          5    1    3    3  503    0  0.20255334286E+02 -0.17169377079E+02 -0.18599362006E+03  0.18793824193E+03  0.47000000000E+01 0. -1.
         -5    1    3    3    0  503 -0.17332739326E+02 -0.11959033323E+02 -0.12285309064E+03  0.12473337248E+03  0.47000000000E+01 0.  1.
<mgrwt>
<rscale>  0 0.10310317E+03</rscale>
<asrwt>0</asrwt>
<pdfrwt beam="1">  1        2 0.81635761E-01 0.10310317E+03</pdfrwt>
<pdfrwt beam="2">  1       -2 0.77050749E-03 0.10310317E+03</pdfrwt>
<totfact> 0.15832747E+05</totfact>
</mgrwt>
</event>
<event>
 7    1  0.1028619E-012  0.9318173E+02  0.7546771E-02  0.1295325E+00
          1   -1    0    0  501    0  0.00000000000E+00  0.00000000000E+00  0.48358416532E+03  0.48358416532E+03  0.00000000000E+00 0. -1.
         -1   -1    0    0    0  501 -0.00000000000E+00 -0.00000000000E+00 -0.44887918301E+01  0.44887918301E+01  0.00000000000E+00 0.  1.
         23    2    1    2    0    0  0.35527136788E-14  0.00000000000E+00  0.47909537349E+03  0.48807295715E+03  0.93181728905E+02 0.  0.
          5    1    3    3  502    0 -0.18272108084E+02 -0.88571428574E+01  0.14788189364E+03  0.14934344103E+03  0.47000000000E+01 0. -1.
         -5    1    3    3    0  502  0.98886430929E+01 -0.18322363036E+02  0.11272914127E+03  0.11473205106E+03  0.47000000000E+01 0. -1.
          5    1    3    3  503    0 -0.14373861046E+02  0.15121253476E+02  0.12905356418E+03  0.13081350318E+03  0.47000000000E+01 0.  1.
         -5    1    3    3    0  503  0.22757326037E+02  0.12058252418E+02  0.89430774400E+02  0.93183961869E+02  0.47000000000E+01 0.  1.
<mgrwt>
<rscale>  0 0.93181729E+02</rscale>
<asrwt>0</asrwt>
<pdfrwt beam="1">  1        1 0.74397523E-01 0.93181729E+02</pdfrwt>
<pdfrwt beam="2">  1       -1 0.69058374E-03 0.93181729E+02</pdfrwt>
<totfact> 0.13091606E+05</totfact>
</mgrwt>
</event>
<event>
 7    1  0.1028619E-012  0.9231357E+02  0.7546771E-02  0.1297344E+00
         -1   -1    0    0    0  501 -0.00000000000E+00  0.00000000000E+00  0.62499321864E+02  0.62499321864E+02  0.00000000000E+00 0.  1.
          1   -1    0    0  501    0  0.00000000000E+00 -0.00000000000E+00 -0.34087551935E+02  0.34087551935E+02  0.00000000000E+00 0. -1.
         23    2    1    2    0    0  0.00000000000E+00  0.00000000000E+00  0.28411769929E+02  0.96586873799E+02  0.92313571699E+02 0.  0.
          5    1    3    3  502    0 -0.20179654504E+02  0.33603013960E+01  0.37434080525E+00  0.20993813670E+02  0.47000000000E+01 0.  1.
         -5    1    3    3    0  502  0.24262493509E+02 -0.10195081912E+01  0.11333198561E+02  0.27207340514E+02  0.47000000000E+01 0. -1.
          5    1    3    3  503    0 -0.15458743758E+02  0.15086421600E+02  0.14410237618E+01  0.22152639228E+02  0.47000000000E+01 0. -1.
         -5    1    3    3    0  503  0.11375904753E+02 -0.17427214805E+02  0.15263206801E+02  0.26233080388E+02  0.47000000000E+01 0.  1.
<mgrwt>
<rscale>  0 0.92313572E+02</rscale>
<asrwt>0</asrwt>
<pdfrwt beam="1">  1        1 0.52442388E-02 0.92313572E+02</pdfrwt>
<pdfrwt beam="2">  1       -1 0.96152803E-02 0.92313572E+02</pdfrwt>
<totfact> 0.85384130E+04</totfact>
</mgrwt>
</event>
<event>
 7    1  0.1028619E-012  0.9168497E+02  0.7546771E-02  0.1298822E+00
         -1   -1    0    0    0  501 -0.00000000000E+00  0.00000000000E+00  0.21578960947E+03  0.21578960947E+03  0.00000000000E+00 0.  1.
          1   -1    0    0  501    0  0.00000000000E+00 -0.00000000000E+00 -0.97388078283E+01  0.97388078283E+01  0.00000000000E+00 0. -1.
         23    2    1    2    0    0 -0.88817841970E-15  0.88817841970E-15  0.20605080164E+03  0.22552841730E+03  0.91684972334E+02 0.  0.
          5    1    3    3  502    0 -0.53335608703E+01  0.21523067169E+02  0.71842620135E+02  0.75333534098E+02  0.47000000000E+01 0. -1.
         -5    1    3    3    0  503 -0.22504852497E+02  0.14254832908E+01  0.45477015922E+02  0.50977930182E+02  0.47000000000E+01 0.  1.
          5    1    3    3  503    0  0.19977166883E+02 -0.14793481515E+01  0.48865421270E+02  0.53020704103E+02  0.47000000000E+01 0. -1.
         -5    1    3    3    0  502  0.78612464839E+01 -0.21469202308E+02  0.39865744313E+02  0.46196248914E+02  0.47000000000E+01 0.  1.
<mgrwt>
<rscale>  0 0.91684972E+02</rscale>
<asrwt>0</asrwt>
<pdfrwt beam="1">  1        1 0.14982783E-02 0.91684972E+02</pdfrwt>
<pdfrwt beam="2">  1       -1 0.33198398E-01 0.91684972E+02</pdfrwt>
<totfact> 0.66912081E+04</totfact>
</mgrwt>
</event>
<event>
 7    1  0.1028619E-012  0.9362181E+02  0.7546771E-02  0.1294311E+00
         -2   -1    0    0    0  501 -0.00000000000E+00  0.00000000000E+00  0.10706366354E+03  0.10706366354E+03  0.00000000000E+00 0.  1.
          2   -1    0    0  501    0  0.00000000000E+00 -0.00000000000E+00 -0.20466895793E+02  0.20466895793E+02  0.00000000000E+00 0. -1.
         23    2    1    2    0    0  0.71054273576E-14  0.00000000000E+00  0.86596767751E+02  0.12753055934E+03  0.93621810385E+02 0.  0.
          5    1    3    3  502    0  0.19202533676E+02 -0.11463850560E+02  0.12649356289E+02  0.26119980547E+02  0.47000000000E+01 0.  1.
         -5    1    3    3    0  503 -0.10258967220E+01 -0.20319126360E+02  0.19076098372E+02  0.28282625217E+02  0.47000000000E+01 0.  1.
          5    1    3    3  503    0 -0.22646077858E+02  0.99695587574E+01  0.24127662933E+02  0.34877945220E+02  0.47000000000E+01 0. -1.
         -5    1    3    3    0  502  0.44694409038E+01  0.21813418162E+02  0.30743650157E+02  0.38250008351E+02  0.47000000000E+01 0.  1.
<mgrwt>
<rscale>  0 0.93621810E+02</rscale>
<asrwt>0</asrwt>
<pdfrwt beam="1">  1        2 0.31487533E-02 0.93621810E+02</pdfrwt>
<pdfrwt beam="2">  1       -2 0.16471333E-01 0.93621810E+02</pdfrwt>
<totfact> 0.73173355E+04</totfact>
</mgrwt>
</event>
<event>
 7    1  0.1028619E-012  0.9921265E+02  0.7546771E-02  0.1281960E+00
         -1   -1    0    0    0  501 -0.00000000000E+00  0.00000000000E+00  0.43739701141E+02  0.43739701141E+02  0.00000000000E+00 0.  1.
          1   -1    0    0  501    0  0.00000000000E+00 -0.00000000000E+00 -0.56259813362E+02  0.56259813362E+02  0.00000000000E+00 0. -1.
         23    2    1    2    0    0  0.00000000000E+00  0.17763568394E-14 -0.12520112221E+02  0.99999514503E+02  0.99212648845E+02 0.  0.
          5    1    3    3  502    0 -0.41184237555E+01  0.21864480170E+02 -0.16178637662E+02  0.27907977783E+02  0.47000000000E+01 0. -1.
         -5    1    3    3    0  503  0.59868730227E+01 -0.20335780933E+02  0.39171936698E+00  0.21717045812E+02  0.47000000000E+01 0. -1.
          5    1    3    3  503    0 -0.22379336530E+02  0.10448297005E+02 -0.31192432601E+01  0.25334192159E+02  0.47000000000E+01 0.  1.
         -5    1    3    3    0  502  0.20510887263E+02 -0.11976996242E+02  0.63860493344E+01  0.25040298748E+02  0.47000000000E+01 0.  1.
<mgrwt>
<rscale>  0 0.99212649E+02</rscale>
<asrwt>0</asrwt>
<pdfrwt beam="1">  1        1 0.86553559E-02 0.99212649E+02</pdfrwt>
<pdfrwt beam="2">  1       -1 0.67291848E-02 0.99212649E+02</pdfrwt>
<totfact> 0.75329590E+04</totfact>
</mgrwt>
</event>
<event>
 7    1  0.1028619E-012  0.9311201E+02  0.7546771E-02  0.1295486E+00
         -1   -1    0    0    0  501 -0.00000000000E+00  0.00000000000E+00  0.19658419460E+02  0.19658419460E+02  0.00000000000E+00 0.  1.
          1   -1    0    0  501    0  0.00000000000E+00 -0.00000000000E+00 -0.11025613831E+03  0.11025613831E+03  0.00000000000E+00 0. -1.
         23    2    1    2    0    0  0.00000000000E+00  0.00000000000E+00 -0.90597718855E+02  0.12991455777E+03  0.93112005994E+02 0.  0.
          5    1    3    3  502    0 -0.20535973800E+02  0.16902562758E+01 -0.31164398028E+02  0.37654918545E+02  0.47000000000E+01 0. -1.
         -5    1    3    3    0  503  0.21489390883E+02 -0.61067476092E+00 -0.32645079304E+02  0.39369506562E+02  0.47000000000E+01 0.  1.
          5    1    3    3  503    0 -0.19831482060E+02 -0.78760776981E+01 -0.40836275738E+01  0.22228051978E+02  0.47000000000E+01 0.  1.
         -5    1    3    3    0  502  0.18878064976E+02  0.67964961832E+01 -0.22704613948E+02  0.30662080689E+02  0.47000000000E+01 0. -1.
<mgrwt>
<rscale>  0 0.93112006E+02</rscale>
<asrwt>0</asrwt>
<pdfrwt beam="1">  1        1 0.16962483E-01 0.93112006E+02</pdfrwt>
<pdfrwt beam="2">  1       -1 0.30243722E-02 0.93112006E+02</pdfrwt>
<totfact> 0.10027634E+05</totfact>
</mgrwt>
</event>
<event>
 7    1  0.1028619E-012  0.9416334E+02  0.7546771E-02  0.1293072E+00
         -2   -1    0    0    0  501 -0.00000000000E+00  0.00000000000E+00  0.10075296613E+02  0.10075296613E+02  0.00000000000E+00 0.  1.
          2   -1    0    0  501    0  0.00000000000E+00 -0.00000000000E+00 -0.22001177222E+03  0.22001177222E+03  0.00000000000E+00 0. -1.
         23    2    1    2    0    0  0.00000000000E+00 -0.35527136788E-14 -0.20993647561E+03  0.23008706883E+03  0.94163344532E+02 0.  0.
          5    1    3    3  502    0  0.11845430046E+02 -0.16202297847E+02 -0.26153264897E+02  0.33300329327E+02  0.47000000000E+01 0.  1.
         -5    1    3    3    0  503 -0.14898612182E+02  0.18572316195E+02 -0.53953175124E+02  0.59160245771E+02  0.47000000000E+01 0. -1.
          5    1    3    3  503    0  0.68238680005E+01 -0.22853438590E+02 -0.69990660372E+02  0.74092019605E+02  0.47000000000E+01 0. -1.
         -5    1    3    3    0  502 -0.37706858649E+01  0.20483420243E+02 -0.59839375213E+02  0.63534474128E+02  0.47000000000E+01 0.  1.
<mgrwt>
<rscale>  0 0.94163345E+02</rscale>
<asrwt>0</asrwt>
<pdfrwt beam="1">  1        2 0.33847960E-01 0.94163345E+02</pdfrwt>
<pdfrwt beam="2">  1       -2 0.15500458E-02 0.94163345E+02</pdfrwt>
<totfact> 0.14682943E+05</totfact>
</mgrwt>
</event>
<event>
 7    1  0.1176539E-012  0.9363442E+02  0.7546771E-02  0.1294282E+00
         -2   -1    0    0    0  501 -0.00000000000E+00  0.00000000000E+00  0.23334273901E+02  0.23334273901E+02  0.00000000000E+00 0. -1.
          2   -1    0    0  501    0  0.00000000000E+00 -0.00000000000E+00 -0.93932690907E+02  0.93932690907E+02  0.00000000000E+00 0.  1.
         23    2    1    2    0    0  0.88817841970E-15  0.00000000000E+00 -0.70598417006E+02  0.11726696481E+03  0.93634419694E+02 0.  0.
          5    1    3    3  502    0 -0.65070221956E+01  0.19741916664E+02 -0.24302448925E+02  0.32323113018E+02  0.47000000000E+01 0.  1.
         -5    1    3    3    0  502  0.44709070848E+00 -0.21096240181E+02 -0.52511307693E+01  0.22246698952E+02  0.47000000000E+01 0. -1.
          5    1    3    3  503    0  0.59038305404E+00  0.22967233731E+02 -0.13912103174E+02  0.27266811184E+02  0.47000000000E+01 0. -1.
         -5    1    3    3    0  503  0.54695484330E+01 -0.21612910214E+02 -0.27132734137E+02  0.35430341654E+02  0.47000000000E+01 0.  1.
<mgrwt>
<rscale>  0 0.93634420E+02</rscale>
<asrwt>0</asrwt>
<pdfrwt beam="1">  1        2 0.14451183E-01 0.93634420E+02</pdfrwt>
<pdfrwt beam="2">  1       -2 0.35898884E-02 0.93634420E+02</pdfrwt>
<totfact> 0.11183630E+05</totfact>
</mgrwt>
</event>
<event>
 7    1  0.1028619E-012  0.9871920E+02  0.7546771E-02  0.1283013E+00
          2   -1    0    0  501    0  0.00000000000E+00  0.00000000000E+00  0.23807432113E+03  0.23807432113E+03  0.00000000000E+00 0.  1.
         -2   -1    0    0    0  501 -0.00000000000E+00 -0.00000000000E+00 -0.10233652860E+02  0.10233652860E+02  0.00000000000E+00 0. -1.
         23    2    1    2    0    0  0.00000000000E+00 -0.35527136788E-14  0.22784066827E+03  0.24830797398E+03  0.98719196860E+02 0.  0.
          5    1    3    3  502    0 -0.73127725835E+01 -0.23255514634E+02  0.58153951508E+02  0.63231856526E+02  0.47000000000E+01 0. -1.
         -5    1    3    3    0  502 -0.20465534168E+02  0.51577753071E+01  0.65141319306E+02  0.68636158225E+02  0.47000000000E+01 0. -1.
          5    1    3    3  503    0  0.18769725633E+02 -0.73660768905E+01  0.65765980360E+02  0.68947921374E+02  0.47000000000E+01 0.  1.
         -5    1    3    3    0  503  0.90085811184E+01  0.25463816217E+02  0.38779417091E+02  0.47492037860E+02  0.47000000000E+01 0.  1.
<mgrwt>
<rscale>  0 0.98719197E+02</rscale>
<asrwt>0</asrwt>
<pdfrwt beam="1">  1        2 0.36626814E-01 0.98719197E+02</pdfrwt>
<pdfrwt beam="2">  1       -2 0.15744083E-02 0.98719197E+02</pdfrwt>
<totfact> 0.13306996E+05</totfact>
</mgrwt>
</event>
<event>
 7    1  0.1028619E-012  0.9538946E+02  0.7546771E-02  0.1290301E+00
         -2   -1    0    0    0  501 -0.00000000000E+00  0.00000000000E+00  0.47502763964E+01  0.47502763964E+01  0.00000000000E+00 0.  1.
          2   -1    0    0  501    0  0.00000000000E+00 -0.00000000000E+00 -0.47887475117E+03  0.47887475117E+03  0.00000000000E+00 0. -1.
         23    2    1    2    0    0  0.00000000000E+00  0.00000000000E+00 -0.47412447478E+03  0.48362502757E+03  0.95389463304E+02 0.  0.
          5    1    3    3  502    0  0.19727292575E+02  0.35152617036E+01 -0.12330997527E+03  0.12501585155E+03  0.47000000000E+01 0. -1.
         -5    1    3    3    0  503 -0.42949335663E+01 -0.25572461089E+02 -0.17081560186E+03  0.17283650384E+03  0.47000000000E+01 0.  1.
          5    1    3    3  503    0  0.83838878538E+01  0.18804299574E+02 -0.94760706175E+02  0.97085388668E+02  0.47000000000E+01 0.  1.
         -5    1    3    3    0  502 -0.23816246863E+02  0.32528998106E+01 -0.85238191465E+02  0.88687283508E+02  0.47000000000E+01 0. -1.
<mgrwt>
<rscale>  0 0.95389463E+02</rscale>
<asrwt>0</asrwt>
<pdfrwt beam="1">  1        2 0.73673040E-01 0.95389463E+02</pdfrwt>
<pdfrwt beam="2">  1       -2 0.73081174E-03 0.95389463E+02</pdfrwt>
<totfact> 0.18844520E+05</totfact>
</mgrwt>
</event>
<event>
 7    1  0.1028619E-012  0.9477370E+02  0.7546771E-02  0.1291687E+00
          2   -1    0    0  501    0  0.00000000000E+00  0.00000000000E+00  0.77562172569E+02  0.77562172569E+02  0.00000000000E+00 0.  1.
         -2   -1    0    0    0  501 -0.00000000000E+00 -0.00000000000E+00 -0.28951144658E+02  0.28951144658E+02  0.00000000000E+00 0. -1.
         23    2    1    2    0    0  0.00000000000E+00  0.00000000000E+00  0.48611027911E+02  0.10651331723E+03  0.94773702641E+02 0.  0.
          5    1    3    3  502    0 -0.96154971405E+01  0.22307186951E+02  0.75745628126E+01  0.25875323703E+02  0.47000000000E+01 0. -1.
         -5    1    3    3    0  502  0.68469556523E+01 -0.21145079891E+02  0.10185664735E+01  0.22740331637E+02  0.47000000000E+01 0. -1.
          5    1    3    3  503    0 -0.52917329742E+01 -0.19741104267E+02  0.18310168780E+02  0.27840005681E+02  0.47000000000E+01 0. -1.
         -5    1    3    3    0  503  0.80602744625E+01  0.18578997207E+02  0.21707729844E+02  0.30057656206E+02  0.47000000000E+01 0.  1.
<mgrwt>
<rscale>  0 0.94773703E+02</rscale>
<asrwt>0</asrwt>
<pdfrwt beam="1">  1        2 0.11932642E-01 0.94773703E+02</pdfrwt>
<pdfrwt beam="2">  1       -2 0.44540223E-02 0.94773703E+02</pdfrwt>
<totfact> 0.10217920E+05</totfact>
</mgrwt>
</event>
<event>
 7    1  0.1028619E-012  0.9233254E+02  0.7546771E-02  0.1297299E+00
         -1   -1    0    0    0  501 -0.00000000000E+00  0.00000000000E+00  0.43196507364E+01  0.43196507364E+01  0.00000000000E+00 0.  1.
          1   -1    0    0  501    0  0.00000000000E+00 -0.00000000000E+00 -0.49340205791E+03  0.49340205791E+03  0.00000000000E+00 0. -1.
         23    2    1    2    0    0  0.00000000000E+00  0.35527136788E-14 -0.48908240717E+03  0.49772170864E+03  0.92332541670E+02 0.  0.
          5    1    3    3  502    0 -0.21168956280E+02 -0.12571754965E+01 -0.11268254536E+03  0.11475692235E+03  0.47000000000E+01 0. -1.
         -5    1    3    3    0  503  0.26516835185E+02  0.15583814826E+00 -0.14705993145E+03  0.14950545231E+03  0.47000000000E+01 0. -1.
          5    1    3    3  503    0 -0.55781007101E+01 -0.19904596656E+02 -0.89770584150E+02  0.92239665839E+02  0.47000000000E+01 0.  1.
         -5    1    3    3    0  502  0.23022180466E+00  0.21005934004E+02 -0.13956934622E+03  0.14121966814E+03  0.47000000000E+01 0.  1.
<mgrwt>
<rscale>  0 0.92332542E+02</rscale>
<asrwt>0</asrwt>
<pdfrwt beam="1">  1        1 0.75907941E-01 0.92332542E+02</pdfrwt>
<pdfrwt beam="2">  1       -1 0.66456225E-03 0.92332542E+02</pdfrwt>
<totfact> 0.13447433E+05</totfact>
</mgrwt>
</event>
<event>
 7    1  0.1028619E-012  0.9021897E+02  0.7546771E-02  0.1302322E+00
          1   -1    0    0  501    0  0.00000000000E+00  0.00000000000E+00  0.35510774416E+03  0.35510774416E+03  0.00000000000E+00 0. -1.
         -1   -1    0    0    0  501 -0.00000000000E+00 -0.00000000000E+00 -0.57302764530E+01  0.57302764530E+01  0.00000000000E+00 0.  1.
         23    2    1    2    0    0  0.00000000000E+00  0.17763568394E-14  0.34937746771E+03  0.36083802062E+03  0.90218967954E+02 0.  0.
          5    1    3    3  502    0 -0.18656780290E+02  0.12827953396E+02  0.79243081916E+02  0.82548094288E+02  0.47000000000E+01 0. -1.
         -5    1    3    3    0  502  0.14562527664E+02 -0.14020802098E+02  0.11537790995E+03  0.11722969849E+03  0.47000000000E+01 0. -1.
          5    1    3    3  503    0 -0.72023704499E+01 -0.18773453895E+02  0.60033696379E+02  0.63485836312E+02  0.47000000000E+01 0.  1.
         -5    1    3    3    0  503  0.11296623075E+02  0.19966302596E+02  0.94722779466E+02  0.97574391528E+02  0.47000000000E+01 0.  1.
<mgrwt>
<rscale>  0 0.90218968E+02</rscale>
<asrwt>0</asrwt>
<pdfrwt beam="1">  1        1 0.54631943E-01 0.90218968E+02</pdfrwt>
<pdfrwt beam="2">  1       -1 0.88158127E-03 0.90218968E+02</pdfrwt>
<totfact> 0.13593292E+05</totfact>
</mgrwt>
</event>
<event>
 7    1  0.1028619E-012  0.9169530E+02  0.7546771E-02  0.1298797E+00
          1   -1    0    0  501    0  0.00000000000E+00  0.00000000000E+00  0.23800845387E+03  0.23800845387E+03  0.00000000000E+00 0. -1.
         -1   -1    0    0    0  501 -0.00000000000E+00 -0.00000000000E+00 -0.88316486301E+01  0.88316486301E+01  0.00000000000E+00 0.  1.
         23    2    1    2    0    0 -0.13322676296E-14  0.00000000000E+00  0.22917680524E+03  0.24684010250E+03  0.91695300547E+02 0.  0.
          5    1    3    3  502    0  0.45411887494E+01 -0.20207937161E+02  0.58554222822E+02  0.62286998080E+02  0.47000000000E+01 0.  1.
         -5    1    3    3    0  502 -0.36876456372E+01  0.21312490691E+02  0.97648421957E+02  0.10012554769E+03  0.47000000000E+01 0.  1.
          5    1    3    3  503    0  0.17175568322E+02 -0.11422461659E+02  0.35674168541E+02  0.41475403296E+02  0.47000000000E+01 0. -1.
         -5    1    3    3    0  503 -0.18029111434E+02  0.10317908128E+02  0.37299991921E+02  0.42952153433E+02  0.47000000000E+01 0.  1.
<mgrwt>
<rscale>  0 0.91695301E+02</rscale>
<asrwt>0</asrwt>
<pdfrwt beam="1">  1        1 0.36616680E-01 0.91695301E+02</pdfrwt>
<pdfrwt beam="2">  1       -1 0.13587154E-02 0.91695301E+02</pdfrwt>
<totfact> 0.12064573E+05</totfact>
</mgrwt>
</event>
<event>
 7    1  0.1028619E-012  0.1015645E+03  0.7546771E-02  0.1277040E+00
         -2   -1    0    0    0  501 -0.00000000000E+00  0.00000000000E+00  0.45535893063E+01  0.45535893063E+01  0.00000000000E+00 0.  1.
          2   -1    0    0  501    0  0.00000000000E+00 -0.00000000000E+00 -0.56633026252E+03  0.56633026252E+03  0.00000000000E+00 0. -1.
         23    2    1    2    0    0  0.35527136788E-14  0.35527136788E-14 -0.56177667322E+03  0.57088385183E+03  0.10156447070E+03 0.  0.
          5    1    3    3  502    0 -0.25473984651E+02 -0.21470592305E+01 -0.85452336925E+02  0.89318114867E+02  0.47000000000E+01 0. -1.
         -5    1    3    3    0  503  0.20162306349E+02 -0.15899417212E+00 -0.16993521788E+03  0.17119174090E+03  0.47000000000E+01 0.  1.
          5    1    3    3  503    0 -0.14039796170E+02  0.16676765965E+02 -0.19721857513E+03  0.19847540597E+03  0.47000000000E+01 0. -1.
         -5    1    3    3    0  502  0.19351474473E+02 -0.14370712562E+02 -0.10917054328E+03  0.11189859009E+03  0.47000000000E+01 0.  1.
<mgrwt>
<rscale>  0 0.10156447E+03</rscale>
<asrwt>0</asrwt>
<pdfrwt beam="1">  1        2 0.87127725E-01 0.10156447E+03</pdfrwt>
<pdfrwt beam="2">  1       -2 0.70055226E-03 0.10156447E+03</pdfrwt>
<totfact> 0.16818774E+05</totfact>
</mgrwt>
</event>
<event>
 7    1  0.1028619E-012  0.9163355E+02  0.7546771E-02  0.1298943E+00
          1   -1    0    0  501    0  0.00000000000E+00  0.00000000000E+00  0.27643949954E+02  0.27643949954E+02  0.00000000000E+00 0. -1.
         -1   -1    0    0    0  501 -0.00000000000E+00 -0.00000000000E+00 -0.75936214911E+02  0.75936214911E+02  0.00000000000E+00 0.  1.
         23    2    1    2    0    0  0.00000000000E+00 -0.17763568394E-14 -0.48292264957E+02  0.10358016487E+03  0.91633551164E+02 0.  0.
          5    1    3    3  502    0 -0.20019653408E+02  0.50610361961E+01 -0.39951161938E+01  0.21551138330E+02  0.47000000000E+01 0.  1.
         -5    1    3    3    0  502  0.96310350262E+01 -0.19515131170E+02 -0.19785807061E+02  0.29785320903E+02  0.47000000000E+01 0. -1.
          5    1    3    3  503    0 -0.12009915312E+02  0.18686259393E+02 -0.14262424632E+02  0.26812704307E+02  0.47000000000E+01 0. -1.
         -5    1    3    3    0  503  0.22398533693E+02 -0.42321644183E+01 -0.10248917071E+02  0.25431001325E+02  0.47000000000E+01 0.  1.
<mgrwt>
<rscale>  0 0.91633551E+02</rscale>
<asrwt>0</asrwt>
<pdfrwt beam="1">  1        1 0.42529155E-02 0.91633551E+02</pdfrwt>
<pdfrwt beam="2">  1       -1 0.11682494E-01 0.91633551E+02</pdfrwt>
<totfact> 0.84308397E+04</totfact>
</mgrwt>
</event>
<event>
 7    1  0.1028619E-012  0.1019731E+03  0.7546771E-02  0.1276201E+00
          3   -1    0    0  501    0  0.00000000000E+00  0.00000000000E+00  0.22487633810E+02  0.22487633810E+02  0.00000000000E+00 0. -1.
         -3   -1    0    0    0  501 -0.00000000000E+00 -0.00000000000E+00 -0.11560255360E+03  0.11560255360E+03  0.00000000000E+00 0.  1.
         23    2    1    2    0    0 -0.17763568394E-14  0.00000000000E+00 -0.93114919792E+02  0.13809018741E+03  0.10197309239E+03 0.  0.
          5    1    3    3  502    0 -0.73213334708E+01 -0.27187668011E+02 -0.21702544370E+02  0.35858913087E+02  0.47000000000E+01 0. -1.
         -5    1    3    3    0  503  0.12639613285E+02  0.22616014626E+02 -0.29893321834E+02  0.39836473637E+02  0.47000000000E+01 0.  1.
          5    1    3    3  503    0 -0.24318648748E+02 -0.41143776594E+01 -0.20911919540E+02  0.32676033408E+02  0.47000000000E+01 0.  1.
         -5    1    3    3    0  502  0.19000368933E+02  0.86860310443E+01 -0.20607134048E+02  0.29718767279E+02  0.47000000000E+01 0. -1.
<mgrwt>
<rscale>  0 0.10197309E+03</rscale>
<asrwt>0</asrwt>
<pdfrwt beam="1">  1        3 0.34596360E-02 0.10197309E+03</pdfrwt>
<pdfrwt beam="2">  1       -3 0.17785008E-01 0.10197309E+03</pdfrwt>
<totfact> 0.23609853E+04</totfact>
</mgrwt>
</event>
<event>
 7    1  0.1028619E-012  0.9225116E+02  0.7546771E-02  0.1297490E+00
         -1   -1    0    0    0  501 -0.00000000000E+00  0.00000000000E+00  0.15966522492E+02  0.15966522492E+02  0.00000000000E+00 0.  1.
          1   -1    0    0  501    0  0.00000000000E+00 -0.00000000000E+00 -0.13325186791E+03  0.13325186791E+03  0.00000000000E+00 0. -1.
         23    2    1    2    0    0  0.00000000000E+00  0.00000000000E+00 -0.11728534542E+03  0.14921839040E+03  0.92251156005E+02 0.  0.
          5    1    3    3  502    0  0.14012655540E+02 -0.15105275793E+02 -0.29434705657E+02  0.36235559457E+02  0.47000000000E+01 0. -1.
         -5    1    3    3    0  503  0.15258146777E+02  0.15733954134E+02 -0.25887939254E+02  0.34243886383E+02  0.47000000000E+01 0.  1.
          5    1    3    3  503    0 -0.14417291459E+02 -0.19121048653E+02 -0.31104423158E+02  0.39535401030E+02  0.47000000000E+01 0. -1.
         -5    1    3    3    0  502 -0.14853510857E+02  0.18492370312E+02 -0.30858277348E+02  0.39203543532E+02  0.47000000000E+01 0.  1.
<mgrwt>
<rscale>  0 0.92251156E+02</rscale>
<asrwt>0</asrwt>
<pdfrwt beam="1">  1        1 0.20500287E-01 0.92251156E+02</pdfrwt>
<pdfrwt beam="2">  1       -1 0.24563881E-02 0.92251156E+02</pdfrwt>
<totfact> 0.10632129E+05</totfact>
</mgrwt>
</event>
<event>
 7    1  0.1028619E-012  0.9163151E+02  0.7546771E-02  0.1298948E+00
         -2   -1    0    0    0  501 -0.00000000000E+00  0.00000000000E+00  0.17105307767E+02  0.17105307767E+02  0.00000000000E+00 0.  1.
          2   -1    0    0  501    0  0.00000000000E+00 -0.00000000000E+00 -0.12271532530E+03  0.12271532530E+03  0.00000000000E+00 0. -1.
         23    2    1    2    0    0 -0.35527136788E-14 -0.17763568394E-14 -0.10561001753E+03  0.13982063307E+03  0.91631510016E+02 0.  0.
          5    1    3    3  502    0  0.21483175299E+02  0.89397576666E+01 -0.22858356839E+02  0.32955129577E+02  0.47000000000E+01 0.  1.
         -5    1    3    3    0  502 -0.17353389232E+02 -0.11685390230E+02 -0.16330869813E+02  0.26953214493E+02  0.47000000000E+01 0.  1.
          5    1    3    3  503    0  0.97988661199E+01  0.18742875327E+02 -0.24567917772E+02  0.32756460988E+02  0.47000000000E+01 0. -1.
         -5    1    3    3    0  503 -0.13928652186E+02 -0.15997242764E+02 -0.41852873108E+02  0.47155828008E+02  0.47000000000E+01 0. -1.
<mgrwt>
<rscale>  0 0.91631510E+02</rscale>
<asrwt>0</asrwt>
<pdfrwt beam="1">  1        2 0.18879282E-01 0.91631510E+02</pdfrwt>
<pdfrwt beam="2">  1       -2 0.26315857E-02 0.91631510E+02</pdfrwt>
<totfact> 0.12903406E+05</totfact>
</mgrwt>
</event>
<event>
 7    1  0.1028619E-012  0.9855338E+02  0.7546771E-02  0.1283368E+00
         -3   -1    0    0    0  501 -0.00000000000E+00  0.00000000000E+00  0.13517356001E+02  0.13517356001E+02  0.00000000000E+00 0.  1.
          3   -1    0    0  501    0  0.00000000000E+00 -0.00000000000E+00 -0.17963515689E+03  0.17963515689E+03  0.00000000000E+00 0. -1.
         23    2    1    2    0    0  0.00000000000E+00  0.00000000000E+00 -0.16611780089E+03  0.19315251289E+03  0.98553383829E+02 0.  0.
          5    1    3    3  502    0 -0.16156101781E+02  0.13444276609E+02 -0.44113219478E+02  0.49090063465E+02  0.47000000000E+01 0.  1.
         -5    1    3    3    0  503  0.10914819010E+01 -0.20511475058E+02 -0.39698480178E+02  0.44944090493E+02  0.47000000000E+01 0. -1.
          5    1    3    3  503    0 -0.92402599850E+01  0.20493772070E+02 -0.56224077344E+02  0.60733960611E+02  0.47000000000E+01 0. -1.
         -5    1    3    3    0  502  0.24304879865E+02 -0.13426573621E+02 -0.26082023887E+02  0.38384398321E+02  0.47000000000E+01 0.  1.
<mgrwt>
<rscale>  0 0.98553384E+02</rscale>
<asrwt>0</asrwt>
<pdfrwt beam="1">  1        3 0.27636177E-01 0.98553384E+02</pdfrwt>
<pdfrwt beam="2">  1       -3 0.20795933E-02 0.98553384E+02</pdfrwt>
<totfact> 0.23363033E+04</totfact>
</mgrwt>
</event>
<event>
 7    1  0.1028619E-012  0.9317699E+02  0.7546771E-02  0.1295336E+00
         -4   -1    0    0    0  501 -0.00000000000E+00  0.00000000000E+00  0.14318773048E+03  0.14318773048E+03  0.00000000000E+00 0.  1.
          4   -1    0    0  501    0  0.00000000000E+00 -0.00000000000E+00 -0.15158337443E+02  0.15158337443E+02  0.00000000000E+00 0. -1.
         23    2    1    2    0    0  0.00000000000E+00  0.00000000000E+00  0.12802939304E+03  0.15834606793E+03  0.93176991503E+02 0.  0.
          5    1    3    3  502    0  0.12771424028E+02  0.21354077129E+02  0.44000953766E+02  0.50766916531E+02  0.47000000000E+01 0. -1.
         -5    1    3    3    0  502 -0.12495681109E+02 -0.19702090319E+02  0.22552841307E+02  0.32787727282E+02  0.47000000000E+01 0.  1.
          5    1    3    3  503    0  0.20108024828E+02 -0.47264337384E+01  0.34968540526E+02  0.40884724101E+02  0.47000000000E+01 0. -1.
         -5    1    3    3    0  503 -0.20383767747E+02  0.30744469285E+01  0.26507057440E+02  0.33906700011E+02  0.47000000000E+01 0.  1.
<mgrwt>
<rscale>  0 0.93176992E+02</rscale>
<asrwt>0</asrwt>
<pdfrwt beam="1">  1        4 0.23320520E-02 0.93176992E+02</pdfrwt>
<pdfrwt beam="2">  1       -4 0.22028881E-01 0.93176992E+02</pdfrwt>
<totfact> 0.21938705E+04</totfact>
</mgrwt>
</event>
<event>
 7    1  0.1028619E-012  0.9203956E+02  0.7546771E-02  0.1297986E+00
         -2   -1    0    0    0  501 -0.00000000000E+00  0.00000000000E+00  0.42793549206E+02  0.42793549206E+02  0.00000000000E+00 0.  1.
          2   -1    0    0  501    0  0.00000000000E+00 -0.00000000000E+00 -0.49489239682E+02  0.49489239682E+02  0.00000000000E+00 0. -1.
         23    2    1    2    0    0 -0.17763568394E-14  0.00000000000E+00 -0.66956904757E+01  0.92282788889E+02  0.92039561353E+02 0.  0.
          5    1    3    3  502    0 -0.86632234226E+01  0.18198604157E+02  0.34379391006E+01  0.20979753539E+02  0.47000000000E+01 0. -1.
         -5    1    3    3    0  503  0.23207609549E+02  0.35883410446E+01 -0.91895120412E+00  0.23966722841E+02  0.47000000000E+01 0.  1.
          5    1    3    3  503    0 -0.20585652895E+02 -0.26643432282E-03  0.28090524049E+01  0.21301405601E+02  0.47000000000E+01 0. -1.
         -5    1    3    3    0  502  0.60412667681E+01 -0.21786678767E+02 -0.12023730777E+02  0.26034906907E+02  0.47000000000E+01 0.  1.
<mgrwt>
<rscale>  0 0.92039561E+02</rscale>
<asrwt>0</asrwt>
<pdfrwt beam="1">  1        2 0.76137292E-02 0.92039561E+02</pdfrwt>
<pdfrwt beam="2">  1       -2 0.65836230E-02 0.92039561E+02</pdfrwt>
<totfact> 0.98127743E+04</totfact>
</mgrwt>
</event>
<event>
 7    1  0.1028619E-012  0.1023327E+03  0.7546771E-02  0.1275466E+00
         -3   -1    0    0    0  501 -0.00000000000E+00  0.00000000000E+00  0.22074187521E+02  0.22074187521E+02  0.00000000000E+00 0.  1.
          3   -1    0    0  501    0  0.00000000000E+00 -0.00000000000E+00 -0.11859994282E+03  0.11859994282E+03  0.00000000000E+00 0. -1.
         23    2    1    2    0    0  0.00000000000E+00 -0.88817841970E-15 -0.96525755302E+02  0.14067413034E+03  0.10233273920E+03 0.  0.
          5    1    3    3  502    0 -0.14890512563E+02  0.16928248699E+02 -0.19535870236E+02  0.30199887323E+02  0.47000000000E+01 0.  1.
         -5    1    3    3    0  502  0.16925885831E+02 -0.16480172431E+02 -0.19060593435E+02  0.30716085633E+02  0.47000000000E+01 0. -1.
          5    1    3    3  503    0  0.23380229225E+02 -0.56684942055E+01 -0.42894933247E+02  0.49404779561E+02  0.47000000000E+01 0. -1.
         -5    1    3    3    0  503 -0.25415602493E+02  0.52204179372E+01 -0.15034358385E+02  0.30353377828E+02  0.47000000000E+01 0.  1.
<mgrwt>
<rscale>  0 0.10233274E+03</rscale>
<asrwt>0</asrwt>
<pdfrwt beam="1">  1        3 0.18246145E-01 0.10233274E+03</pdfrwt>
<pdfrwt beam="2">  1       -3 0.33960289E-02 0.10233274E+03</pdfrwt>
<totfact> 0.23263819E+04</totfact>
</mgrwt>
</event>
<event>
 7    1  0.1028619E-012  0.1014770E+03  0.7546771E-02  0.1277220E+00
          4   -1    0    0  501    0  0.00000000000E+00  0.00000000000E+00  0.40641982939E+02  0.40641982939E+02  0.00000000000E+00 0. -1.
         -4   -1    0    0    0  501 -0.00000000000E+00 -0.00000000000E+00 -0.63343221472E+02  0.63343221472E+02  0.00000000000E+00 0.  1.
         23    2    1    2    0    0  0.00000000000E+00  0.00000000000E+00 -0.22701238533E+02  0.10398520441E+03  0.10147697525E+03 0.  0.
          5    1    3    3  502    0  0.13745966216E+02 -0.22519432022E+02 -0.72875550630E+01  0.27771835817E+02  0.47000000000E+01 0. -1.
         -5    1    3    3    0  503 -0.86920802051E+00  0.25679194856E+02  0.20803695812E+01  0.26202948473E+02  0.47000000000E+01 0.  1.
          5    1    3    3  503    0 -0.45586241981E+01 -0.22868151749E+02 -0.14619526220E+02  0.27920493654E+02  0.47000000000E+01 0.  1.
         -5    1    3    3    0  502 -0.83181339975E+01  0.19708388915E+02 -0.28745268315E+01  0.22089926467E+02  0.47000000000E+01 0. -1.
<mgrwt>
<rscale>  0 0.10147698E+03</rscale>
<asrwt>0</asrwt>
<pdfrwt beam="1">  1        4 0.62526127E-02 0.10147698E+03</pdfrwt>
<pdfrwt beam="2">  1       -4 0.97451110E-02 0.10147698E+03</pdfrwt>
<totfact> 0.19567735E+04</totfact>
</mgrwt>
</event>
<event>
 7    1  0.1028619E-012  0.9164588E+02  0.7546771E-02  0.1298914E+00
         -2   -1    0    0    0  501 -0.00000000000E+00  0.00000000000E+00  0.39396311605E+01  0.39396311605E+01  0.00000000000E+00 0.  1.
          2   -1    0    0  501    0  0.00000000000E+00 -0.00000000000E+00 -0.53297933668E+03  0.53297933668E+03  0.00000000000E+00 0. -1.
         23    2    1    2    0    0  0.00000000000E+00  0.00000000000E+00 -0.52903970552E+03  0.53691896785E+03  0.91645883764E+02 0.  0.
          5    1    3    3  502    0  0.19711740290E+02 -0.11542435275E+02 -0.97643681869E+02  0.10039003499E+03  0.47000000000E+01 0. -1.
         -5    1    3    3    0  503 -0.18350076200E+02  0.11173443261E+02 -0.15661904170E+03  0.15815557326E+03  0.47000000000E+01 0.  1.
          5    1    3    3  503    0  0.18512696551E+02  0.79885841813E+01 -0.17637923742E+03  0.17759015402E+03  0.47000000000E+01 0.  1.
         -5    1    3    3    0  502 -0.19874360641E+02 -0.76195921668E+01 -0.98397744536E+02  0.10078320557E+03  0.47000000000E+01 0.  1.
<mgrwt>
<rscale>  0 0.91645884E+02</rscale>
<asrwt>0</asrwt>
<pdfrwt beam="1">  1        2 0.81996769E-01 0.91645884E+02</pdfrwt>
<pdfrwt beam="2">  1       -2 0.60609749E-03 0.91645884E+02</pdfrwt>
<totfact> 0.21696140E+05</totfact>
</mgrwt>
</event>
<event>
 7    1  0.1028619E-012  0.9157967E+02  0.7546771E-02  0.1299071E+00
          1   -1    0    0  501    0  0.00000000000E+00  0.00000000000E+00  0.28810906178E+03  0.28810906178E+03  0.00000000000E+00 0. -1.
         -1   -1    0    0    0  501 -0.00000000000E+00 -0.00000000000E+00 -0.72774835894E+01  0.72774835894E+01  0.00000000000E+00 0.  1.
         23    2    1    2    0    0  0.00000000000E+00  0.17763568394E-14  0.28083157819E+03  0.29538654537E+03  0.91579669557E+02 0.  0.
          5    1    3    3  502    0  0.14076957971E+02  0.15309274581E+02  0.83115515290E+02  0.85806838398E+02  0.47000000000E+01 0.  1.
         -5    1    3    3    0  503 -0.15406553675E+02 -0.17852086242E+02  0.75029753230E+02  0.78788404915E+02  0.47000000000E+01 0.  1.
          5    1    3    3  503    0  0.22719988932E+02  0.26109274078E+01  0.67121318724E+02  0.71065999369E+02  0.47000000000E+01 0. -1.
         -5    1    3    3    0  502 -0.21390393228E+02 -0.68115746884E-01  0.55564990943E+02  0.59725302684E+02  0.47000000000E+01 0. -1.
<mgrwt>
<rscale>  0 0.91579670E+02</rscale>
<asrwt>0</asrwt>
<pdfrwt beam="1">  1        1 0.44324462E-01 0.91579670E+02</pdfrwt>
<pdfrwt beam="2">  1       -1 0.11196131E-02 0.91579670E+02</pdfrwt>
<totfact> 0.12564582E+05</totfact>
</mgrwt>
</event>
<event>
 7    1  0.1028619E-012  0.9185046E+02  0.7546771E-02  0.1298431E+00
          2   -1    0    0  501    0  0.00000000000E+00  0.00000000000E+00  0.34706012255E+03  0.34706012255E+03  0.00000000000E+00 0. -1.
         -2   -1    0    0    0  501 -0.00000000000E+00 -0.00000000000E+00 -0.60771214715E+01  0.60771214715E+01  0.00000000000E+00 0.  1.
         23    2    1    2    0    0  0.00000000000E+00 -0.17763568394E-14  0.34098300108E+03  0.35313724402E+03  0.91850455037E+02 0.  0.
          5    1    3    3  502    0  0.19643348021E+02  0.13791149801E+02  0.88098155503E+02  0.91429929111E+02  0.47000000000E+01 0. -1.
         -5    1    3    3    0  502 -0.40787614314E+01 -0.20284016423E+02  0.61445782349E+02  0.65005782708E+02  0.47000000000E+01 0.  1.
          5    1    3    3  503    0 -0.27235153467E+01  0.23006274631E+02  0.93331847756E+02  0.96278917805E+02  0.47000000000E+01 0.  1.
         -5    1    3    3    0  503 -0.12841071243E+02 -0.16513408009E+02  0.98107215469E+02  0.10042261439E+03  0.47000000000E+01 0. -1.
<mgrwt>
<rscale>  0 0.91850455E+02</rscale>
<asrwt>0</asrwt>
<pdfrwt beam="1">  1        2 0.53393849E-01 0.91850455E+02</pdfrwt>
<pdfrwt beam="2">  1       -2 0.93494204E-03 0.91850455E+02</pdfrwt>
<totfact> 0.18592885E+05</totfact>
</mgrwt>
</event>
<event>
 7    1  0.1028619E-012  0.9087635E+02  0.7546771E-02  0.1300743E+00
          3   -1    0    0  501    0  0.00000000000E+00  0.00000000000E+00  0.10065852808E+02  0.10065852808E+02  0.00000000000E+00 0. -1.
         -3   -1    0    0    0  501 -0.00000000000E+00 -0.00000000000E+00 -0.20511205565E+03  0.20511205565E+03  0.00000000000E+00 0.  1.
         23    2    1    2    0    0  0.17763568394E-14 -0.35527136788E-14 -0.19504620284E+03  0.21517790846E+03  0.90876350306E+02 0.  0.
          5    1    3    3  502    0 -0.14666956131E+02 -0.15255371433E+02 -0.40941029526E+02  0.46326060251E+02  0.47000000000E+01 0. -1.
         -5    1    3    3    0  502  0.52798787189E+01  0.23241314859E+02 -0.57244194971E+02  0.62185397752E+02  0.47000000000E+01 0.  1.
          5    1    3    3  503    0  0.19309533982E+02  0.10114333743E+02 -0.37326415923E+02  0.43479985917E+02  0.47000000000E+01 0. -1.
         -5    1    3    3    0  503 -0.99224565696E+01 -0.18100277169E+02 -0.59534562424E+02  0.63186464539E+02  0.47000000000E+01 0. -1.
<mgrwt>
<rscale>  0 0.90876350E+02</rscale>
<asrwt>0</asrwt>
<pdfrwt beam="1">  1        3 0.15485928E-02 0.90876350E+02</pdfrwt>
<pdfrwt beam="2">  1       -3 0.31555700E-01 0.90876350E+02</pdfrwt>
<totfact> 0.27978114E+04</totfact>
</mgrwt>
</event>
<event>
 7    1  0.1028619E-012  0.9284227E+02  0.7546771E-02  0.1296111E+00
          1   -1    0    0  501    0  0.00000000000E+00  0.00000000000E+00  0.51902686367E+02  0.51902686367E+02  0.00000000000E+00 0. -1.
         -1   -1    0    0    0  501 -0.00000000000E+00 -0.00000000000E+00 -0.41518497376E+02  0.41518497376E+02  0.00000000000E+00 0.  1.
         23    2    1    2    0    0  0.00000000000E+00  0.00000000000E+00  0.10384188991E+02  0.93421183743E+02  0.92842265111E+02 0.  0.
          5    1    3    3  502    0 -0.19630112924E+02  0.40195930228E+01  0.23280096249E+01  0.20712510478E+02  0.47000000000E+01 0.  1.
         -5    1    3    3    0  503  0.19922504043E+02 -0.52392228026E+01 -0.39512043849E+01  0.21495526023E+02  0.47000000000E+01 0. -1.
          5    1    3    3  503    0 -0.14142033618E+02  0.20404898907E+02  0.93544560077E+01  0.26943512419E+02  0.47000000000E+01 0. -1.
         -5    1    3    3    0  502  0.13849642500E+02 -0.19185269127E+02  0.26529277433E+01  0.24269634824E+02  0.47000000000E+01 0.  1.
<mgrwt>
<rscale>  0 0.92842265E+02</rscale>
<asrwt>0</asrwt>
<pdfrwt beam="1">  1        1 0.79850287E-02 0.92842265E+02</pdfrwt>
<pdfrwt beam="2">  1       -1 0.63874611E-02 0.92842265E+02</pdfrwt>
<totfact> 0.89635493E+04</totfact>
</mgrwt>
</event>
<event>
 7    1  0.1028619E-012  0.9661586E+02  0.7546771E-02  0.1287578E+00
          2   -1    0    0  501    0  0.00000000000E+00  0.00000000000E+00  0.41837527793E+03  0.41837527793E+03  0.00000000000E+00 0. -1.
         -2   -1    0    0    0  501 -0.00000000000E+00 -0.00000000000E+00 -0.55779019783E+01  0.55779019783E+01  0.00000000000E+00 0.  1.
         23    2    1    2    0    0 -0.17763568394E-14  0.35527136788E-14  0.41279737595E+03  0.42395317991E+03  0.96615863924E+02 0.  0.
          5    1    3    3  502    0  0.20969166717E+02  0.12036462808E+01  0.67030823419E+02  0.70401534113E+02  0.47000000000E+01 0. -1.
         -5    1    3    3    0  502 -0.11478085988E+02 -0.17449059587E+02  0.14776385788E+03  0.14930661014E+03  0.47000000000E+01 0.  1.
          5    1    3    3  503    0  0.11473411039E+02  0.19690022046E+02  0.56890433344E+02  0.61465010657E+02  0.47000000000E+01 0.  1.
         -5    1    3    3    0  503 -0.20964491768E+02 -0.34446087401E+01  0.14111226131E+03  0.14278002499E+03  0.47000000000E+01 0. -1.
<mgrwt>
<rscale>  0 0.96615864E+02</rscale>
<asrwt>0</asrwt>
<pdfrwt beam="1">  1        2 0.64365402E-01 0.96615864E+02</pdfrwt>
<pdfrwt beam="2">  1       -2 0.85813910E-03 0.96615864E+02</pdfrwt>
<totfact> 0.17383856E+05</totfact>
</mgrwt>
</event>
<event>
 7    1  0.1028619E-012  0.9333739E+02  0.7546771E-02  0.1294965E+00
          1   -1    0    0  501    0  0.00000000000E+00  0.00000000000E+00  0.37657996510E+03  0.37657996510E+03  0.00000000000E+00 0. -1.
         -1   -1    0    0    0  501 -0.00000000000E+00 -0.00000000000E+00 -0.57835451124E+01  0.57835451124E+01  0.00000000000E+00 0.  1.
         23    2    1    2    0    0 -0.44408920985E-15  0.00000000000E+00  0.37079641999E+03  0.38236351021E+03  0.93337392648E+02 0.  0.
          5    1    3    3  502    0 -0.31715353635E+01  0.22959685001E+02  0.54475226513E+02  0.59387255161E+02  0.47000000000E+01 0. -1.
         -5    1    3    3    0  503 -0.19379027901E+02  0.55955067979E+01  0.12017075598E+03  0.12194243318E+03  0.47000000000E+01 0.  1.
          5    1    3    3  503    0  0.19901437814E+02 -0.66831404405E+01  0.95842422666E+02  0.98227244569E+02  0.47000000000E+01 0. -1.
         -5    1    3    3    0  502  0.26491254503E+01 -0.21872051359E+02  0.10030801483E+03  0.10280657730E+03  0.47000000000E+01 0.  1.
<mgrwt>
<rscale>  0 0.93337393E+02</rscale>
<asrwt>0</asrwt>
<pdfrwt beam="1">  1        1 0.57935360E-01 0.93337393E+02</pdfrwt>
<pdfrwt beam="2">  1       -1 0.88977646E-03 0.93337393E+02</pdfrwt>
<totfact> 0.12546196E+05</totfact>
</mgrwt>
</event>
<event>
 7    1  0.1028619E-012  0.9305224E+02  0.7546771E-02  0.1295624E+00
         -1   -1    0    0    0  501 -0.00000000000E+00  0.00000000000E+00  0.13161907255E+02  0.13161907255E+02  0.00000000000E+00 0.  1.
          1   -1    0    0  501    0  0.00000000000E+00 -0.00000000000E+00 -0.16446551494E+03  0.16446551494E+03  0.00000000000E+00 0. -1.
         23    2    1    2    0    0  0.00000000000E+00  0.00000000000E+00 -0.15130360768E+03  0.17762742219E+03  0.93052240257E+02 0.  0.
          5    1    3    3  502    0  0.86463704694E+01 -0.20652575805E+02 -0.53106965526E+02  0.57824980736E+02  0.47000000000E+01 0.  1.
         -5    1    3    3    0  502  0.19247252981E+02  0.66429693390E+01 -0.25529917640E+02  0.32991703255E+02  0.47000000000E+01 0.  1.
          5    1    3    3  503    0 -0.19734101848E+02 -0.49277192701E+01 -0.56368838523E+02  0.60110341451E+02  0.47000000000E+01 0. -1.
         -5    1    3    3    0  503 -0.81595216024E+01  0.18937325736E+02 -0.16297885993E+02  0.26700396751E+02  0.47000000000E+01 0. -1.
<mgrwt>
<rscale>  0 0.93052240E+02</rscale>
<asrwt>0</asrwt>
<pdfrwt beam="1">  1        1 0.25302389E-01 0.93052240E+02</pdfrwt>
<pdfrwt beam="2">  1       -1 0.20249087E-02 0.93052240E+02</pdfrwt>
<totfact> 0.10796908E+05</totfact>
</mgrwt>
</event>
<event>
 7    1  0.1028619E-012  0.9820217E+02  0.7546771E-02  0.1284123E+00
         -2   -1    0    0    0  501 -0.00000000000E+00  0.00000000000E+00  0.44103840921E+02  0.44103840921E+02  0.00000000000E+00 0.  1.
          2   -1    0    0  501    0  0.00000000000E+00 -0.00000000000E+00 -0.54664549876E+02  0.54664549876E+02  0.00000000000E+00 0. -1.
         23    2    1    2    0    0  0.00000000000E+00 -0.44408920985E-15 -0.10560708956E+02  0.98768390797E+02  0.98202171295E+02 0.  0.
          5    1    3    3  502    0 -0.23037874069E+02 -0.37663533204E+01 -0.91037647502E+01  0.25493089094E+02  0.47000000000E+01 0. -1.
         -5    1    3    3    0  502  0.25698608110E+02  0.36465218045E+01  0.35278338214E+01  0.26612989151E+02  0.47000000000E+01 0.  1.
          5    1    3    3  503    0  0.20084851191E+02 -0.72956746342E+01 -0.58573160623E+00  0.21887466671E+02  0.47000000000E+01 0.  1.
         -5    1    3    3    0  503 -0.22745585233E+02  0.74155061502E+01 -0.43990464205E+01  0.24774845881E+02  0.47000000000E+01 0.  1.
<mgrwt>
<rscale>  0 0.98202171E+02</rscale>
<asrwt>0</asrwt>
<pdfrwt beam="1">  1        2 0.84099308E-02 0.98202171E+02</pdfrwt>
<pdfrwt beam="2">  1       -2 0.67852063E-02 0.98202171E+02</pdfrwt>
<totfact> 0.83689756E+04</totfact>
</mgrwt>
</event>
<event>
 7    1  0.1028619E-012  0.9630106E+02  0.7546771E-02  0.1288272E+00
          2   -1    0    0  501    0  0.00000000000E+00  0.00000000000E+00  0.45058403307E+02  0.45058403307E+02  0.00000000000E+00 0. -1.
         -2   -1    0    0    0  501 -0.00000000000E+00 -0.00000000000E+00 -0.51454850076E+02  0.51454850076E+02  0.00000000000E+00 0.  1.
         23    2    1    2    0    0  0.00000000000E+00  0.00000000000E+00 -0.63964467682E+01  0.96513253383E+02  0.96301056834E+02 0.  0.
          5    1    3    3  502    0 -0.37659446545E+01 -0.20004063638E+02 -0.71593446834E+01  0.22083729701E+02  0.47000000000E+01 0.  1.
         -5    1    3    3    0  502  0.22317838394E+02 -0.91830921387E+01 -0.89042297642E+01  0.26149386216E+02  0.47000000000E+01 0. -1.
          5    1    3    3  503    0 -0.22568614984E+02  0.83285781509E+01  0.93682298961E-01  0.24511351914E+02  0.47000000000E+01 0. -1.
         -5    1    3    3    0  503  0.40167212444E+01  0.20858577626E+02  0.95734453804E+01  0.23768785552E+02  0.47000000000E+01 0.  1.
<mgrwt>
<rscale>  0 0.96301057E+02</rscale>
<asrwt>0</asrwt>
<pdfrwt beam="1">  1        2 0.69320621E-02 0.96301057E+02</pdfrwt>
<pdfrwt beam="2">  1       -2 0.79161307E-02 0.96301057E+02</pdfrwt>
<totfact> 0.83992763E+04</totfact>
</mgrwt>
</event>
<event>
 7    1  0.1028619E-012  0.9360898E+02  0.7546771E-02  0.1294340E+00
         -1   -1    0    0    0  501 -0.00000000000E+00  0.00000000000E+00  0.87693046023E+01  0.87693046023E+01  0.00000000000E+00 0.  1.
          1   -1    0    0  501    0  0.00000000000E+00 -0.00000000000E+00 -0.24981004490E+03  0.24981004490E+03  0.00000000000E+00 0. -1.
         23    2    1    2    0    0  0.17763568394E-14 -0.17763568394E-14 -0.24104074030E+03  0.25857934950E+03  0.93608981971E+02 0.  0.
          5    1    3    3  502    0  0.10457654015E+02 -0.20608478355E+02 -0.75918451412E+02  0.79497001028E+02  0.47000000000E+01 0.  1.
         -5    1    3    3    0  503 -0.19310630580E+02  0.14871988758E+02 -0.53418348930E+02  0.58904044899E+02  0.47000000000E+01 0.  1.
          5    1    3    3  503    0  0.17551803766E+02 -0.12477460916E+02 -0.73259389176E+02  0.76503470175E+02  0.47000000000E+01 0. -1.
         -5    1    3    3    0  502 -0.86988272014E+01  0.18213950513E+02 -0.38444550779E+02  0.43674833401E+02  0.47000000000E+01 0. -1.
<mgrwt>
<rscale>  0 0.93608982E+02</rscale>
<asrwt>0</asrwt>
<pdfrwt beam="1">  1        1 0.38432313E-01 0.93608982E+02</pdfrwt>
<pdfrwt beam="2">  1       -1 0.13491238E-02 0.93608982E+02</pdfrwt>
<totfact> 0.11523748E+05</totfact>
</mgrwt>
</event>
<event>
 7    1  0.1028619E-012  0.1006798E+03  0.7546771E-02  0.1278873E+00
         -1   -1    0    0    0  501 -0.00000000000E+00  0.00000000000E+00  0.27896886337E+03  0.27896886337E+03  0.00000000000E+00 0.  1.
          1   -1    0    0  501    0  0.00000000000E+00 -0.00000000000E+00 -0.90838344467E+01  0.90838344467E+01  0.00000000000E+00 0. -1.
         23    2    1    2    0    0  0.00000000000E+00  0.00000000000E+00  0.26988502892E+03  0.28805269781E+03  0.10067982858E+03 0.  0.
          5    1    3    3  502    0 -0.12464112411E+02 -0.19032197299E+02  0.48080103658E+02  0.53398174126E+02  0.47000000000E+01 0. -1.
         -5    1    3    3    0  502  0.20117512518E+02  0.10026475306E+02  0.44757988144E+02  0.50305188795E+02  0.47000000000E+01 0.  1.
          5    1    3    3  503    0  0.13324902457E+02  0.20700598889E+02  0.65087460387E+02  0.69746220825E+02  0.47000000000E+01 0. -1.
         -5    1    3    3    0  503 -0.20978302564E+02 -0.11694876895E+02  0.11195947673E+03  0.11460311407E+03  0.47000000000E+01 0.  1.
<mgrwt>
<rscale>  0 0.10067983E+03</rscale>
<asrwt>0</asrwt>
<pdfrwt beam="1">  1        1 0.13975132E-02 0.10067983E+03</pdfrwt>
<pdfrwt beam="2">  1       -1 0.42918280E-01 0.10067983E+03</pdfrwt>
<totfact> 0.48027377E+04</totfact>
</mgrwt>
</event>
<event>
 7    1  0.1028619E-012  0.1024292E+03  0.7546771E-02  0.1275269E+00
         -1   -1    0    0    0  501 -0.00000000000E+00  0.00000000000E+00  0.47612856275E+01  0.47612856275E+01  0.00000000000E+00 0.  1.
          1   -1    0    0  501    0  0.00000000000E+00 -0.00000000000E+00 -0.55088855558E+03  0.55088855558E+03  0.00000000000E+00 0. -1.
         23    2    1    2    0    0  0.00000000000E+00  0.00000000000E+00 -0.54612726996E+03  0.55564984121E+03  0.10242924899E+03 0.  0.
          5    1    3    3  502    0 -0.88465949616E+01 -0.22781850901E+02 -0.92332607136E+02  0.95627795715E+02  0.47000000000E+01 0.  1.
         -5    1    3    3    0  502 -0.89819548204E+01  0.27973094920E+02 -0.16878276233E+03  0.17138518143E+03  0.47000000000E+01 0.  1.
          5    1    3    3  503    0  0.14293117465E+02  0.16035504841E+02 -0.10466867972E+03  0.10695350923E+03  0.47000000000E+01 0. -1.
         -5    1    3    3    0  503  0.35354323174E+01 -0.21226748859E+02 -0.18034322076E+03  0.18168335483E+03  0.47000000000E+01 0. -1.
<mgrwt>
<rscale>  0 0.10242925E+03</rscale>
<asrwt>0</asrwt>
<pdfrwt beam="1">  1        1 0.84752125E-01 0.10242925E+03</pdfrwt>
<pdfrwt beam="2">  1       -1 0.73250514E-03 0.10242925E+03</pdfrwt>
<totfact> 0.10318502E+05</totfact>
</mgrwt>
</event>
<event>
 7    1  0.1028619E-012  0.9220001E+02  0.7546771E-02  0.1297610E+00
         -2   -1    0    0    0  501 -0.00000000000E+00  0.00000000000E+00  0.27933227739E+02  0.27933227739E+02  0.00000000000E+00 0. -1.
          2   -1    0    0  501    0  0.00000000000E+00 -0.00000000000E+00 -0.76081802654E+02  0.76081802654E+02  0.00000000000E+00 0.  1.
         23    2    1    2    0    0  0.00000000000E+00  0.35527136788E-14 -0.48148574915E+02  0.10401503039E+03  0.92200006947E+02 0.  0.
          5    1    3    3  502    0 -0.21940340214E+02  0.99378914702E+00 -0.35988040956E+01  0.22746593954E+02  0.47000000000E+01 0.  1.
         -5    1    3    3    0  503  0.21457356781E+02 -0.62060131228E+01 -0.18897816605E+02  0.29633599703E+02  0.47000000000E+01 0.  1.
          5    1    3    3  503    0 -0.17090352505E+02 -0.10438083454E+02 -0.91598450189E+01  0.22517248848E+02  0.47000000000E+01 0. -1.
         -5    1    3    3    0  502  0.17573335938E+02  0.15650307430E+02 -0.16492109195E+02  0.29117587887E+02  0.47000000000E+01 0. -1.
<mgrwt>
<rscale>  0 0.92200007E+02</rscale>
<asrwt>0</asrwt>
<pdfrwt beam="1">  1        2 0.11704892E-01 0.92200007E+02</pdfrwt>
<pdfrwt beam="2">  1       -2 0.42974198E-02 0.92200007E+02</pdfrwt>
<totfact> 0.10975560E+05</totfact>
</mgrwt>
</event>
<event>
 7    1  0.1028619E-012  0.9323328E+02  0.7546771E-02  0.1295205E+00
          1   -1    0    0  501    0  0.00000000000E+00  0.00000000000E+00  0.54104616348E+03  0.54104616348E+03  0.00000000000E+00 0. -1.
         -1   -1    0    0    0  501 -0.00000000000E+00 -0.00000000000E+00 -0.40164983388E+01  0.40164983388E+01  0.00000000000E+00 0.  1.
         23    2    1    2    0    0  0.00000000000E+00 -0.35527136788E-14  0.53702966514E+03  0.54506266181E+03  0.93233277681E+02 0.  0.
          5    1    3    3  502    0 -0.20504832802E+02  0.44240605085E+00  0.11501700161E+03  0.11692580789E+03  0.47000000000E+01 0. -1.
         -5    1    3    3    0  502  0.16683408684E+02  0.17784802760E+02  0.21821007091E+03  0.21961867038E+03  0.47000000000E+01 0. -1.
          5    1    3    3  503    0 -0.16568214298E+02 -0.14878020691E+02  0.97057716800E+02  0.99690278438E+02  0.47000000000E+01 0.  1.
         -5    1    3    3    0  503  0.20389638417E+02 -0.33491881199E+01  0.10674487582E+03  0.10882790511E+03  0.47000000000E+01 0.  1.
<mgrwt>
<rscale>  0 0.93233278E+02</rscale>
<asrwt>0</asrwt>
<pdfrwt beam="1">  1        1 0.83237813E-01 0.93233278E+02</pdfrwt>
<pdfrwt beam="2">  1       -1 0.61792325E-03 0.93233278E+02</pdfrwt>
<totfact> 0.13237941E+05</totfact>
</mgrwt>
</event>
<event>
 7    1  0.1028619E-012  0.9044633E+02  0.7546771E-02  0.1301774E+00
         -2   -1    0    0    0  501 -0.00000000000E+00  0.00000000000E+00  0.40746515477E+02  0.40746515477E+02  0.00000000000E+00 0.  1.
          2   -1    0    0  501    0  0.00000000000E+00 -0.00000000000E+00 -0.50191644095E+02  0.50191644095E+02  0.00000000000E+00 0. -1.
         23    2    1    2    0    0  0.13322676296E-14 -0.88817841970E-15 -0.94451286180E+01  0.90938159572E+02  0.90446328901E+02 0.  0.
          5    1    3    3  502    0 -0.39489716930E+01 -0.25671282878E+02 -0.95968142463E+00  0.26412499512E+02  0.47000000000E+01 0.  1.
         -5    1    3    3    0  502  0.11770294700E+01  0.20331585772E+02 -0.28162892037E+01  0.21089814206E+02  0.47000000000E+01 0.  1.
          5    1    3    3  503    0  0.21738455190E+02 -0.13240759292E+01 -0.46839465742E+01  0.22767146651E+02  0.47000000000E+01 0. -1.
         -5    1    3    3    0  503 -0.18966512967E+02  0.66637730352E+01 -0.98521141545E+00  0.20668699202E+02  0.47000000000E+01 0. -1.
<mgrwt>
<rscale>  0 0.90446329E+02</rscale>
<asrwt>0</asrwt>
<pdfrwt beam="1">  1        2 0.77217914E-02 0.90446329E+02</pdfrwt>
<pdfrwt beam="2">  1       -2 0.62686947E-02 0.90446329E+02</pdfrwt>
<totfact> 0.10352277E+05</totfact>
</mgrwt>
</event>
<event>
 7    1  0.1028619E-012  0.9160583E+02  0.7546771E-02  0.1299009E+00
         -3   -1    0    0    0  501 -0.00000000000E+00  0.00000000000E+00  0.46833865200E+02  0.46833865200E+02  0.00000000000E+00 0.  1.
          3   -1    0    0  501    0  0.00000000000E+00 -0.00000000000E+00 -0.44794654495E+02  0.44794654495E+02  0.00000000000E+00 0. -1.
         23    2    1    2    0    0 -0.88817841970E-15  0.00000000000E+00  0.20392107047E+01  0.91628519695E+02  0.91605825367E+02 0.  0.
          5    1    3    3  502    0  0.17902478454E+02  0.15538633114E+02 -0.10354725231E+02  0.26291789373E+02  0.47000000000E+01 0. -1.
         -5    1    3    3    0  502 -0.11627974318E+02 -0.16651004404E+02  0.73764413880E+01  0.22112612283E+02  0.47000000000E+01 0.  1.
          5    1    3    3  503    0 -0.25511096837E+01 -0.20108032827E+02  0.37008311385E+01  0.21133558524E+02  0.47000000000E+01 0. -1.
         -5    1    3    3    0  503 -0.37233944519E+01  0.21220404117E+02  0.13166634096E+01  0.22090559515E+02  0.47000000000E+01 0.  1.
<mgrwt>
<rscale>  0 0.91605825E+02</rscale>
<asrwt>0</asrwt>
<pdfrwt beam="1">  1        3 0.68914852E-02 0.91605825E+02</pdfrwt>
<pdfrwt beam="2">  1       -3 0.72052101E-02 0.91605825E+02</pdfrwt>
<totfact> 0.34854343E+04</totfact>
</mgrwt>
</event>
<event>
 7    1  0.1028619E-012  0.9289092E+02  0.7546771E-02  0.1295998E+00
          1   -1    0    0  501    0  0.00000000000E+00  0.00000000000E+00  0.22544265654E+02  0.22544265654E+02  0.00000000000E+00 0. -1.
         -1   -1    0    0    0  501 -0.00000000000E+00 -0.00000000000E+00 -0.95686448759E+02  0.95686448759E+02  0.00000000000E+00 0.  1.
         23    2    1    2    0    0  0.17763568394E-14  0.17763568394E-14 -0.73142183105E+02  0.11823071441E+03  0.92890919262E+02 0.  0.
          5    1    3    3  502    0 -0.15692905962E+02  0.15417577124E+02 -0.24759267524E+02  0.33452657745E+02  0.47000000000E+01 0.  1.
         -5    1    3    3    0  502  0.16731541574E+02 -0.20230400784E+02 -0.15063078711E+02  0.30630049618E+02  0.47000000000E+01 0. -1.
          5    1    3    3  503    0 -0.21091145625E+02  0.45212995364E+01 -0.17762459131E+02  0.28335022987E+02  0.47000000000E+01 0. -1.
         -5    1    3    3    0  503  0.20052510013E+02  0.29152412359E+00 -0.15557377739E+02  0.25812984063E+02  0.47000000000E+01 0.  1.
<mgrwt>
<rscale>  0 0.92890919E+02</rscale>
<asrwt>0</asrwt>
<pdfrwt beam="1">  1        1 0.34683485E-02 0.92890919E+02</pdfrwt>
<pdfrwt beam="2">  1       -1 0.14720992E-01 0.92890919E+02</pdfrwt>
<totfact> 0.78191346E+04</totfact>
</mgrwt>
</event>
<event>
 7    1  0.1028619E-012  0.9200515E+02  0.7546771E-02  0.1298067E+00
          4   -1    0    0  501    0  0.00000000000E+00  0.00000000000E+00  0.50152364647E+02  0.50152364647E+02  0.00000000000E+00 0. -1.
         -4   -1    0    0    0  501 -0.00000000000E+00 -0.00000000000E+00 -0.42196154624E+02  0.42196154624E+02  0.00000000000E+00 0.  1.
         23    2    1    2    0    0  0.17763568394E-14  0.00000000000E+00  0.79562100227E+01  0.92348519271E+02  0.92005150582E+02 0.  0.
          5    1    3    3  502    0 -0.97215974968E+01 -0.25338427805E+02  0.23734642051E+01  0.27645410358E+02  0.47000000000E+01 0. -1.
         -5    1    3    3    0  502  0.10813420647E+02  0.19312249080E+02  0.13291995068E+01  0.22666049545E+02  0.47000000000E+01 0. -1.
          5    1    3    3  503    0 -0.20084461728E+02 -0.13154545627E+01 -0.20109679762E+00  0.20669941063E+02  0.47000000000E+01 0.  1.
         -5    1    3    3    0  503  0.18992638579E+02  0.73416332869E+01  0.44546431085E+01  0.21367118306E+02  0.47000000000E+01 0.  1.
<mgrwt>
<rscale>  0 0.92005151E+02</rscale>
<asrwt>0</asrwt>
<pdfrwt beam="1">  1        4 0.77157484E-02 0.92005151E+02</pdfrwt>
<pdfrwt beam="2">  1       -4 0.64917161E-02 0.92005151E+02</pdfrwt>
<totfact> 0.26286098E+04</totfact>
</mgrwt>
</event>
<event>
 7    1  0.1028619E-012  0.9029920E+02  0.7546771E-02  0.1302129E+00
          2   -1    0    0  501    0  0.00000000000E+00  0.00000000000E+00  0.33535930505E+03  0.33535930505E+03  0.00000000000E+00 0. -1.
         -2   -1    0    0    0  501 -0.00000000000E+00 -0.00000000000E+00 -0.60785145602E+01  0.60785145602E+01  0.00000000000E+00 0.  1.
         23    2    1    2    0    0  0.28865798640E-14  0.00000000000E+00  0.32928079049E+03  0.34143781961E+03  0.90299200852E+02 0.  0.
          5    1    3    3  502    0  0.12922636298E+01 -0.20350791077E+02  0.99282586551E+02  0.10146401645E+03  0.47000000000E+01 0. -1.
         -5    1    3    3    0  503  0.17788616173E+02  0.11588327759E+02  0.58385456300E+02  0.62303095532E+02  0.47000000000E+01 0. -1.
          5    1    3    3  503    0 -0.17314133179E+02 -0.13347338921E+02  0.67132320942E+02  0.70758527253E+02  0.47000000000E+01 0.  1.
         -5    1    3    3    0  502 -0.17667466237E+01  0.22109802239E+02  0.10448042669E+03  0.10691218037E+03  0.47000000000E+01 0.  1.
<mgrwt>
<rscale>  0 0.90299201E+02</rscale>
<asrwt>0</asrwt>
<pdfrwt beam="1">  1        2 0.51593725E-01 0.90299201E+02</pdfrwt>
<pdfrwt beam="2">  1       -2 0.93515635E-03 0.90299201E+02</pdfrwt>
<totfact> 0.19211547E+05</totfact>
</mgrwt>
</event>
<event>
 7    1  0.1028619E-012  0.9817479E+02  0.7546771E-02  0.1284182E+00
         -1   -1    0    0    0  501 -0.00000000000E+00  0.00000000000E+00  0.34893210133E+01  0.34893210133E+01  0.00000000000E+00 0.  1.
          1   -1    0    0  501    0  0.00000000000E+00 -0.00000000000E+00 -0.69055625241E+03  0.69055625241E+03  0.00000000000E+00 0. -1.
         23    2    1    2    0    0  0.17763568394E-14  0.35527136788E-14 -0.68706693140E+03  0.69404557342E+03  0.98174791925E+02 0.  0.
          5    1    3    3  502    0 -0.33710137186E+01 -0.21083829506E+02 -0.12579555842E+03  0.12768125985E+03  0.47000000000E+01 0. -1.
         -5    1    3    3    0  502  0.78723615107E+01  0.30245125004E+02 -0.26782127421E+03  0.26967956278E+03  0.47000000000E+01 0.  1.
          5    1    3    3  503    0  0.17244979059E+02 -0.10146159128E+02 -0.17046493591E+03  0.17169949977E+03  0.47000000000E+01 0.  1.
         -5    1    3    3    0  503 -0.21746326851E+02  0.98486362943E+00 -0.12298516286E+03  0.12498525102E+03  0.47000000000E+01 0. -1.
<mgrwt>
<rscale>  0 0.98174792E+02</rscale>
<asrwt>0</asrwt>
<pdfrwt beam="1">  1        1 0.10623939E+00 0.98174792E+02</pdfrwt>
<pdfrwt beam="2">  1       -1 0.53681881E-03 0.98174792E+02</pdfrwt>
<totfact> 0.11684134E+05</totfact>
</mgrwt>
</event>
<event>
 7    1  0.1028619E-012  0.9270895E+02  0.7546771E-02  0.1296421E+00
         -4   -1    0    0    0  501 -0.00000000000E+00  0.00000000000E+00  0.12258704195E+03  0.12258704195E+03  0.00000000000E+00 0.  1.
          4   -1    0    0  501    0  0.00000000000E+00 -0.00000000000E+00 -0.17528259418E+02  0.17528259418E+02  0.00000000000E+00 0. -1.
         23    2    1    2    0    0  0.00000000000E+00  0.66613381478E-15  0.10505878253E+03  0.14011530136E+03  0.92708952588E+02 0.  0.
          5    1    3    3  502    0 -0.22864056236E+02  0.15223161776E+01  0.25110410816E+02  0.34317710376E+02  0.47000000000E+01 0. -1.
         -5    1    3    3    0  503  0.15484117258E+02 -0.13222969110E+02  0.37782910879E+02  0.43176882169E+02  0.47000000000E+01 0. -1.
          5    1    3    3  503    0 -0.16502055159E+02  0.13230609135E+02  0.16657833673E+02  0.27330207925E+02  0.47000000000E+01 0.  1.
         -5    1    3    3    0  502  0.23881994137E+02 -0.15299562025E+01  0.25507627161E+02  0.35290500894E+02  0.47000000000E+01 0.  1.
<mgrwt>
<rscale>  0 0.92708953E+02</rscale>
<asrwt>0</asrwt>
<pdfrwt beam="1">  1        4 0.26966554E-02 0.92708953E+02</pdfrwt>
<pdfrwt beam="2">  1       -4 0.18859544E-01 0.92708953E+02</pdfrwt>
<totfact> 0.23114714E+04</totfact>
</mgrwt>
</event>
<event>
 7    1  0.1028619E-012  0.9489990E+02  0.7546771E-02  0.1291402E+00
          1   -1    0    0  501    0  0.00000000000E+00  0.00000000000E+00  0.42664668685E+03  0.42664668685E+03  0.00000000000E+00 0. -1.
         -1   -1    0    0    0  501 -0.00000000000E+00 -0.00000000000E+00 -0.52771953099E+01  0.52771953099E+01  0.00000000000E+00 0.  1.
         23    2    1    2    0    0 -0.88817841970E-15 -0.88817841970E-15  0.42136949154E+03  0.43192388216E+03  0.94899902947E+02 0.  0.
          5    1    3    3  502    0 -0.34988593059E+01 -0.22479664404E+02  0.13560390872E+03  0.13757938577E+03  0.47000000000E+01 0.  1.
         -5    1    3    3    0  503  0.20804802852E+02 -0.18539180581E+01  0.50700364722E+02  0.55035386951E+02  0.47000000000E+01 0. -1.
          5    1    3    3  503    0 -0.21861228758E+02  0.46332078517E+01  0.15109454037E+03  0.15281043835E+03  0.47000000000E+01 0. -1.
         -5    1    3    3    0  502  0.45552852119E+01  0.19700374611E+02  0.83970677730E+02  0.86498671098E+02  0.47000000000E+01 0.  1.
<mgrwt>
<rscale>  0 0.94899903E+02</rscale>
<asrwt>0</asrwt>
<pdfrwt beam="1">  1        1 0.65637924E-01 0.94899903E+02</pdfrwt>
<pdfrwt beam="2">  1       -1 0.81187654E-03 0.94899903E+02</pdfrwt>
<totfact> 0.12251559E+05</totfact>
</mgrwt>
</event>
<event>
 7    1  0.1028619E-012  0.1025114E+03  0.7546771E-02  0.1275102E+00
         -1   -1    0    0    0  501 -0.00000000000E+00  0.00000000000E+00  0.15253595320E+03  0.15253595320E+03  0.00000000000E+00 0.  1.
          1   -1    0    0  501    0  0.00000000000E+00 -0.00000000000E+00 -0.17223141054E+02  0.17223141054E+02  0.00000000000E+00 0. -1.
         23    2    1    2    0    0  0.00000000000E+00  0.00000000000E+00  0.13531281215E+03  0.16975909426E+03  0.10251142839E+03 0.  0.
          5    1    3    3  502    0 -0.12186184397E+02  0.22395633447E+02  0.33612283086E+02  0.42449299899E+02  0.47000000000E+01 0. -1.
         -5    1    3    3    0  502  0.64403777753E+01 -0.19848840150E+02  0.50563608915E+02  0.54901944116E+02  0.47000000000E+01 0.  1.
          5    1    3    3  503    0  0.18685273491E+02  0.18105154483E+02  0.26842498890E+02  0.37676860418E+02  0.47000000000E+01 0.  1.
         -5    1    3    3    0  503 -0.12939466869E+02 -0.20651947780E+02  0.24294421258E+02  0.34730989825E+02  0.47000000000E+01 0. -1.
<mgrwt>
<rscale>  0 0.10251143E+03</rscale>
<asrwt>0</asrwt>
<pdfrwt beam="1">  1        1 0.26497141E-02 0.10251143E+03</pdfrwt>
<pdfrwt beam="2">  1       -1 0.23467069E-01 0.10251143E+03</pdfrwt>
<totfact> 0.54901082E+04</totfact>
</mgrwt>
</event>
<event>
 7    1  0.1028619E-012  0.9890807E+02  0.7546771E-02  0.1282609E+00
         -3   -1    0    0    0  501 -0.00000000000E+00  0.00000000000E+00  0.19372472650E+03  0.19372472650E+03  0.00000000000E+00 0.  1.
          3   -1    0    0  501    0  0.00000000000E+00 -0.00000000000E+00 -0.12624621968E+02  0.12624621968E+02  0.00000000000E+00 0. -1.
         23    2    1    2    0    0 -0.17763568394E-14  0.00000000000E+00  0.18110010453E+03  0.20634934847E+03  0.98908067171E+02 0.  0.
          5    1    3    3  502    0  0.11505824271E+02  0.18244135433E+02  0.80241278874E+02  0.83222504800E+02  0.47000000000E+01 0. -1.
         -5    1    3    3    0  503  0.74700424605E+01 -0.19795223570E+02  0.22462743002E+02  0.31214055067E+02  0.47000000000E+01 0.  1.
          5    1    3    3  503    0 -0.64643689487E-01  0.20340230311E+02  0.35846223166E+02  0.41482175246E+02  0.47000000000E+01 0.  1.
         -5    1    3    3    0  502 -0.18911223043E+02 -0.18789142174E+02  0.42549859490E+02  0.50430613353E+02  0.47000000000E+01 0. -1.
<mgrwt>
<rscale>  0 0.98908067E+02</rscale>
<asrwt>0</asrwt>
<pdfrwt beam="1">  1        3 0.19422497E-02 0.98908067E+02</pdfrwt>
<pdfrwt beam="2">  1       -3 0.29803802E-01 0.98908067E+02</pdfrwt>
<totfact> 0.22590840E+04</totfact>
</mgrwt>
</event>
<event>
 7    1  0.1028619E-012  0.9436186E+02  0.7546771E-02  0.1292620E+00
         -2   -1    0    0    0  501 -0.00000000000E+00  0.00000000000E+00  0.58433880512E+02  0.58433880512E+02  0.00000000000E+00 0.  1.
          2   -1    0    0  501    0  0.00000000000E+00 -0.00000000000E+00 -0.38095025620E+02  0.38095025620E+02  0.00000000000E+00 0. -1.
         23    2    1    2    0    0  0.00000000000E+00  0.35527136788E-14  0.20338854892E+02  0.96528906132E+02  0.94361860413E+02 0.  0.
          5    1    3    3  502    0  0.22164444305E+02  0.20585089958E+01  0.65667155597E+01  0.23679353958E+02  0.47000000000E+01 0.  1.
         -5    1    3    3    0  503 -0.24496889394E+02  0.24217812092E+01  0.10050078839E+02  0.27001049959E+02  0.47000000000E+01 0. -1.
          5    1    3    3  503    0  0.13049413942E+02  0.16546199215E+02  0.76788523271E+00  0.21604248666E+02  0.47000000000E+01 0. -1.
         -5    1    3    3    0  502 -0.10716968852E+02 -0.21026489420E+02  0.29541752611E+01  0.24244253550E+02  0.47000000000E+01 0.  1.
<mgrwt>
<rscale>  0 0.94361860E+02</rscale>
<asrwt>0</asrwt>
<pdfrwt beam="1">  1        2 0.58607732E-02 0.94361860E+02</pdfrwt>
<pdfrwt beam="2">  1       -2 0.89898278E-02 0.94361860E+02</pdfrwt>
<totfact> 0.85200836E+04</totfact>
</mgrwt>
</event>
<event>
 7    1  0.1028619E-012  0.9191534E+02  0.7546771E-02  0.1298279E+00
         -2   -1    0    0    0  501 -0.00000000000E+00  0.00000000000E+00  0.62347348982E+02  0.62347348982E+02  0.00000000000E+00 0.  1.
          2   -1    0    0  501    0  0.00000000000E+00 -0.00000000000E+00 -0.33876462961E+02  0.33876462961E+02  0.00000000000E+00 0. -1.
         23    2    1    2    0    0  0.00000000000E+00  0.00000000000E+00  0.28470886021E+02  0.96223811943E+02  0.91915344932E+02 0.  0.
          5    1    3    3  502    0  0.20875301382E+02  0.38303088376E+01  0.17578088254E+01  0.21808928571E+02  0.47000000000E+01 0.  1.
         -5    1    3    3    0  502 -0.12975293533E+01 -0.21196705166E+02  0.16033317777E+02  0.27021124537E+02  0.47000000000E+01 0.  1.
          5    1    3    3  503    0  0.34272842095E+01  0.20293001173E+02 -0.73365460563E+00  0.21122983282E+02  0.47000000000E+01 0. -1.
         -5    1    3    3    0  503 -0.23005056238E+02 -0.29266048442E+01  0.11413414025E+02  0.26270775553E+02  0.47000000000E+01 0. -1.
<mgrwt>
<rscale>  0 0.91915345E+02</rscale>
<asrwt>0</asrwt>
<pdfrwt beam="1">  1        2 0.52117635E-02 0.91915345E+02</pdfrwt>
<pdfrwt beam="2">  1       -2 0.95918999E-02 0.91915345E+02</pdfrwt>
<totfact> 0.89211957E+04</totfact>
</mgrwt>
</event>
<event>
 7    1  0.1028619E-012  0.9197443E+02  0.7546771E-02  0.1298140E+00
         -3   -1    0    0    0  501 -0.00000000000E+00  0.00000000000E+00  0.17259425886E+03  0.17259425886E+03  0.00000000000E+00 0.  1.
          3   -1    0    0  501    0  0.00000000000E+00 -0.00000000000E+00 -0.12253154318E+02  0.12253154318E+02  0.00000000000E+00 0. -1.
         23    2    1    2    0    0  0.17763568394E-14  0.00000000000E+00  0.16034110455E+03  0.18484741318E+03  0.91974433149E+02 0.  0.
          5    1    3    3  502    0  0.13056666366E+02 -0.17441705940E+02  0.29044035770E+02  0.36610594867E+02  0.47000000000E+01 0. -1.
         -5    1    3    3    0  503 -0.16584025881E+02  0.14891029927E+02  0.35297804820E+02  0.42009495496E+02  0.47000000000E+01 0.  1.
          5    1    3    3  503    0  0.44012825818E+01 -0.19737745454E+02  0.61208651763E+02  0.64633883797E+02  0.47000000000E+01 0.  1.
         -5    1    3    3    0  502 -0.87392306633E+00  0.22288421467E+02  0.34790612193E+02  0.41593439023E+02  0.47000000000E+01 0. -1.
<mgrwt>
<rscale>  0 0.91974433E+02</rscale>
<asrwt>0</asrwt>
<pdfrwt beam="1">  1        3 0.18851008E-02 0.91974433E+02</pdfrwt>
<pdfrwt beam="2">  1       -3 0.26552961E-01 0.91974433E+02</pdfrwt>
<totfact> 0.28618193E+04</totfact>
</mgrwt>
</event>
<event>
 7    1  0.1028619E-012  0.9306726E+02  0.7546771E-02  0.1295589E+00
          1   -1    0    0  501    0  0.00000000000E+00  0.00000000000E+00  0.10056681284E+02  0.10056681284E+02  0.00000000000E+00 0. -1.
         -1   -1    0    0    0  501 -0.00000000000E+00 -0.00000000000E+00 -0.21531742040E+03  0.21531742040E+03  0.00000000000E+00 0.  1.
         23    2    1    2    0    0  0.00000000000E+00 -0.35527136788E-14 -0.20526073911E+03  0.22537410168E+03  0.93067258943E+02 0.  0.
          5    1    3    3  502    0 -0.12126862304E+02  0.18702285337E+02 -0.70597723804E+02  0.74181971344E+02  0.47000000000E+01 0.  1.
         -5    1    3    3    0  502  0.94216801771E+01 -0.17916534672E+02 -0.69179443523E+02  0.72233341873E+02  0.47000000000E+01 0. -1.
          5    1    3    3  503    0 -0.10988161167E+02  0.16999904032E+02 -0.36485657519E+02  0.41988446357E+02  0.47000000000E+01 0. -1.
         -5    1    3    3    0  503  0.13693343294E+02 -0.17785654697E+02 -0.28997914267E+02  0.36970342106E+02  0.47000000000E+01 0.  1.
<mgrwt>
<rscale>  0 0.93067259E+02</rscale>
<asrwt>0</asrwt>
<pdfrwt beam="1">  1        1 0.15471819E-02 0.93067259E+02</pdfrwt>
<pdfrwt beam="2">  1       -1 0.33125753E-01 0.93067259E+02</pdfrwt>
<totfact> 0.64390218E+04</totfact>
</mgrwt>
</event>
<event>
 7    1  0.1028619E-012  0.9914386E+02  0.7546771E-02  0.1282107E+00
         -3   -1    0    0    0  501 -0.00000000000E+00  0.00000000000E+00  0.22058113481E+02  0.22058113481E+02  0.00000000000E+00 0.  1.
          3   -1    0    0  501    0  0.00000000000E+00 -0.00000000000E+00 -0.11140464129E+03  0.11140464129E+03  0.00000000000E+00 0. -1.
         23    2    1    2    0    0  0.00000000000E+00 -0.35527136788E-14 -0.89346527807E+02  0.13346275477E+03  0.99143859514E+02 0.  0.
          5    1    3    3  502    0  0.13686234071E+02  0.23780046558E+02 -0.33591885795E+02  0.43626922979E+02  0.47000000000E+01 0. -1.
         -5    1    3    3    0  502  0.77024878756E+00 -0.21568498457E+02 -0.10138744038E+02  0.24303858532E+02  0.47000000000E+01 0.  1.
          5    1    3    3  503    0 -0.12751439773E+02  0.19972131017E+02 -0.20863924550E+02  0.31919877526E+02  0.47000000000E+01 0. -1.
         -5    1    3    3    0  503 -0.17050430854E+01 -0.22183679118E+02 -0.24751973424E+02  0.33612095732E+02  0.47000000000E+01 0.  1.
<mgrwt>
<rscale>  0 0.99143860E+02</rscale>
<asrwt>0</asrwt>
<pdfrwt beam="1">  1        3 0.17139175E-01 0.99143860E+02</pdfrwt>
<pdfrwt beam="2">  1       -3 0.33935560E-02 0.99143860E+02</pdfrwt>
<totfact> 0.25738461E+04</totfact>
</mgrwt>
</event>
<event>
 7    1  0.1028619E-012  0.9201003E+02  0.7546771E-02  0.1298056E+00
          1   -1    0    0  501    0  0.00000000000E+00  0.00000000000E+00  0.20657304696E+03  0.20657304696E+03  0.00000000000E+00 0. -1.
         -1   -1    0    0    0  501 -0.00000000000E+00 -0.00000000000E+00 -0.10245582420E+02  0.10245582420E+02  0.00000000000E+00 0.  1.
         23    2    1    2    0    0 -0.17763568394E-14  0.17763568394E-14  0.19632746454E+03  0.21681862938E+03  0.92010025072E+02 0.  0.
          5    1    3    3  502    0 -0.10259561612E+02  0.18379407419E+02  0.62124648358E+02  0.65761867029E+02  0.47000000000E+01 0. -1.
         -5    1    3    3    0  503 -0.19535373611E+02  0.61637824564E+01  0.69304720794E+02  0.72421387453E+02  0.47000000000E+01 0.  1.
          5    1    3    3  503    0  0.20453307819E+02 -0.57002304199E+01  0.41315458704E+02  0.46689265956E+02  0.47000000000E+01 0. -1.
         -5    1    3    3    0  502  0.93416274031E+01 -0.18842959456E+02  0.23582636684E+02  0.31946108942E+02  0.47000000000E+01 0.  1.
<mgrwt>
<rscale>  0 0.92010025E+02</rscale>
<asrwt>0</asrwt>
<pdfrwt beam="1">  1        1 0.31780466E-01 0.92010025E+02</pdfrwt>
<pdfrwt beam="2">  1       -1 0.15762436E-02 0.92010025E+02</pdfrwt>
<totfact> 0.11627843E+05</totfact>
</mgrwt>
</event>
<event>
 7    1  0.1028619E-012  0.9739807E+02  0.7546771E-02  0.1285865E+00
         -2   -1    0    0    0  501 -0.00000000000E+00  0.00000000000E+00  0.48206062383E+03  0.48206062383E+03  0.00000000000E+00 0.  1.
          2   -1    0    0  501    0  0.00000000000E+00 -0.00000000000E+00 -0.49197044557E+01  0.49197044557E+01  0.00000000000E+00 0. -1.
         23    2    1    2    0    0 -0.35527136788E-14  0.00000000000E+00  0.47714091937E+03  0.48698032828E+03  0.97398065668E+02 0.  0.
          5    1    3    3  502    0  0.20525380445E+02 -0.82421569006E+01  0.19439192745E+03  0.19570267206E+03  0.47000000000E+01 0.  1.
         -5    1    3    3    0  503  0.21288096046E+02  0.31125314480E+01  0.66612881646E+02  0.70158655107E+02  0.47000000000E+01 0.  1.
          5    1    3    3  503    0 -0.20098893071E+02 -0.51466755727E+01  0.12264957559E+03  0.12448077026E+03  0.47000000000E+01 0. -1.
         -5    1    3    3    0  502 -0.21714583419E+02  0.10276301025E+02  0.93486534686E+02  0.96638230858E+02  0.47000000000E+01 0. -1.
<mgrwt>
<rscale>  0 0.97398066E+02</rscale>
<asrwt>0</asrwt>
<pdfrwt beam="1">  1        2 0.75687798E-03 0.97398066E+02</pdfrwt>
<pdfrwt beam="2">  1       -2 0.74163136E-01 0.97398066E+02</pdfrwt>
<totfact> 0.31459688E+04</totfact>
</mgrwt>
</event>
<event>
 7    1  0.1028619E-012  0.9268127E+02  0.7546771E-02  0.1296486E+00
         -2   -1    0    0    0  501 -0.00000000000E+00  0.00000000000E+00  0.99022511798E+02  0.99022511798E+02  0.00000000000E+00 0.  1.
          2   -1    0    0  501    0  0.00000000000E+00 -0.00000000000E+00 -0.21686526063E+02  0.21686526063E+02  0.00000000000E+00 0. -1.
         23    2    1    2    0    0  0.00000000000E+00  0.17763568394E-14  0.77335985735E+02  0.12070903786E+03  0.92681266348E+02 0.  0.
          5    1    3    3  502    0  0.13627263626E+02  0.15992287020E+02  0.80694510242E+01  0.22992642256E+02  0.47000000000E+01 0. -1.
         -5    1    3    3    0  502 -0.99350703979E+01 -0.17519451704E+02  0.26492827524E+02  0.33609473694E+02  0.47000000000E+01 0.  1.
          5    1    3    3  503    0  0.80715112313E+01  0.19154199962E+02  0.35140321454E+02  0.41097017673E+02  0.47000000000E+01 0.  1.
         -5    1    3    3    0  503 -0.11763704460E+02 -0.17627035277E+02  0.76333857336E+01  0.23009904238E+02  0.47000000000E+01 0. -1.
<mgrwt>
<rscale>  0 0.92681266E+02</rscale>
<asrwt>0</asrwt>
<pdfrwt beam="1">  1        2 0.33363887E-02 0.92681266E+02</pdfrwt>
<pdfrwt beam="2">  1       -2 0.15234232E-01 0.92681266E+02</pdfrwt>
<totfact> 0.76845080E+04</totfact>
</mgrwt>
</event>
<event>
 7    1  0.1028619E-012  0.1016624E+03  0.7546771E-02  0.1276838E+00
         -2   -1    0    0    0  501 -0.00000000000E+00  0.00000000000E+00  0.46026657870E+02  0.46026657870E+02  0.00000000000E+00 0. -1.
          2   -1    0    0  501    0  0.00000000000E+00 -0.00000000000E+00 -0.56137286832E+02  0.56137286832E+02  0.00000000000E+00 0.  1.
         23    2    1    2    0    0  0.00000000000E+00  0.00000000000E+00 -0.10110628962E+02  0.10216394470E+03  0.10166241576E+03 0.  0.
          5    1    3    3  502    0  0.47665606085E+01  0.21417827556E+02  0.26266726661E+01  0.22592760933E+02  0.47000000000E+01 0. -1.
         -5    1    3    3    0  502 -0.22671836481E+02 -0.35470782034E+01 -0.13344136369E+02  0.26958299439E+02  0.47000000000E+01 0. -1.
          5    1    3    3  503    0 -0.83233800442E+01 -0.23320396766E+02  0.26273495119E+01  0.25339939348E+02  0.47000000000E+01 0.  1.
         -5    1    3    3    0  503  0.26228655916E+02  0.54496474130E+01 -0.20205147708E+01  0.27272944983E+02  0.47000000000E+01 0.  1.
<mgrwt>
<rscale>  0 0.10166242E+03</rscale>
<asrwt>0</asrwt>
<pdfrwt beam="1">  1        2 0.86365057E-02 0.10166242E+03</pdfrwt>
<pdfrwt beam="2">  1       -2 0.70810243E-02 0.10166242E+03</pdfrwt>
<totfact> 0.76298903E+04</totfact>
</mgrwt>
</event>
<event>
 7    1  0.1028619E-012  0.9321233E+02  0.7546771E-02  0.1295254E+00
          1   -1    0    0  501    0  0.00000000000E+00  0.00000000000E+00  0.20321210072E+02  0.20321210072E+02  0.00000000000E+00 0. -1.
         -1   -1    0    0    0  501 -0.00000000000E+00 -0.00000000000E+00 -0.10689003379E+03  0.10689003379E+03  0.00000000000E+00 0.  1.
         23    2    1    2    0    0  0.00000000000E+00  0.17763568394E-14 -0.86568823721E+02  0.12721124387E+03  0.93212334620E+02 0.  0.
          5    1    3    3  502    0  0.97012314751E+01 -0.17783118258E+02 -0.25644230019E+02  0.33016203906E+02  0.47000000000E+01 0.  1.
         -5    1    3    3    0  502 -0.88885212219E+01  0.19879787188E+02 -0.19134164009E+02  0.29366953885E+02  0.47000000000E+01 0. -1.
          5    1    3    3  503    0 -0.16698190434E+02 -0.17066410944E+02 -0.10779503568E+02  0.26615402373E+02  0.47000000000E+01 0. -1.
         -5    1    3    3    0  503  0.15885480181E+02  0.14969742014E+02 -0.31010926125E+02  0.38212683701E+02  0.47000000000E+01 0.  1.
<mgrwt>
<rscale>  0 0.93212335E+02</rscale>
<asrwt>0</asrwt>
<pdfrwt beam="1">  1        1 0.31263401E-02 0.93212335E+02</pdfrwt>
<pdfrwt beam="2">  1       -1 0.16444620E-01 0.93212335E+02</pdfrwt>
<totfact> 0.75898625E+04</totfact>
</mgrwt>
</event>
<event>
 7    1  0.1028619E-012  0.9435065E+02  0.7546771E-02  0.1292645E+00
         -1   -1    0    0    0  501 -0.00000000000E+00  0.00000000000E+00  0.43435626267E+01  0.43435626267E+01  0.00000000000E+00 0. -1.
          1   -1    0    0  501    0  0.00000000000E+00 -0.00000000000E+00 -0.51237004990E+03  0.51237004990E+03  0.00000000000E+00 0.  1.
         23    2    1    2    0    0  0.35527136788E-14  0.35527136788E-14 -0.50802648728E+03  0.51671361253E+03  0.94350652352E+02 0.  0.
          5    1    3    3  502    0 -0.22960346526E+01 -0.25576974402E+02 -0.13226458953E+03  0.13481641234E+03  0.47000000000E+01 0.  1.
         -5    1    3    3    0  503  0.97234283747E+00  0.20282923160E+02 -0.17184824760E+03  0.17310763306E+03  0.47000000000E+01 0.  1.
          5    1    3    3  503    0  0.21974838089E+02  0.71690316819E+01 -0.10515340373E+03  0.10776649219E+03  0.47000000000E+01 0. -1.
         -5    1    3    3    0  502 -0.20651146274E+02 -0.18749804401E+01 -0.98760246427E+02  0.10102307493E+03  0.47000000000E+01 0. -1.
<mgrwt>
<rscale>  0 0.94350652E+02</rscale>
<asrwt>0</asrwt>
<pdfrwt beam="1">  1        1 0.78826120E-01 0.94350652E+02</pdfrwt>
<pdfrwt beam="2">  1       -1 0.66824075E-03 0.94350652E+02</pdfrwt>
<totfact> 0.12752912E+05</totfact>
</mgrwt>
</event>
