<event>
 8    1  0.7366917E-004  0.9408578E+02  0.7546771E-02  0.1294100E+00
          2   -1    0    0  501    0  0.00000000000E+00  0.00000000000E+00  0.25222948950E+03  0.25222948950E+03  0.00000000000E+00 0. -1.
         -2   -1    0    0    0  501 -0.00000000000E+00 -0.00000000000E+00 -0.25515448512E+03  0.25515448512E+03  0.00000000000E+00 0.  1.
         23    2    1    2    0    0 -0.48161077065E+01 -0.90068772128E+01 -0.23735372007E+03  0.25477961769E+03  0.92041004066E+02 0.  0.
         23    2    1    2    0    0  0.48161077065E+01  0.90068772128E+01  0.23442872445E+03  0.25260435693E+03  0.93529757630E+02 0.  0.
          5    1    4    4  502    0  0.34799003517E+01  0.32812273103E+02  0.22347737362E+03  0.22594906836E+03  0.47000000000E+01 0. -1.
         -5    1    3    3    0  503 -0.26811867301E+02  0.11408809030E+02 -0.21512173072E+03  0.21713702167E+03  0.47000000000E+01 0.  1.
          5    1    3    3  503    0  0.21995759595E+02 -0.20415686242E+02 -0.22231989352E+02  0.37642596025E+02  0.47000000000E+01 0. -1.
         -5    1    4    4    0  502  0.13362073548E+01 -0.23805395890E+02  0.10951350824E+02  0.26655288565E+02  0.47000000000E+01 0.  1.
<mgrwt>
<rscale>  0 0.93713626E+02</rscale>
<asrwt>0</asrwt>
<pdfrwt beam="1">  1        2 0.38804537E-01 0.94085782E+02</pdfrwt>
<pdfrwt beam="2">  1       -2 0.39254536E-01 0.94085782E+02</pdfrwt>
<totfact> 0.80337991E+02</totfact>
</mgrwt>
</event>
<event>
 8    1  0.7366917E-004  0.9542349E+02  0.7546771E-02  0.1291591E+00
         -1   -1    0    0    0  501 -0.00000000000E+00  0.00000000000E+00  0.55793039990E+02  0.55793039990E+02  0.00000000000E+00 0.  1.
          1   -1    0    0  501    0  0.00000000000E+00 -0.00000000000E+00 -0.17897470796E+03  0.17897470796E+03  0.00000000000E+00 0. -1.
         23    2    1    2    0    0 -0.18674070995E+02  0.23252091260E+01 -0.21790115789E+02  0.95534530869E+02  0.91092864250E+02 0.  0.
         23    2    1    2    0    0  0.18674070995E+02 -0.23252091260E+01 -0.10139155218E+03  0.13923321708E+03  0.93549528915E+02 0.  0.
          5    1    4    4  502    0 -0.15006033029E+02  0.36843972053E+02 -0.63168516970E+02  0.74799805081E+02  0.47000000000E+01 0. -1.
         -5    1    3    3    0  503  0.49070915917E+01 -0.37066527688E+02  0.10606377051E+02  0.39148336579E+02  0.47000000000E+01 0.  1.
          5    1    3    3  503    0 -0.23581162586E+02  0.39391736814E+02 -0.32396492840E+02  0.56386194290E+02  0.47000000000E+01 0. -1.
         -5    1    4    4    0  502  0.33680104024E+02 -0.39169181179E+02 -0.38223035210E+02  0.64433412000E+02  0.47000000000E+01 0.  1.
<mgrwt>
<rscale>  0 0.94815919E+02</rscale>
<asrwt>0</asrwt>
<pdfrwt beam="1">  1        1 0.27534571E-01 0.95423487E+02</pdfrwt>
<pdfrwt beam="2">  1       -1 0.85835445E-02 0.95423487E+02</pdfrwt>
<totfact> 0.11869252E+04</totfact>
</mgrwt>
</event>
<event>
 8    1  0.7366917E-004  0.1060519E+03  0.7546771E-02  0.1268452E+00
         -1   -1    0    0    0  501 -0.00000000000E+00  0.00000000000E+00  0.76543550829E+01  0.76543550829E+01  0.00000000000E+00 0.  1.
          1   -1    0    0  501    0  0.00000000000E+00 -0.00000000000E+00 -0.14649372328E+04  0.14649372328E+04  0.00000000000E+00 0. -1.
         23    2    1    2    0    0 -0.41803854990E+02  0.32141696878E+02 -0.68172741857E+03  0.68992701291E+03  0.92012819508E+02 0.  0.
         23    2    1    2    0    0  0.41803854990E+02 -0.32141696878E+02 -0.77555545911E+03  0.78266457493E+03  0.91087407038E+02 0.  0.
          5    1    4    4  502    0  0.24795898544E+02 -0.63745770667E+02 -0.54248547996E+03  0.54680064542E+03  0.47000000000E+01 0. -1.
         -5    1    3    3    0  503 -0.70389671412E+02  0.29193693348E+02 -0.52420667779E+03  0.52973739590E+03  0.47000000000E+01 0.  1.
          5    1    3    3  503    0  0.28585816422E+02  0.29480035300E+01 -0.15752074077E+03  0.16018961701E+03  0.47000000000E+01 0. -1.
         -5    1    4    4    0  502  0.17007956446E+02  0.31604073789E+02 -0.23306997916E+03  0.23586392952E+03  0.47000000000E+01 0.  1.
<mgrwt>
<rscale>  0 0.10585087E+03</rscale>
<asrwt>0</asrwt>
<pdfrwt beam="1">  1        1 0.22537525E+00 0.10605192E+03</pdfrwt>
<pdfrwt beam="2">  1       -1 0.11775916E-02 0.10605192E+03</pdfrwt>
<totfact> 0.10739567E+04</totfact>
</mgrwt>
</event>
<event>
 8    1  0.7366917E-004  0.1034055E+03  0.7546771E-02  0.1276907E+00
         -1   -1    0    0    0  501 -0.00000000000E+00  0.00000000000E+00  0.91923756410E+02  0.91923756410E+02  0.00000000000E+00 0.  1.
          1   -1    0    0  501    0  0.00000000000E+00 -0.00000000000E+00 -0.11398405199E+03  0.11398405199E+03  0.00000000000E+00 0. -1.
         23    2    1    2    0    0  0.23969078708E+02  0.11223970816E+02  0.11567108053E+02  0.97171871487E+02  0.92779741133E+02 0.  0.
         23    2    1    2    0    0 -0.23969078708E+02 -0.11223970816E+02 -0.33627403637E+02  0.10873593692E+03  0.99961029640E+02 0.  0.
          5    1    4    4  502    0  0.28529008919E+02  0.12300041286E+02 -0.39776740381E+02  0.50689983635E+02  0.47000000000E+01 0. -1.
         -5    1    3    3    0  503  0.47704836468E+02 -0.81779716111E+01 -0.20307425156E+02  0.52698312673E+02  0.47000000000E+01 0.  1.
          5    1    3    3  503    0 -0.23735757760E+02  0.19401942427E+02  0.31874533209E+02  0.44473558815E+02  0.47000000000E+01 0. -1.
         -5    1    4    4    0  502 -0.52498087628E+02 -0.23524012102E+02  0.61493367441E+01  0.58045953281E+02  0.47000000000E+01 0.  1.
<mgrwt>
<rscale>  0 0.10162913E+03</rscale>
<asrwt>0</asrwt>
<pdfrwt beam="1">  1        1 0.17536008E-01 0.10340552E+03</pdfrwt>
<pdfrwt beam="2">  1       -1 0.14142117E-01 0.10340552E+03</pdfrwt>
<totfact> 0.98354026E+03</totfact>
</mgrwt>
</event>
<event>
 8    1  0.7366917E-004  0.1112322E+03  0.7546771E-02  0.1258515E+00
         -1   -1    0    0    0  501 -0.00000000000E+00  0.00000000000E+00  0.74854720523E+02  0.74854720523E+02  0.00000000000E+00 0.  1.
          1   -1    0    0  501    0  0.00000000000E+00 -0.00000000000E+00 -0.20713959760E+03  0.20713959760E+03  0.00000000000E+00 0. -1.
         23    2    1    2    0    0 -0.31745925751E+02 -0.55282343035E+02 -0.21420862312E+01  0.11079344040E+03  0.90590599122E+02 0.  0.
         23    2    1    2    0    0  0.31745925751E+02  0.55282343035E+02 -0.13014279085E+03  0.17120087773E+03  0.91151814414E+02 0.  0.
          5    1    4    4  502    0 -0.60464828870E+01  0.69173873219E+02 -0.93482285811E+02  0.11654446556E+03  0.47000000000E+01 0. -1.
         -5    1    3    3    0  503 -0.62079498282E+02 -0.24387069635E+02  0.30551155997E+01  0.66932929143E+02  0.47000000000E+01 0.  1.
          5    1    3    3  503    0  0.30333572531E+02 -0.30895273399E+02 -0.51972018309E+01  0.43860511258E+02  0.47000000000E+01 0. -1.
         -5    1    4    4    0  502  0.37792408638E+02 -0.13891530185E+02 -0.36660505039E+02  0.54656412169E+02  0.47000000000E+01 0.  1.
<mgrwt>
<rscale>  0 0.11111713E+03</rscale>
<asrwt>0</asrwt>
<pdfrwt beam="1">  1        1 0.31867630E-01 0.11123216E+03</pdfrwt>
<pdfrwt beam="2">  1       -1 0.11516111E-01 0.11123216E+03</pdfrwt>
<totfact> 0.64312561E+03</totfact>
</mgrwt>
</event>
<event>
 8    1  0.7366917E-004  0.1027347E+03  0.7546771E-02  0.1275870E+00
          3   -1    0    0  501    0  0.00000000000E+00  0.00000000000E+00  0.86254570613E+02  0.86254570613E+02  0.00000000000E+00 0. -1.
         -3   -1    0    0    0  501 -0.00000000000E+00 -0.00000000000E+00 -0.24201126677E+03  0.24201126677E+03  0.00000000000E+00 0.  1.
         23    2    1    2    0    0 -0.45678949251E+02  0.14328245834E+02 -0.19508227610E+03  0.22048020063E+03  0.90898621492E+02 0.  0.
         23    2    1    2    0    0  0.45678949251E+02 -0.14328245834E+02  0.39325579943E+02  0.10778563675E+03  0.88200777879E+02 0.  0.
          5    1    3    3  502    0 -0.41469542935E+02  0.35654834398E+02 -0.51773005685E+02  0.75455445959E+02  0.47000000000E+01 0. -1.
         -5    1    4    4    0  503 -0.25171273318E+02 -0.89164965859E+01  0.20883852121E+02  0.34224584603E+02  0.47000000000E+01 0.  1.
          5    1    4    4  503    0  0.70850222569E+02 -0.54117492477E+01  0.18441727822E+02  0.73561052147E+02  0.47000000000E+01 0. -1.
         -5    1    3    3    0  502 -0.42094063158E+01 -0.21326588564E+02 -0.14330927041E+03  0.14502475467E+03  0.47000000000E+01 0.  1.
<mgrwt>
<rscale>  0 0.10213470E+03</rscale>
<asrwt>0</asrwt>
<pdfrwt beam="1">  1        3 0.13269934E-01 0.10273473E+03</pdfrwt>
<pdfrwt beam="2">  1       -3 0.37232502E-01 0.10273473E+03</pdfrwt>
<totfact> 0.72218907E+02</totfact>
</mgrwt>
</event>
<event>
 8    1  0.7366917E-004  0.1024504E+03  0.7546771E-02  0.1275500E+00
         -4   -1    0    0    0  501 -0.00000000000E+00  0.00000000000E+00  0.21965370666E+03  0.21965370666E+03  0.00000000000E+00 0.  1.
          4   -1    0    0  501    0  0.00000000000E+00 -0.00000000000E+00 -0.14663704828E+03  0.14663704828E+03  0.00000000000E+00 0. -1.
         23    2    1    2    0    0  0.16931357228E+02  0.43292267153E+02  0.18703931050E+03  0.21300261877E+03  0.90694656271E+02 0.  0.
         23    2    1    2    0    0 -0.16931357228E+02 -0.43292267153E+02 -0.11402265212E+03  0.15328813617E+03  0.91297295922E+02 0.  0.
          5    1    3    3  502    0  0.45588321457E+02  0.53708324189E+02  0.13912186160E+03  0.15601237616E+03  0.47000000000E+01 0. -1.
         -5    1    4    4    0  503 -0.41904206509E+02  0.69405001998E+01 -0.30247744958E+02  0.52355984770E+02  0.47000000000E+01 0.  1.
          5    1    4    4  503    0  0.24972849282E+02 -0.50232767352E+02 -0.83774907161E+02  0.10093215140E+03  0.47000000000E+01 0. -1.
         -5    1    3    3    0  502 -0.28656964230E+02 -0.10416057036E+02  0.47917448902E+02  0.56990242606E+02  0.47000000000E+01 0.  1.
<mgrwt>
<rscale>  0 0.10231598E+03</rscale>
<asrwt>0</asrwt>
<pdfrwt beam="1">  1        4 0.22559546E-01 0.10245041E+03</pdfrwt>
<pdfrwt beam="2">  1       -4 0.33792878E-01 0.10245041E+03</pdfrwt>
<totfact> 0.24200676E+02</totfact>
</mgrwt>
</event>
<event>
 8    1  0.7366917E-004  0.1060491E+03  0.7546771E-02  0.1268758E+00
         -2   -1    0    0    0  501 -0.00000000000E+00  0.00000000000E+00  0.24204837635E+02  0.24204837635E+02  0.00000000000E+00 0.  1.
          2   -1    0    0  501    0  0.00000000000E+00 -0.00000000000E+00 -0.46478273198E+03  0.46478273198E+03  0.00000000000E+00 0. -1.
         23    2    1    2    0    0  0.19200989450E+02  0.49513450570E+02 -0.24733958324E+03  0.26856192071E+03  0.90157506806E+02 0.  0.
         23    2    1    2    0    0 -0.19200989450E+02 -0.49513450570E+02 -0.19323831111E+03  0.22042564891E+03  0.91794128542E+02 0.  0.
          5    1    3    3  502    0 -0.40058161937E+01 -0.25254558307E+02 -0.69175905469E+02  0.73900170339E+02  0.47000000000E+01 0. -1.
         -5    1    3    3    0  502  0.23206805644E+02  0.74768008877E+02 -0.17816367777E+03  0.19466175037E+03  0.47000000000E+01 0.  1.
          5    1    4    4  503    0  0.23204543660E+02 -0.57830187753E+02 -0.10941954507E+03  0.12600598520E+03  0.47000000000E+01 0. -1.
         -5    1    4    4    0  503 -0.42405533111E+02  0.83167371837E+01 -0.83818766036E+02  0.94419663712E+02  0.47000000000E+01 0.  1.
<mgrwt>
<rscale>  0 0.10569401E+03</rscale>
<asrwt>0</asrwt>
<pdfrwt beam="1">  1        2 0.71505029E-01 0.10604915E+03</pdfrwt>
<pdfrwt beam="2">  1       -2 0.37238215E-02 0.10604915E+03</pdfrwt>
<totfact> 0.19028896E+04</totfact>
</mgrwt>
</event>
<event>
 8    1  0.7366917E-004  0.1379677E+03  0.7546771E-02  0.1216656E+00
          3   -1    0    0  501    0  0.00000000000E+00  0.00000000000E+00  0.39460888564E+03  0.39460888564E+03  0.00000000000E+00 0. -1.
         -3   -1    0    0    0  501 -0.00000000000E+00 -0.00000000000E+00 -0.48730436522E+02  0.48730436522E+02  0.00000000000E+00 0.  1.
         23    2    1    2    0    0 -0.72355578055E+02  0.70941847894E+02  0.20671515506E+03  0.24852816853E+03  0.93632364939E+02 0.  0.
         23    2    1    2    0    0  0.72355578055E+02 -0.70941847894E+02  0.13916329406E+03  0.19481115363E+03  0.91196972030E+02 0.  0.
          5    1    4    4  502    0  0.93094738002E+02 -0.57433007157E+02  0.10022096174E+03  0.14843015774E+03  0.47000000000E+01 0. -1.
         -5    1    3    3    0  503 -0.69789720683E+02  0.44842040716E+02  0.20572091392E+03  0.22186617172E+03  0.47000000000E+01 0.  1.
          5    1    3    3  503    0 -0.25658573715E+01  0.26099807178E+02  0.99424114242E+00  0.26661996816E+02  0.47000000000E+01 0. -1.
         -5    1    4    4    0  502 -0.20739159947E+02 -0.13508840738E+02  0.38942332319E+02  0.46380995891E+02  0.47000000000E+01 0.  1.
<mgrwt>
<rscale>  0 0.13755563E+03</rscale>
<asrwt>0</asrwt>
<pdfrwt beam="1">  1        3 0.60709057E-01 0.13796773E+03</pdfrwt>
<pdfrwt beam="2">  1       -3 0.74969905E-02 0.13796773E+03</pdfrwt>
<totfact> 0.73922615E+02</totfact>
</mgrwt>
</event>
<event>
 8    1  0.7366917E-004  0.9664264E+02  0.7546771E-02  0.1288079E+00
         -1   -1    0    0    0  501 -0.00000000000E+00  0.00000000000E+00  0.97584232725E+02  0.97584232725E+02  0.00000000000E+00 0.  1.
          1   -1    0    0  501    0  0.00000000000E+00 -0.00000000000E+00 -0.46019860985E+03  0.46019860985E+03  0.00000000000E+00 0. -1.
         23    2    1    2    0    0 -0.10826829255E+02 -0.29383667124E+02  0.67037444860E+02  0.11761725708E+03  0.91428551475E+02 0.  0.
         23    2    1    2    0    0  0.10826829255E+02  0.29383667124E+02 -0.42965182198E+03  0.44016558549E+03  0.90357259762E+02 0.  0.
          5    1    3    3  502    0 -0.21417287119E+02  0.23192781057E+02  0.36172974625E+00  0.31919055893E+02  0.47000000000E+01 0. -1.
         -5    1    4    4    0  503  0.38059752854E+02 -0.14972088698E+02 -0.23711443679E+03  0.24066170107E+03  0.47000000000E+01 0.  1.
          5    1    4    4  503    0 -0.27232923600E+02  0.44355755822E+02 -0.19253738519E+03  0.19950388442E+03  0.47000000000E+01 0. -1.
         -5    1    3    3    0  502  0.10590457865E+02 -0.52576448181E+02  0.66675715114E+02  0.85698201189E+02  0.47000000000E+01 0.  1.
<mgrwt>
<rscale>  0 0.96388424E+02</rscale>
<asrwt>0</asrwt>
<pdfrwt beam="1">  1        1 0.70799786E-01 0.96642641E+02</pdfrwt>
<pdfrwt beam="2">  1       -1 0.15012959E-01 0.96642641E+02</pdfrwt>
<totfact> 0.15821525E+03</totfact>
</mgrwt>
</event>
<event>
 8    1  0.7366917E-004  0.9219115E+02  0.7546771E-02  0.1297643E+00
          1   -1    0    0  501    0  0.00000000000E+00  0.00000000000E+00  0.10223249418E+03  0.10223249418E+03  0.00000000000E+00 0. -1.
         -1   -1    0    0    0  501 -0.00000000000E+00 -0.00000000000E+00 -0.87138496060E+02  0.87138496060E+02  0.00000000000E+00 0.  1.
         23    2    1    2    0    0 -0.10620562086E+02  0.38782970323E+01  0.27888732224E+02  0.96317132046E+02  0.91495196669E+02 0.  0.
         23    2    1    2    0    0  0.10620562086E+02 -0.38782970323E+01 -0.12794734106E+02  0.93053858193E+02  0.91473918561E+02 0.  0.
          5    1    3    3  502    0  0.15084425144E+02 -0.37572056833E+02  0.23676656122E+02  0.47136751921E+02  0.47000000000E+01 0. -1.
         -5    1    4    4    0  503 -0.33501138166E+02  0.73194447969E+01 -0.28328439132E+02  0.44726848695E+02  0.47000000000E+01 0.  1.
          5    1    4    4  503    0  0.44121700252E+02 -0.11197741829E+02  0.15533705026E+02  0.48327009498E+02  0.47000000000E+01 0. -1.
         -5    1    3    3    0  502 -0.25704987230E+02  0.41450353866E+02  0.42120761024E+01  0.49180380124E+02  0.47000000000E+01 0.  1.
<mgrwt>
<rscale>  0 0.92185872E+02</rscale>
<asrwt>0</asrwt>
<pdfrwt beam="1">  1        1 0.15728076E-01 0.92191152E+02</pdfrwt>
<pdfrwt beam="2">  1       -1 0.13405922E-01 0.92191152E+02</pdfrwt>
<totfact> 0.12138767E+04</totfact>
</mgrwt>
</event>
<event>
 8    1  0.7366917E-004  0.9641669E+02  0.7546771E-02  0.1288151E+00
          2   -1    0    0  501    0  0.00000000000E+00  0.00000000000E+00  0.31648777266E+02  0.31648777266E+02  0.00000000000E+00 0.  1.
         -2   -1    0    0    0  501 -0.00000000000E+00 -0.00000000000E+00 -0.29805857979E+03  0.29805857979E+03  0.00000000000E+00 0. -1.
         23    2    1    2    0    0 -0.29420855051E+02 -0.70145262270E+01 -0.15453873928E+03  0.18202082413E+03  0.91293856260E+02 0.  0.
         23    2    1    2    0    0  0.29420855051E+02  0.70145262270E+01 -0.11187106325E+03  0.14768653293E+03  0.91549914936E+02 0.  0.
          5    1    3    3  502    0  0.30834496401E+02  0.61742183711E+01 -0.73395149601E+02  0.79986405881E+02  0.47000000000E+01 0. -1.
         -5    1    3    3    0  502 -0.60255351452E+02 -0.13188744598E+02 -0.81143589676E+02  0.10203441825E+03  0.47000000000E+01 0.  1.
          5    1    4    4  503    0  0.49918456466E+02 -0.21857974622E+02 -0.91402677057E+02  0.10651836801E+03  0.47000000000E+01 0. -1.
         -5    1    4    4    0  503 -0.20497601416E+02  0.28872500849E+02 -0.20468386194E+02  0.41168164915E+02  0.47000000000E+01 0.  1.
<mgrwt>
<rscale>  0 0.96355853E+02</rscale>
<asrwt>0</asrwt>
<pdfrwt beam="1">  1        2 0.48690427E-02 0.96416685E+02</pdfrwt>
<pdfrwt beam="2">  1       -2 0.45855165E-01 0.96416685E+02</pdfrwt>
<totfact> 0.67954334E+03</totfact>
</mgrwt>
</event>
<event>
 8    1  0.7366917E-004  0.9438372E+02  0.7546771E-02  0.1292809E+00
          2   -1    0    0  501    0  0.00000000000E+00  0.00000000000E+00  0.66968501838E+03  0.66968501838E+03  0.00000000000E+00 0. -1.
         -2   -1    0    0    0  501 -0.00000000000E+00 -0.00000000000E+00 -0.27033717124E+02  0.27033717124E+02  0.00000000000E+00 0.  1.
         23    2    1    2    0    0 -0.17656836374E+01 -0.20579763734E+02  0.72867545407E+02  0.11923911210E+03  0.92095832517E+02 0.  0.
         23    2    1    2    0    0  0.17656836374E+01  0.20579763734E+02  0.56978375585E+03  0.57747962340E+03  0.91665384425E+02 0.  0.
          5    1    4    4  502    0  0.79526151644E+01  0.54447440837E+02  0.26308961296E+03  0.26882336645E+03  0.47000000000E+01 0.  1.
         -5    1    4    4    0  502 -0.61869315270E+01 -0.33867677103E+02  0.30669414288E+03  0.30865625695E+03  0.47000000000E+01 0.  1.
          5    1    3    3  503    0 -0.39475258701E+02  0.12473821546E+02  0.46333752362E+02  0.62312108626E+02  0.47000000000E+01 0. -1.
         -5    1    3    3    0  503  0.37709575063E+02 -0.33053585280E+02  0.26533793046E+02  0.56927003476E+02  0.47000000000E+01 0.  1.
<mgrwt>
<rscale>  0 0.94278553E+02</rscale>
<asrwt>0</asrwt>
<pdfrwt beam="1">  1        2 0.10302845E+00 0.94383720E+02</pdfrwt>
<pdfrwt beam="2">  1       -2 0.41590339E-02 0.94383720E+02</pdfrwt>
<totfact> 0.10678138E+04</totfact>
</mgrwt>
</event>
<event>
 8    1  0.7366917E-004  0.9699518E+02  0.7546771E-02  0.1287932E+00
          1   -1    0    0  501    0  0.00000000000E+00  0.00000000000E+00  0.13873452566E+02  0.13873452566E+02  0.00000000000E+00 0. -1.
         -1   -1    0    0    0  501 -0.00000000000E+00 -0.00000000000E+00 -0.82292295969E+03  0.82292295969E+03  0.00000000000E+00 0.  1.
         23    2    1    2    0    0  0.15318068860E+02 -0.29841331910E+02 -0.22386869617E+03  0.24397798528E+03  0.91010526051E+02 0.  0.
         23    2    1    2    0    0 -0.15318068860E+02  0.29841331910E+02 -0.58518081095E+03  0.59281842698E+03  0.88724052716E+02 0.  0.
          5    1    3    3  502    0 -0.17316267711E+02  0.24988348936E+02 -0.99049426579E+02  0.10371667954E+03  0.47000000000E+01 0.  1.
         -5    1    3    3    0  502  0.32634336572E+02 -0.54829680847E+02 -0.12481926959E+03  0.14026130574E+03  0.47000000000E+01 0. -1.
          5    1    4    4  503    0  0.22189532648E+02 -0.98331603743E+01 -0.61568035638E+02  0.66345907291E+02  0.47000000000E+01 0. -1.
         -5    1    4    4    0  503 -0.37507601508E+02  0.39674492285E+02 -0.52361277532E+03  0.52647251968E+03  0.47000000000E+01 0.  1.
<mgrwt>
<rscale>  0 0.96455158E+02</rscale>
<asrwt>0</asrwt>
<pdfrwt beam="1">  1        1 0.21343772E-02 0.96995176E+02</pdfrwt>
<pdfrwt beam="2">  1       -1 0.12660354E+00 0.96995176E+02</pdfrwt>
<totfact> 0.30170452E+03</totfact>
</mgrwt>
</event>
<event>
 8    1  0.7366917E-004  0.9645369E+02  0.7546771E-02  0.1294624E+00
         -1   -1    0    0    0  501 -0.00000000000E+00  0.00000000000E+00  0.13648876126E+02  0.13648876126E+02  0.00000000000E+00 0.  1.
          1   -1    0    0  501    0  0.00000000000E+00 -0.00000000000E+00 -0.79796303364E+03  0.79796303364E+03  0.00000000000E+00 0. -1.
         23    2    1    2    0    0 -0.82655530838E+01  0.12910121709E+02 -0.17378299815E+03  0.19350867314E+03  0.83726253502E+02 0.  0.
         23    2    1    2    0    0  0.82655530838E+01 -0.12910121709E+02 -0.61053115937E+03  0.61810323662E+03  0.95227747843E+02 0.  0.
          5    1    3    3  502    0 -0.45467206755E+02  0.10698789106E+02 -0.10789870604E+03  0.11766882231E+03  0.47000000000E+01 0. -1.
         -5    1    3    3    0  502  0.37201653671E+02  0.22113326030E+01 -0.65884292110E+02  0.75839850834E+02  0.47000000000E+01 0.  1.
          5    1    4    4  503    0 -0.95132025245E+01 -0.51046076205E+02 -0.39759112105E+03  0.40099500303E+03  0.47000000000E+01 0. -1.
         -5    1    4    4    0  503  0.17778755608E+02  0.38135954496E+02 -0.21294003832E+03  0.21710823360E+03  0.47000000000E+01 0.  1.
<mgrwt>
<rscale>  0 0.93485555E+02</rscale>
<asrwt>0</asrwt>
<pdfrwt beam="1">  1        1 0.12276354E+00 0.96453691E+02</pdfrwt>
<pdfrwt beam="2">  1       -1 0.20998271E-02 0.96453691E+02</pdfrwt>
<totfact> 0.13737274E+04</totfact>
</mgrwt>
</event>
<event>
 8    1  0.7366917E-004  0.1033939E+03  0.7546771E-02  0.1276283E+00
         -3   -1    0    0    0  501 -0.00000000000E+00  0.00000000000E+00  0.20878255080E+03  0.20878255080E+03  0.00000000000E+00 0.  1.
          3   -1    0    0  501    0  0.00000000000E+00 -0.00000000000E+00 -0.51030810152E+02  0.51030810152E+02  0.00000000000E+00 0. -1.
         23    2    1    2    0    0  0.23006735503E+02 -0.42066057328E+02  0.10618264055E+03  0.14427257278E+03  0.85093824960E+02 0.  0.
         23    2    1    2    0    0 -0.23006735503E+02  0.42066057328E+02  0.51569100103E+02  0.11554078817E+03  0.91604795660E+02 0.  0.
          5    1    3    3  502    0  0.32611612712E+02  0.16932251278E+02  0.48906752354E+02  0.61352904111E+02  0.47000000000E+01 0. -1.
         -5    1    4    4    0  503 -0.42179370212E+02  0.19384678038E+02  0.67077044909E+02  0.81708536689E+02  0.47000000000E+01 0.  1.
          5    1    4    4  503    0  0.19172634709E+02  0.22681379290E+02 -0.15507944806E+02  0.33832251481E+02  0.47000000000E+01 0. -1.
         -5    1    3    3    0  502 -0.96048772083E+01 -0.58998308606E+02  0.57275888194E+02  0.82919668674E+02  0.47000000000E+01 0.  1.
<mgrwt>
<rscale>  0 0.10193276E+03</rscale>
<asrwt>0</asrwt>
<pdfrwt beam="1">  1        3 0.78508940E-02 0.10339391E+03</pdfrwt>
<pdfrwt beam="2">  1       -3 0.32120392E-01 0.10339391E+03</pdfrwt>
<totfact> 0.22617876E+03</totfact>
</mgrwt>
</event>
<event>
 8    1  0.7366917E-004  0.9458990E+02  0.7546771E-02  0.1292942E+00
          2   -1    0    0  501    0  0.00000000000E+00  0.00000000000E+00  0.84237852581E+03  0.84237852581E+03  0.00000000000E+00 0. -1.
         -2   -1    0    0    0  501 -0.00000000000E+00 -0.00000000000E+00 -0.10501948275E+02  0.10501948275E+02  0.00000000000E+00 0.  1.
         23    2    1    2    0    0  0.13134747935E+02 -0.23074642824E+02  0.44710424946E+03  0.45700050280E+03  0.90787052620E+02 0.  0.
         23    2    1    2    0    0 -0.13134747935E+02  0.23074642824E+02  0.38477232807E+03  0.39587997128E+03  0.89253831695E+02 0.  0.
          5    1    3    3  502    0  0.30586051626E+02 -0.51835131607E+02  0.30181129034E+03  0.30778975356E+03  0.47000000000E+01 0. -1.
         -5    1    3    3    0  502 -0.17451303691E+02  0.28760488783E+02  0.14529295912E+03  0.14921074923E+03  0.47000000000E+01 0.  1.
          5    1    4    4  503    0  0.32064371162E+02  0.10299845477E+02  0.26448500315E+03  0.26666199130E+03  0.47000000000E+01 0. -1.
         -5    1    4    4    0  503 -0.45199119097E+02  0.12774797347E+02  0.12028732492E+03  0.12921797999E+03  0.47000000000E+01 0.  1.
<mgrwt>
<rscale>  0 0.94220093E+02</rscale>
<asrwt>0</asrwt>
<pdfrwt beam="1">  1        2 0.12959664E+00 0.94589903E+02</pdfrwt>
<pdfrwt beam="2">  1       -2 0.16156850E-02 0.94589903E+02</pdfrwt>
<totfact> 0.31959587E+04</totfact>
</mgrwt>
</event>
<event>
 8    1  0.7366917E-004  0.1178456E+03  0.7546771E-02  0.1246751E+00
          1   -1    0    0  501    0  0.00000000000E+00  0.00000000000E+00  0.19603538441E+03  0.19603538441E+03  0.00000000000E+00 0. -1.
         -1   -1    0    0    0  501 -0.00000000000E+00 -0.00000000000E+00 -0.70955678564E+02  0.70955678564E+02  0.00000000000E+00 0.  1.
         23    2    1    2    0    0  0.83265729699E+01 -0.75484482485E+02  0.55508236896E+02  0.13014164427E+03  0.89935778728E+02 0.  0.
         23    2    1    2    0    0 -0.83265729699E+01  0.75484482485E+02  0.69571468948E+02  0.13684941871E+03  0.90112902491E+02 0.  0.
          5    1    4    4  502    0  0.29214874053E+02  0.26619477104E+02  0.63244253345E+02  0.74726374249E+02  0.47000000000E+01 0. -1.
         -5    1    3    3    0  503  0.24806921704E+02 -0.27207471330E+02  0.67947332235E+02  0.77424542740E+02  0.47000000000E+01 0.  1.
          5    1    3    3  503    0 -0.16480348734E+02 -0.48277011154E+02 -0.12439095339E+02  0.52717101525E+02  0.47000000000E+01 0. -1.
         -5    1    4    4    0  502 -0.37541447023E+02  0.48865005381E+02  0.63272156032E+01  0.62123044458E+02  0.47000000000E+01 0.  1.
<mgrwt>
<rscale>  0 0.11781169E+03</rscale>
<asrwt>0</asrwt>
<pdfrwt beam="1">  1        1 0.30159290E-01 0.11784555E+03</pdfrwt>
<pdfrwt beam="2">  1       -1 0.10916258E-01 0.11784555E+03</pdfrwt>
<totfact> 0.75025007E+03</totfact>
</mgrwt>
</event>
<event>
 8    1  0.7366917E-004  0.9196444E+02  0.7546771E-02  0.1298958E+00
         -2   -1    0    0    0  501 -0.00000000000E+00  0.00000000000E+00  0.16492256215E+03  0.16492256215E+03  0.00000000000E+00 0.  1.
          2   -1    0    0  501    0  0.00000000000E+00 -0.00000000000E+00 -0.52165174262E+02  0.52165174262E+02  0.00000000000E+00 0. -1.
         23    2    1    2    0    0  0.11729057981E+02 -0.12782692302E+01  0.37600449961E+02  0.99354174704E+02  0.91204459434E+02 0.  0.
         23    2    1    2    0    0 -0.11729057981E+02  0.12782692302E+01  0.75156937930E+02  0.11773356171E+03  0.89852220121E+02 0.  0.
          5    1    4    4  502    0 -0.27246138029E+02  0.19712161932E+02 -0.46162426943E+01  0.34268368245E+02  0.47000000000E+01 0. -1.
         -5    1    3    3    0  503  0.21802031459E+02  0.37167452978E+02  0.40376504450E+02  0.59237659037E+02  0.47000000000E+01 0.  1.
          5    1    3    3  503    0 -0.10072973478E+02 -0.38445722208E+02 -0.27760544890E+01  0.40116515667E+02  0.47000000000E+01 0. -1.
         -5    1    4    4    0  502  0.15517080048E+02 -0.18433892702E+02  0.79773180624E+02  0.83465193466E+02  0.47000000000E+01 0.  1.
<mgrwt>
<rscale>  0 0.91627367E+02</rscale>
<asrwt>0</asrwt>
<pdfrwt beam="1">  1        2 0.80254115E-02 0.91964440E+02</pdfrwt>
<pdfrwt beam="2">  1       -2 0.25372702E-01 0.91964440E+02</pdfrwt>
<totfact> 0.10577548E+04</totfact>
</mgrwt>
</event>
<event>
 8    1  0.7366917E-004  0.8869240E+02  0.7546771E-02  0.1313023E+00
          1   -1    0    0  501    0  0.00000000000E+00  0.00000000000E+00  0.55398355278E+03  0.55398355278E+03  0.00000000000E+00 0. -1.
         -1   -1    0    0    0  501 -0.00000000000E+00 -0.00000000000E+00 -0.16071839376E+02  0.16071839376E+02  0.00000000000E+00 0.  1.
         23    2    1    2    0    0  0.11524802399E+02 -0.16093046411E+02  0.14923502502E+03  0.17360136603E+03  0.86455389541E+02 0.  0.
         23    2    1    2    0    0 -0.11524802399E+02  0.16093046411E+02  0.38867668838E+03  0.39645402613E+03  0.75593779687E+02 0.  0.
          5    1    3    3  502    0  0.31577211014E+02  0.83353626473E+01  0.13436799470E+03  0.13835984434E+03  0.47000000000E+01 0. -1.
         -5    1    4    4    0  503 -0.36850430964E+02 -0.33518742965E+01  0.11540352688E+03  0.12128171065E+03  0.47000000000E+01 0.  1.
          5    1    4    4  503    0  0.25325628565E+02  0.19444920707E+02  0.27327316151E+03  0.27517231547E+03  0.47000000000E+01 0. -1.
         -5    1    3    3    0  502 -0.20052408615E+02 -0.24428409058E+02  0.14867030321E+02  0.35241521689E+02  0.47000000000E+01 0.  1.
<mgrwt>
<rscale>  0 0.85928339E+02</rscale>
<asrwt>0</asrwt>
<pdfrwt beam="1">  1        1 0.85228224E-01 0.88692399E+02</pdfrwt>
<pdfrwt beam="2">  1       -1 0.24725911E-02 0.88692399E+02</pdfrwt>
<totfact> 0.17907599E+04</totfact>
</mgrwt>
</event>
<event>
 8    1  0.7366917E-004  0.9181332E+02  0.7546771E-02  0.1298684E+00
          3   -1    0    0  501    0  0.00000000000E+00  0.00000000000E+00  0.53501433834E+02  0.53501433834E+02  0.00000000000E+00 0. -1.
         -3   -1    0    0    0  501 -0.00000000000E+00 -0.00000000000E+00 -0.29993684148E+03  0.29993684148E+03  0.00000000000E+00 0.  1.
         23    2    1    2    0    0 -0.11576024351E+02  0.54435919502E+01 -0.11590108926E+01  0.91540974151E+02  0.90635366217E+02 0.  0.
         23    2    1    2    0    0  0.11576024351E+02 -0.54435919502E+01 -0.24527639676E+03  0.26189730117E+03  0.90917811890E+02 0.  0.
          5    1    3    3  502    0  0.23327035661E+02 -0.25907316724E+02  0.19321689548E+02  0.40134241485E+02  0.47000000000E+01 0. -1.
         -5    1    4    4    0  503 -0.15862766627E+02  0.37291230601E+02 -0.10669859608E+03  0.11423197298E+03  0.47000000000E+01 0.  1.
          5    1    4    4  503    0  0.27438790978E+02 -0.42734822551E+02 -0.13857780067E+03  0.14766532819E+03  0.47000000000E+01 0. -1.
         -5    1    3    3    0  502 -0.34903060012E+02  0.31350908674E+02 -0.20480700441E+02  0.51406732666E+02  0.47000000000E+01 0.  1.
<mgrwt>
<rscale>  0 0.91743318E+02</rscale>
<asrwt>0</asrwt>
<pdfrwt beam="1">  1        3 0.82309900E-02 0.91813319E+02</pdfrwt>
<pdfrwt beam="2">  1       -3 0.46144129E-01 0.91813319E+02</pdfrwt>
<totfact> 0.10287473E+03</totfact>
</mgrwt>
</event>
<event>
 8    1  0.7366917E-004  0.1300683E+03  0.7546771E-02  0.1227825E+00
          1   -1    0    0  501    0  0.00000000000E+00  0.00000000000E+00  0.75841714861E+03  0.75841714861E+03  0.00000000000E+00 0. -1.
         -1   -1    0    0    0  501 -0.00000000000E+00 -0.00000000000E+00 -0.26365996327E+02  0.26365996327E+02  0.00000000000E+00 0.  1.
         23    2    1    2    0    0 -0.91499987367E+02  0.41253486812E+01  0.20651824749E+03  0.24339363462E+03  0.90561628947E+02 0.  0.
         23    2    1    2    0    0  0.91499987367E+02 -0.41253486812E+01  0.52553290479E+03  0.54138951031E+03  0.92349887223E+02 0.  0.
          5    1    4    4  502    0  0.23692352356E+02 -0.44058010256E+02  0.17291590889E+03  0.18006786881E+03  0.47000000000E+01 0. -1.
         -5    1    3    3    0  503  0.84257853183E+01  0.24509030639E+02  0.35218531228E+02  0.43978646898E+02  0.47000000000E+01 0.  1.
          5    1    3    3  503    0 -0.99925772685E+02 -0.20383681958E+02  0.17129971626E+03  0.19941498772E+03  0.47000000000E+01 0. -1.
         -5    1    4    4    0  502  0.67807635011E+02  0.39932661575E+02  0.35261699589E+03  0.36132164150E+03  0.47000000000E+01 0.  1.
<mgrwt>
<rscale>  0 0.12975128E+03</rscale>
<asrwt>0</asrwt>
<pdfrwt beam="1">  1        1 0.11667954E+00 0.13006832E+03</pdfrwt>
<pdfrwt beam="2">  1       -1 0.40563077E-02 0.13006832E+03</pdfrwt>
<totfact> 0.58197294E+03</totfact>
</mgrwt>
</event>
<event>
 8    1  0.7366917E-004  0.2744105E+03  0.7546771E-02  0.1100270E+00
          1   -1    0    0  501    0  0.00000000000E+00  0.00000000000E+00  0.82165173729E+03  0.82165173729E+03  0.00000000000E+00 0. -1.
         -1   -1    0    0    0  501 -0.00000000000E+00 -0.00000000000E+00 -0.95538365570E+02  0.95538365570E+02  0.00000000000E+00 0.  1.
         23    2    1    2    0    0  0.23309694654E+03 -0.83231423684E+02  0.48362187093E+03  0.55098900269E+03  0.91853746056E+02 0.  0.
         23    2    1    2    0    0 -0.23309694654E+03  0.83231423684E+02  0.24249150079E+03  0.36620110018E+03  0.11848823334E+03 0.  0.
          5    1    3    3  502    0  0.20659605971E+03 -0.98068448686E+02  0.38643318373E+03  0.44905684273E+03  0.47000000000E+01 0. -1.
         -5    1    4    4    0  503 -0.21873347201E+03  0.38864022859E+02  0.16958495824E+03  0.27952798091E+03  0.47000000000E+01 0.  1.
          5    1    4    4  503    0 -0.14363474527E+02  0.44367400825E+02  0.72906542546E+02  0.86673119261E+02  0.47000000000E+01 0. -1.
         -5    1    3    3    0  502  0.26500886833E+02  0.14837025002E+02  0.97188687200E+02  0.10193215996E+03  0.47000000000E+01 0.  1.
<mgrwt>
<rscale>  0 0.27177135E+03</rscale>
<asrwt>0</asrwt>
<pdfrwt beam="1">  1        1 0.12640795E+00 0.27441049E+03</pdfrwt>
<pdfrwt beam="2">  1       -1 0.14698211E-01 0.27441049E+03</pdfrwt>
<totfact> 0.73602914E+02</totfact>
</mgrwt>
</event>
<event>
 8    1  0.7366917E-004  0.1866685E+03  0.7546771E-02  0.1161654E+00
          1   -1    0    0  501    0  0.00000000000E+00  0.00000000000E+00  0.18169762027E+03  0.18169762027E+03  0.00000000000E+00 0. -1.
         -1   -1    0    0    0  501 -0.00000000000E+00 -0.00000000000E+00 -0.24762687819E+03  0.24762687819E+03  0.00000000000E+00 0.  1.
         23    2    1    2    0    0 -0.52120041129E+02 -0.15513158101E+03  0.69554130454E+02  0.19920572350E+03  0.89793302088E+02 0.  0.
         23    2    1    2    0    0  0.52120041129E+02  0.15513158101E+03 -0.13548338837E+03  0.23011877496E+03  0.88411514800E+02 0.  0.
          5    1    3    3  502    0 -0.25731591328E+02 -0.87141875978E+02  0.84997992247E+02  0.12450931703E+03  0.47000000000E+01 0. -1.
         -5    1    3    3    0  502 -0.26388449801E+02 -0.67989705030E+02 -0.15443861793E+02  0.74696406474E+02  0.47000000000E+01 0.  1.
          5    1    4    4  503    0 -0.86707780261E+01  0.25126933729E+02 -0.64539082976E+02  0.69956618140E+02  0.47000000000E+01 0. -1.
         -5    1    4    4    0  503  0.60790819155E+02  0.13000464728E+03 -0.70944305393E+02  0.16016215682E+03  0.47000000000E+01 0.  1.
<mgrwt>
<rscale>  0 0.18650313E+03</rscale>
<asrwt>0</asrwt>
<pdfrwt beam="1">  1        1 0.27953480E-01 0.18666854E+03</pdfrwt>
<pdfrwt beam="2">  1       -1 0.38096443E-01 0.18666854E+03</pdfrwt>
<totfact> 0.11104290E+03</totfact>
</mgrwt>
</event>
<event>
 8    1  0.7366917E-004  0.9227446E+02  0.7546771E-02  0.1299117E+00
         -2   -1    0    0    0  501 -0.00000000000E+00  0.00000000000E+00  0.28176219230E+02  0.28176219230E+02  0.00000000000E+00 0.  1.
          2   -1    0    0  501    0  0.00000000000E+00 -0.00000000000E+00 -0.37601614132E+03  0.37601614132E+03  0.00000000000E+00 0. -1.
         23    2    1    2    0    0  0.13866633571E+02 -0.12273044039E+02 -0.81082022000E+02  0.12283676509E+03  0.90397264498E+02 0.  0.
         23    2    1    2    0    0 -0.13866633571E+02  0.12273044039E+02 -0.26675790009E+03  0.28135559546E+03  0.87511614667E+02 0.  0.
          5    1    3    3  502    0  0.32554125406E+02  0.10050228729E+02 -0.86289311470E+02  0.92890868510E+02  0.47000000000E+01 0. -1.
         -5    1    3    3    0  502 -0.18687491835E+02 -0.22323272768E+02  0.52072894702E+01  0.29945896577E+02  0.47000000000E+01 0.  1.
          5    1    4    4  503    0  0.19516847615E+02  0.38139091229E+02 -0.17511053047E+03  0.18033658947E+03  0.47000000000E+01 0. -1.
         -5    1    4    4    0  503 -0.33383481186E+02 -0.25866047191E+02 -0.91647369618E+02  0.10101900599E+03  0.47000000000E+01 0.  1.
<mgrwt>
<rscale>  0 0.91559939E+02</rscale>
<asrwt>0</asrwt>
<pdfrwt beam="1">  1        2 0.57848638E-01 0.92274463E+02</pdfrwt>
<pdfrwt beam="2">  1       -2 0.43348029E-02 0.92274463E+02</pdfrwt>
<totfact> 0.18791803E+04</totfact>
</mgrwt>
</event>
<event>
 8    1  0.7366917E-004  0.1107366E+03  0.7546771E-02  0.1260238E+00
          2   -1    0    0  501    0  0.00000000000E+00  0.00000000000E+00  0.46497999298E+03  0.46497999298E+03  0.00000000000E+00 0. -1.
         -2   -1    0    0    0  501 -0.00000000000E+00 -0.00000000000E+00 -0.26805949334E+02  0.26805949334E+02  0.00000000000E+00 0.  1.
         23    2    1    2    0    0  0.34140742218E+02 -0.46469103296E+02  0.17047814182E+03  0.20209008641E+03  0.91938231142E+02 0.  0.
         23    2    1    2    0    0 -0.34140742218E+02  0.46469103296E+02  0.26769590183E+03  0.28969585591E+03  0.94539014349E+02 0.  0.
          5    1    3    3  502    0  0.13345136473E+02 -0.22480065335E+02  0.16779479357E+03  0.16988416275E+03  0.47000000000E+01 0. -1.
         -5    1    4    4    0  503 -0.47089594053E+02  0.20626861578E+01  0.57889331212E+02  0.74799393115E+02  0.47000000000E+01 0.  1.
          5    1    4    4  503    0  0.12948851835E+02  0.44406417138E+02  0.20980657062E+03  0.21489646279E+03  0.47000000000E+01 0. -1.
         -5    1    3    3    0  502  0.20795605745E+02 -0.23989037961E+02  0.26833482484E+01  0.32205923654E+02  0.47000000000E+01 0.  1.
<mgrwt>
<rscale>  0 0.11017942E+03</rscale>
<asrwt>0</asrwt>
<pdfrwt beam="1">  1        2 0.71535377E-01 0.11073659E+03</pdfrwt>
<pdfrwt beam="2">  1       -2 0.41239926E-02 0.11073659E+03</pdfrwt>
<totfact> 0.16425249E+04</totfact>
</mgrwt>
</event>
<event>
 8    1  0.7366917E-004  0.1032543E+03  0.7546771E-02  0.1274817E+00
         -2   -1    0    0    0  501 -0.00000000000E+00  0.00000000000E+00  0.14981509861E+02  0.14981509861E+02  0.00000000000E+00 0.  1.
          2   -1    0    0  501    0  0.00000000000E+00 -0.00000000000E+00 -0.88726733526E+03  0.88726733526E+03  0.00000000000E+00 0. -1.
         23    2    1    2    0    0 -0.21195164783E+02  0.39025917928E+02 -0.22229632882E+03  0.24410919980E+03  0.90561505831E+02 0.  0.
         23    2    1    2    0    0  0.21195164783E+02 -0.39025917928E+02 -0.64998949657E+03  0.65813964532E+03  0.93215823782E+02 0.  0.
          5    1    3    3  502    0 -0.18491002805E+01 -0.27470993878E+02 -0.96166287976E+02  0.10014049940E+03  0.47000000000E+01 0. -1.
         -5    1    3    3    0  502 -0.19346064502E+02  0.66496911806E+02 -0.12613004085E+03  0.14396870040E+03  0.47000000000E+01 0.  1.
          5    1    4    4  503    0 -0.68946621599E+01 -0.58081612044E+02 -0.53342391379E+03  0.53664156737E+03  0.47000000000E+01 0. -1.
         -5    1    4    4    0  503  0.28089826943E+02  0.19055694116E+02 -0.11656558278E+03  0.12149807795E+03  0.47000000000E+01 0.  1.
<mgrwt>
<rscale>  0 0.10265158E+03</rscale>
<asrwt>0</asrwt>
<pdfrwt beam="1">  1        2 0.13650270E+00 0.10325428E+03</pdfrwt>
<pdfrwt beam="2">  1       -2 0.23048471E-02 0.10325428E+03</pdfrwt>
<totfact> 0.18096498E+04</totfact>
</mgrwt>
</event>
<event>
 8    1  0.7366917E-004  0.9779764E+02  0.7546771E-02  0.1285824E+00
         -1   -1    0    0    0  501 -0.00000000000E+00  0.00000000000E+00  0.34450336736E+02  0.34450336736E+02  0.00000000000E+00 0.  1.
          1   -1    0    0  501    0  0.00000000000E+00 -0.00000000000E+00 -0.34931852342E+03  0.34931852342E+03  0.00000000000E+00 0. -1.
         23    2    1    2    0    0  0.26821609789E+02  0.10155016696E+01 -0.68911078658E+02  0.11963743585E+03  0.94042273997E+02 0.  0.
         23    2    1    2    0    0 -0.26821609789E+02 -0.10155016696E+01 -0.24595710802E+03  0.26413142431E+03  0.92466644390E+02 0.  0.
          5    1    4    4  502    0 -0.53000202231E+02 -0.14552190194E+02 -0.21136613556E+03  0.21844569334E+03  0.47000000000E+01 0. -1.
         -5    1    3    3    0  503  0.60239548118E+02 -0.31754836495E+01 -0.28678419592E+02  0.66958409510E+02  0.47000000000E+01 0.  1.
          5    1    3    3  503    0 -0.33417938329E+02  0.41909853190E+01 -0.40232659066E+02  0.52679026335E+02  0.47000000000E+01 0. -1.
         -5    1    4    4    0  502  0.26178592442E+02  0.13536688525E+02 -0.34590972464E+02  0.45685730972E+02  0.47000000000E+01 0.  1.
<mgrwt>
<rscale>  0 0.97416888E+02</rscale>
<asrwt>0</asrwt>
<pdfrwt beam="1">  1        1 0.53741314E-01 0.97797645E+02</pdfrwt>
<pdfrwt beam="2">  1       -1 0.53000515E-02 0.97797645E+02</pdfrwt>
<totfact> 0.10712640E+04</totfact>
</mgrwt>
</event>
<event>
 8    1  0.7366917E-004  0.9876460E+02  0.7546771E-02  0.1286624E+00
         -3   -1    0    0    0  501 -0.00000000000E+00  0.00000000000E+00  0.16981049971E+02  0.16981049971E+02  0.00000000000E+00 0.  1.
          3   -1    0    0  501    0  0.00000000000E+00 -0.00000000000E+00 -0.54572541948E+03  0.54572541948E+03  0.00000000000E+00 0. -1.
         23    2    1    2    0    0  0.10582138787E+02 -0.18372684242E+02 -0.21818922778E+03  0.23682467901E+03  0.89609443028E+02 0.  0.
         23    2    1    2    0    0 -0.10582138787E+02  0.18372684242E+02 -0.31055514173E+03  0.32588179044E+03  0.96461951574E+02 0.  0.
          5    1    3    3  502    0 -0.38704967709E+02 -0.24413445647E+01 -0.76633370764E+02  0.86016267085E+02  0.47000000000E+01 0. -1.
         -5    1    4    4    0  503 -0.13328588930E+02 -0.22806583873E+02 -0.22992448950E+02  0.35334604279E+02  0.47000000000E+01 0.  1.
          5    1    4    4  503    0  0.27464501426E+01  0.41179268115E+02 -0.28756269278E+03  0.29054718616E+03  0.47000000000E+01 0. -1.
         -5    1    3    3    0  502  0.49287106496E+02 -0.15931339678E+02 -0.14155585702E+03  0.15080841193E+03  0.47000000000E+01 0.  1.
<mgrwt>
<rscale>  0 0.97050223E+02</rscale>
<asrwt>0</asrwt>
<pdfrwt beam="1">  1        3 0.83957765E-01 0.98764595E+02</pdfrwt>
<pdfrwt beam="2">  1       -3 0.26124690E-02 0.98764595E+02</pdfrwt>
<totfact> 0.18368254E+03</totfact>
</mgrwt>
</event>
<event>
 8    1  0.7366917E-004  0.9068275E+02  0.7546771E-02  0.1301893E+00
          3   -1    0    0  501    0  0.00000000000E+00  0.00000000000E+00  0.20505578805E+02  0.20505578805E+02  0.00000000000E+00 0. -1.
         -3   -1    0    0    0  501 -0.00000000000E+00 -0.00000000000E+00 -0.39613885110E+03  0.39613885110E+03  0.00000000000E+00 0.  1.
         23    2    1    2    0    0  0.72239117814E+01  0.51271461137E+00 -0.18536302381E+03  0.20635603308E+03  0.90393108217E+02 0.  0.
         23    2    1    2    0    0 -0.72239117814E+01 -0.51271461137E+00 -0.19027024848E+03  0.21028839683E+03  0.89252420720E+02 0.  0.
          5    1    3    3  502    0  0.29541885082E+02  0.30537389348E+02 -0.49719703459E+02  0.65569764636E+02  0.47000000000E+01 0. -1.
         -5    1    4    4    0  503 -0.34267029241E+02  0.29826464005E+02 -0.12679893235E+03  0.13477353781E+03  0.47000000000E+01 0.  1.
          5    1    4    4  503    0  0.27043117459E+02 -0.30339178616E+02 -0.63471316131E+02  0.75514859017E+02  0.47000000000E+01 0. -1.
         -5    1    3    3    0  502 -0.22317973301E+02 -0.30024674737E+02 -0.13564332035E+03  0.14078626844E+03  0.47000000000E+01 0.  1.
<mgrwt>
<rscale>  0 0.90397158E+02</rscale>
<asrwt>0</asrwt>
<pdfrwt beam="1">  1        3 0.31547046E-02 0.90682754E+02</pdfrwt>
<pdfrwt beam="2">  1       -3 0.60944436E-01 0.90682754E+02</pdfrwt>
<totfact> 0.26552413E+03</totfact>
</mgrwt>
</event>
<event>
 8    1  0.7366917E-004  0.1028448E+03  0.7546771E-02  0.1274964E+00
         -1   -1    0    0    0  501 -0.00000000000E+00  0.00000000000E+00  0.20304947274E+02  0.20304947274E+02  0.00000000000E+00 0.  1.
          1   -1    0    0  501    0  0.00000000000E+00 -0.00000000000E+00 -0.87572974604E+03  0.87572974604E+03  0.00000000000E+00 0. -1.
         23    2    1    2    0    0 -0.11050620893E+02  0.44855818627E+02 -0.14169990163E+03  0.17508830116E+03  0.91885202270E+02 0.  0.
         23    2    1    2    0    0  0.11050620893E+02 -0.44855818627E+02 -0.71372489714E+03  0.72094639215E+03  0.90699012514E+02 0.  0.
          5    1    4    4  502    0  0.25209892077E+02 -0.63717361489E+02 -0.63300236576E+03  0.63671777568E+03  0.47000000000E+01 0. -1.
         -5    1    4    4    0  502 -0.14159271184E+02  0.18861542862E+02 -0.80722531381E+02  0.84228616469E+02  0.47000000000E+01 0.  1.
          5    1    3    3  503    0  0.20829749058E+02 -0.66338803665E+01 -0.97332658227E+02  0.99868028778E+02  0.47000000000E+01 0. -1.
         -5    1    3    3    0  503 -0.31880369951E+02  0.51489698994E+02 -0.44367243399E+02  0.75220272383E+02  0.47000000000E+01 0.  1.
<mgrwt>
<rscale>  0 0.10257917E+03</rscale>
<asrwt>0</asrwt>
<pdfrwt beam="1">  1        1 0.13472765E+00 0.10284479E+03</pdfrwt>
<pdfrwt beam="2">  1       -1 0.31238382E-02 0.10284479E+03</pdfrwt>
<totfact> 0.67664906E+03</totfact>
</mgrwt>
</event>
<event>
 8    1  0.7366917E-004  0.1286934E+03  0.7546771E-02  0.1229443E+00
          2   -1    0    0  501    0  0.00000000000E+00  0.00000000000E+00  0.44451124886E+03  0.44451124886E+03  0.00000000000E+00 0. -1.
         -2   -1    0    0    0  501 -0.00000000000E+00 -0.00000000000E+00 -0.39029556659E+02  0.39029556659E+02  0.00000000000E+00 0.  1.
         23    2    1    2    0    0  0.18052576376E+02 -0.89939912520E+02  0.15077554931E+03  0.19816874924E+03  0.90124932885E+02 0.  0.
         23    2    1    2    0    0 -0.18052576376E+02  0.89939912520E+02  0.25470614289E+03  0.28537205628E+03  0.90260223248E+02 0.  0.
          5    1    4    4  502    0 -0.41783878185E+02  0.90556249137E+02  0.16874695734E+03  0.19607129404E+03  0.47000000000E+01 0. -1.
         -5    1    3    3    0  503  0.28437445167E+02 -0.11916372254E+01  0.84615039938E+01  0.30063189064E+02  0.47000000000E+01 0.  1.
          5    1    3    3  503    0 -0.10384868790E+02 -0.88748275294E+02  0.14231404532E+03  0.16810556018E+03  0.47000000000E+01 0. -1.
         -5    1    4    4    0  502  0.23731301809E+02 -0.61633661718E+00  0.85959185553E+02  0.89300762243E+02  0.47000000000E+01 0.  1.
<mgrwt>
<rscale>  0 0.12866968E+03</rscale>
<asrwt>0</asrwt>
<pdfrwt beam="1">  1        2 0.68386342E-01 0.12869340E+03</pdfrwt>
<pdfrwt beam="2">  1       -2 0.60045475E-02 0.12869340E+03</pdfrwt>
<totfact> 0.99453451E+03</totfact>
</mgrwt>
</event>
<event>
 8    1  0.7366917E-004  0.1180831E+03  0.7546771E-02  0.1246466E+00
         -2   -1    0    0    0  501 -0.00000000000E+00  0.00000000000E+00  0.23145054078E+02  0.23145054078E+02  0.00000000000E+00 0.  1.
          2   -1    0    0  501    0  0.00000000000E+00 -0.00000000000E+00 -0.65670206977E+03  0.65670206977E+03  0.00000000000E+00 0. -1.
         23    2    1    2    0    0  0.74472653575E+02 -0.73585802860E+01 -0.21670507992E+03  0.24659298633E+03  0.90811257083E+02 0.  0.
         23    2    1    2    0    0 -0.74472653575E+02  0.73585802860E+01 -0.41685193578E+03  0.43325413752E+03  0.91341592271E+02 0.  0.
          5    1    3    3  502    0  0.33785780755E+01 -0.37471431283E+02 -0.96154072258E+02  0.10335965637E+03  0.47000000000E+01 0. -1.
         -5    1    4    4    0  503  0.17599715673E+02 -0.10403388836E+02 -0.12274822083E+03  0.12452789329E+03  0.47000000000E+01 0.  1.
          5    1    4    4  503    0 -0.92072369248E+02  0.17761969122E+02 -0.29410371495E+03  0.30872624422E+03  0.47000000000E+01 0. -1.
         -5    1    3    3    0  502  0.71094075499E+02  0.30112850997E+02 -0.12055100766E+03  0.14323332997E+03  0.47000000000E+01 0.  1.
<mgrwt>
<rscale>  0 0.11798050E+03</rscale>
<asrwt>0</asrwt>
<pdfrwt beam="1">  1        2 0.10103110E+00 0.11808307E+03</pdfrwt>
<pdfrwt beam="2">  1       -2 0.35607771E-02 0.11808307E+03</pdfrwt>
<totfact> 0.13968089E+04</totfact>
</mgrwt>
</event>
<event>
 8    1  0.7366917E-004  0.1161324E+03  0.7546771E-02  0.1249737E+00
         -2   -1    0    0    0  501 -0.00000000000E+00  0.00000000000E+00  0.12317611582E+02  0.12317611582E+02  0.00000000000E+00 0.  1.
          2   -1    0    0  501    0  0.00000000000E+00 -0.00000000000E+00 -0.12963852531E+04  0.12963852531E+04  0.00000000000E+00 0. -1.
         23    2    1    2    0    0 -0.68566993016E+02  0.54007248098E+01 -0.90230705887E+03  0.90974983221E+03  0.93574186388E+02 0.  0.
         23    2    1    2    0    0  0.68566993016E+02 -0.54007248098E+01 -0.38176058263E+03  0.39895303246E+03  0.93229712513E+02 0.  0.
          5    1    3    3  502    0 -0.89261492357E+02  0.14370879266E+02 -0.78486761512E+03  0.79007176855E+03  0.47000000000E+01 0. -1.
         -5    1    4    4    0  503  0.80794468185E+02  0.15990009815E+02 -0.34302432636E+03  0.35280476893E+03  0.47000000000E+01 0.  1.
          5    1    4    4  503    0 -0.12227475170E+02 -0.21390734624E+02 -0.38736256273E+02  0.46148263530E+02  0.47000000000E+01 0. -1.
         -5    1    3    3    0  502  0.20694499341E+02 -0.89701544558E+01 -0.11743944375E+03  0.11967806366E+03  0.47000000000E+01 0.  1.
<mgrwt>
<rscale>  0 0.11606297E+03</rscale>
<asrwt>0</asrwt>
<pdfrwt beam="1">  1        2 0.19944392E+00 0.11613238E+03</pdfrwt>
<pdfrwt beam="2">  1       -2 0.18950168E-02 0.11613238E+03</pdfrwt>
<totfact> 0.14117400E+04</totfact>
</mgrwt>
</event>
<event>
 8    1  0.7366917E-004  0.9697286E+02  0.7546771E-02  0.1287385E+00
         -3   -1    0    0    0  501 -0.00000000000E+00  0.00000000000E+00  0.16544734246E+03  0.16544734246E+03  0.00000000000E+00 0.  1.
          3   -1    0    0  501    0  0.00000000000E+00 -0.00000000000E+00 -0.74772870117E+02  0.74772870117E+02  0.00000000000E+00 0. -1.
         23    2    1    2    0    0  0.13318980610E+02 -0.21871864198E+02  0.10499075468E+03  0.14219628126E+03  0.92417261093E+02 0.  0.
         23    2    1    2    0    0 -0.13318980610E+02  0.21871864198E+02 -0.14316282345E+02  0.98023931310E+02  0.93530537694E+02 0.  0.
          5    1    4    4  502    0 -0.50458776546E+02  0.22682080846E+02  0.52606481756E+01  0.55770326709E+02  0.47000000000E+01 0. -1.
         -5    1    3    3    0  503  0.88091972237E+01  0.19904366257E+02  0.96545238210E+02  0.99080062439E+02  0.47000000000E+01 0.  1.
          5    1    3    3  503    0  0.45097833862E+01 -0.41776230454E+02  0.84455164738E+01  0.43116218824E+02  0.47000000000E+01 0. -1.
         -5    1    4    4    0  502  0.37139795936E+02 -0.81021664856E+00 -0.19576930520E+02  0.42253604601E+02  0.47000000000E+01 0.  1.
<mgrwt>
<rscale>  0 0.96703410E+02</rscale>
<asrwt>0</asrwt>
<pdfrwt beam="1">  1        3 0.11503519E-01 0.96972858E+02</pdfrwt>
<pdfrwt beam="2">  1       -3 0.25453437E-01 0.96972858E+02</pdfrwt>
<totfact> 0.18286527E+03</totfact>
</mgrwt>
</event>
<event>
 8    1  0.7366917E-004  0.9603340E+02  0.7546771E-02  0.1289112E+00
         -1   -1    0    0    0  501 -0.00000000000E+00  0.00000000000E+00  0.10405377202E+03  0.10405377202E+03  0.00000000000E+00 0.  1.
          1   -1    0    0  501    0  0.00000000000E+00 -0.00000000000E+00 -0.36305172832E+03  0.36305172832E+03  0.00000000000E+00 0. -1.
         23    2    1    2    0    0 -0.19877753559E+02 -0.16901421552E+02  0.73777638137E+02  0.12075017664E+03  0.91960220386E+02 0.  0.
         23    2    1    2    0    0  0.19877753559E+02  0.16901421552E+02 -0.33277559444E+03  0.34635532369E+03  0.92420943817E+02 0.  0.
          5    1    3    3  502    0  0.25281579356E+02 -0.21850047377E+02 -0.27568820299E+00  0.33745352704E+02  0.47000000000E+01 0. -1.
         -5    1    4    4    0  503 -0.30245698832E+02  0.30356355200E+02 -0.17332438435E+03  0.17860499100E+03  0.47000000000E+01 0.  1.
          5    1    4    4  503    0  0.50123452391E+02 -0.13454933649E+02 -0.15945121009E+03  0.16775033269E+03  0.47000000000E+01 0. -1.
         -5    1    3    3    0  502 -0.45159332915E+02  0.49486258248E+01  0.74053326340E+02  0.87004823941E+02  0.47000000000E+01 0.  1.
<mgrwt>
<rscale>  0 0.95922380E+02</rscale>
<asrwt>0</asrwt>
<pdfrwt beam="1">  1        1 0.55854112E-01 0.96033400E+02</pdfrwt>
<pdfrwt beam="2">  1       -1 0.16008273E-01 0.96033400E+02</pdfrwt>
<totfact> 0.19250326E+03</totfact>
</mgrwt>
</event>
<event>
 8    1  0.7366917E-004  0.9772779E+02  0.7546771E-02  0.1287838E+00
          1   -1    0    0  501    0  0.00000000000E+00  0.00000000000E+00  0.25679988746E+02  0.25679988746E+02  0.00000000000E+00 0. -1.
         -1   -1    0    0    0  501 -0.00000000000E+00 -0.00000000000E+00 -0.35380272315E+03  0.35380272315E+03  0.00000000000E+00 0.  1.
         23    2    1    2    0    0  0.94731842249E+01 -0.14710656762E+02 -0.17007509863E+03  0.19615366223E+03  0.96148714979E+02 0.  0.
         23    2    1    2    0    0 -0.94731842249E+01  0.14710656762E+02 -0.15804763577E+03  0.18332904966E+03  0.91237824580E+02 0.  0.
          5    1    3    3  502    0  0.36903347754E+02  0.18719122300E+02 -0.13176835782E+03  0.13819281001E+03  0.47000000000E+01 0. -1.
         -5    1    3    3    0  502 -0.27430163529E+02 -0.33429779062E+02 -0.38306740811E+02  0.57960852228E+02  0.47000000000E+01 0.  1.
          5    1    4    4  503    0  0.16792753616E+02  0.11183986759E+02  0.22036054521E+01  0.20833242926E+02  0.47000000000E+01 0. -1.
         -5    1    4    4    0  503 -0.26265937841E+02  0.35266700036E+01 -0.16025124123E+03  0.16249580673E+03  0.47000000000E+01 0.  1.
<mgrwt>
<rscale>  0 0.96497918E+02</rscale>
<asrwt>0</asrwt>
<pdfrwt beam="1">  1        1 0.39507677E-02 0.97727785E+02</pdfrwt>
<pdfrwt beam="2">  1       -1 0.54431185E-01 0.97727785E+02</pdfrwt>
<totfact> 0.74565102E+03</totfact>
</mgrwt>
</event>
<event>
 8    1  0.7366917E-004  0.1163550E+03  0.7546771E-02  0.1259330E+00
          1   -1    0    0  501    0  0.00000000000E+00  0.00000000000E+00  0.46337277445E+03  0.46337277445E+03  0.00000000000E+00 0. -1.
         -1   -1    0    0    0  501 -0.00000000000E+00 -0.00000000000E+00 -0.46110831290E+02  0.46110831290E+02  0.00000000000E+00 0.  1.
         23    2    1    2    0    0 -0.37288657044E+02 -0.62365261824E+01  0.39486318946E+03  0.41164963362E+03  0.11004155701E+03 0.  0.
         23    2    1    2    0    0  0.37288657044E+02  0.62365261824E+01  0.22398753699E+02  0.97833972116E+02  0.87409631791E+02 0.  0.
          5    1    4    4  502    0 -0.19570704920E+02 -0.23398995708E+02  0.91473228630E+01  0.32191443068E+02  0.47000000000E+01 0. -1.
         -5    1    3    3    0  503  0.23280819973E+02 -0.29569426042E+02  0.63562997796E+02  0.74018188467E+02  0.47000000000E+01 0.  1.
          5    1    3    3  503    0 -0.60569477017E+02  0.23332899860E+02  0.33130019167E+03  0.33763144516E+03  0.47000000000E+01 0. -1.
         -5    1    4    4    0  502  0.56859361964E+02  0.29635521890E+02  0.13251430836E+02  0.65642529048E+02  0.47000000000E+01 0.  1.
<mgrwt>
<rscale>  0 0.11067215E+03</rscale>
<asrwt>0</asrwt>
<pdfrwt beam="1">  1        1 0.71288116E-01 0.11635498E+03</pdfrwt>
<pdfrwt beam="2">  1       -1 0.70939744E-02 0.11635498E+03</pdfrwt>
<totfact> 0.49425274E+03</totfact>
</mgrwt>
</event>
<event>
 8    1  0.7366917E-004  0.9320237E+02  0.7546771E-02  0.1296726E+00
          4   -1    0    0  501    0  0.00000000000E+00  0.00000000000E+00  0.16286546180E+03  0.16286546180E+03  0.00000000000E+00 0. -1.
         -4   -1    0    0    0  501 -0.00000000000E+00 -0.00000000000E+00 -0.83362779308E+02  0.83362779308E+02  0.00000000000E+00 0.  1.
         23    2    1    2    0    0 -0.19271857727E+02  0.54892135505E+01 -0.36175027877E+02  0.97675170880E+02  0.88488815106E+02 0.  0.
         23    2    1    2    0    0  0.19271857727E+02 -0.54892135505E+01  0.11567771036E+03  0.14855307023E+03  0.91022777547E+02 0.  0.
          5    1    3    3  502    0 -0.11060350222E+02  0.31288708053E+02  0.17176782686E+02  0.37662268414E+02  0.47000000000E+01 0. -1.
         -5    1    4    4    0  503 -0.30973878910E+02 -0.15294779020E+02  0.20673420593E+02  0.40531367593E+02  0.47000000000E+01 0.  1.
          5    1    4    4  503    0  0.50245736637E+02  0.98055654695E+01  0.95004289772E+02  0.10802170263E+03  0.47000000000E+01 0. -1.
         -5    1    3    3    0  502 -0.82115075046E+01 -0.25799494502E+02 -0.53351810563E+02  0.60012902466E+02  0.47000000000E+01 0.  1.
<mgrwt>
<rscale>  0 0.92577855E+02</rscale>
<asrwt>0</asrwt>
<pdfrwt beam="1">  1        4 0.25056225E-01 0.93202371E+02</pdfrwt>
<pdfrwt beam="2">  1       -4 0.12825043E-01 0.93202371E+02</pdfrwt>
<totfact> 0.11178414E+03</totfact>
</mgrwt>
</event>
<event>
 8    1  0.7366917E-004  0.1168618E+03  0.7546771E-02  0.1250095E+00
          1   -1    0    0  501    0  0.00000000000E+00  0.00000000000E+00  0.10341547354E+03  0.10341547354E+03  0.00000000000E+00 0. -1.
         -1   -1    0    0    0  501 -0.00000000000E+00 -0.00000000000E+00 -0.14057609952E+03  0.14057609952E+03  0.00000000000E+00 0.  1.
         23    2    1    2    0    0  0.67673338462E+02  0.14757809420E+02  0.18182122095E+02  0.11826774263E+03  0.94123300547E+02 0.  0.
         23    2    1    2    0    0 -0.67673338462E+02 -0.14757809420E+02 -0.55342748073E+02  0.12572383042E+03  0.89141393831E+02 0.  0.
          5    1    4    4  502    0 -0.76186726967E+02 -0.37558584215E+02 -0.54279798884E+02  0.10091308726E+03  0.47000000000E+01 0. -1.
         -5    1    3    3    0  503  0.82701256583E+02  0.33475718597E+02  0.28278697533E+01  0.89387965763E+02  0.47000000000E+01 0.  1.
          5    1    3    3  503    0 -0.15027918122E+02 -0.18717909176E+02  0.15354252342E+02  0.28879776868E+02  0.47000000000E+01 0. -1.
         -5    1    4    4    0  502  0.85133885050E+01  0.22800774795E+02 -0.10629491896E+01  0.24810743158E+02  0.47000000000E+01 0.  1.
<mgrwt>
<rscale>  0 0.11585535E+03</rscale>
<asrwt>0</asrwt>
<pdfrwt beam="1">  1        1 0.15910073E-01 0.11686175E+03</pdfrwt>
<pdfrwt beam="2">  1       -1 0.21627092E-01 0.11686175E+03</pdfrwt>
<totfact> 0.57520179E+03</totfact>
</mgrwt>
</event>
<event>
 8    1  0.7366917E-004  0.1065511E+03  0.7546771E-02  0.1271645E+00
         -2   -1    0    0    0  501 -0.00000000000E+00  0.00000000000E+00  0.26081966286E+02  0.26081966286E+02  0.00000000000E+00 0.  1.
          2   -1    0    0  501    0  0.00000000000E+00 -0.00000000000E+00 -0.45833553302E+03  0.45833553302E+03  0.00000000000E+00 0. -1.
         23    2    1    2    0    0  0.47531192063E+02  0.17141678383E+01 -0.12101711465E+03  0.15544749473E+03  0.85185849692E+02 0.  0.
         23    2    1    2    0    0 -0.47531192063E+02 -0.17141678383E+01 -0.31123645208E+03  0.32897000458E+03  0.95346642409E+02 0.  0.
          5    1    4    4  502    0 -0.12014280586E+02  0.33827164351E+02 -0.23349644693E+03  0.23628648017E+03  0.47000000000E+01 0. -1.
         -5    1    4    4    0  502 -0.35516911477E+02 -0.35541332189E+02 -0.77740005157E+02  0.92683524407E+02  0.47000000000E+01 0.  1.
          5    1    3    3  503    0 -0.10173785321E+02 -0.19516964778E+02 -0.75552309030E+02  0.78833109933E+02  0.47000000000E+01 0. -1.
         -5    1    3    3    0  503  0.57704977385E+02  0.21231132617E+02 -0.45464805624E+02  0.76614384795E+02  0.47000000000E+01 0.  1.
<mgrwt>
<rscale>  0 0.10422961E+03</rscale>
<asrwt>0</asrwt>
<pdfrwt beam="1">  1        2 0.70513155E-01 0.10655109E+03</pdfrwt>
<pdfrwt beam="2">  1       -2 0.40126104E-02 0.10655109E+03</pdfrwt>
<totfact> 0.17310181E+04</totfact>
</mgrwt>
</event>
<event>
 8    1  0.7366917E-004  0.1004040E+03  0.7546771E-02  0.1280663E+00
         -2   -1    0    0    0  501 -0.00000000000E+00  0.00000000000E+00  0.17969486966E+02  0.17969486966E+02  0.00000000000E+00 0.  1.
          2   -1    0    0  501    0  0.00000000000E+00 -0.00000000000E+00 -0.56967667976E+03  0.56967667976E+03  0.00000000000E+00 0. -1.
         23    2    1    2    0    0 -0.34615087668E+02  0.17236534494E+02 -0.21582329029E+03  0.23707668503E+03  0.90168506343E+02 0.  0.
         23    2    1    2    0    0  0.34615087668E+02 -0.17236534494E+02 -0.33588390250E+03  0.35056948170E+03  0.92658853447E+02 0.  0.
          5    1    4    4  502    0 -0.14962224527E+02 -0.33929713565E+02 -0.22241503657E+03  0.22553410411E+03  0.47000000000E+01 0. -1.
         -5    1    3    3    0  503 -0.18902660698E+02  0.52794661533E+02 -0.99131737980E+02  0.11399025547E+03  0.47000000000E+01 0.  1.
          5    1    3    3  503    0 -0.15712426970E+02 -0.35558127039E+02 -0.11669155231E+03  0.12308642956E+03  0.47000000000E+01 0. -1.
         -5    1    4    4    0  502  0.49577312195E+02  0.16693179070E+02 -0.11346886593E+03  0.12503537759E+03  0.47000000000E+01 0.  1.
<mgrwt>
<rscale>  0 0.99825645E+02</rscale>
<asrwt>0</asrwt>
<pdfrwt beam="1">  1        2 0.87642564E-01 0.10040401E+03</pdfrwt>
<pdfrwt beam="2">  1       -2 0.27645365E-02 0.10040401E+03</pdfrwt>
<totfact> 0.23433913E+04</totfact>
</mgrwt>
</event>
<event>
 7    1  0.1406229E-003  0.2676368E+03  0.7546771E-02  0.1116123E+00
          2   -1    0    0  501    0  0.00000000000E+00  0.00000000000E+00  0.61430659901E+03  0.61430659901E+03  0.00000000000E+00 0. -1.
         -2   -1    0    0    0  501 -0.00000000000E+00 -0.00000000000E+00 -0.17600938605E+03  0.17600938605E+03  0.00000000000E+00 0.  1.
         23    2    1    2    0    0  0.75699758961E+02  0.15021920146E+03  0.48302716600E+03  0.51896708945E+03  0.87836978784E+02 0.  0.
          5    1    3    3  502    0  0.29817845814E+02  0.76302585753E+02  0.35325817812E+03  0.36266323074E+03  0.47000000000E+01 0. -1.
         -5    1    3    3    0  502  0.45881913147E+02  0.73916615712E+02  0.12976898788E+03  0.15630385871E+03  0.47000000000E+01 0.  1.
          5    1    1    2  503    0  0.26131961321E+02 -0.92379826458E+02  0.60716712982E+02  0.11369046123E+03  0.47000000000E+01 0. -1.
         -5    1    1    2    0  503 -0.10183172028E+03 -0.57839375006E+02 -0.10544666602E+03  0.15765843438E+03  0.47000000000E+01 0.  1.
<mgrwt>
<rscale>  0 0.24559225E+03</rscale>
<asrwt>0</asrwt>
<pdfrwt beam="1">  1        2 0.94508707E-01 0.26763680E+03</pdfrwt>
<pdfrwt beam="2">  1       -2 0.27078367E-01 0.26763680E+03</pdfrwt>
<totfact> 0.60742386E+02</totfact>
</mgrwt>
</event>
<event>
 8    1  0.7366917E-004  0.1015177E+03  0.7546771E-02  0.1277628E+00
         -1   -1    0    0    0  501 -0.00000000000E+00  0.00000000000E+00  0.46832662752E+02  0.46832662752E+02  0.00000000000E+00 0.  1.
          1   -1    0    0  501    0  0.00000000000E+00 -0.00000000000E+00 -0.21823111214E+03  0.21823111214E+03  0.00000000000E+00 0. -1.
         23    2    1    2    0    0 -0.34396657821E+02 -0.32502417098E+02 -0.81031483020E+02  0.12915192190E+03  0.88738833118E+02 0.  0.
         23    2    1    2    0    0  0.34396657821E+02  0.32502417098E+02 -0.90366966364E+02  0.13591185299E+03  0.89812615965E+02 0.  0.
          5    1    3    3  502    0 -0.59972269246E+02 -0.22535165320E+02 -0.29742215301E+02  0.70789802412E+02  0.47000000000E+01 0. -1.
         -5    1    4    4    0  503  0.16118106639E+02  0.11987820305E+02  0.15902202417E+02  0.26047480473E+02  0.47000000000E+01 0.  1.
          5    1    4    4  503    0  0.18278551182E+02  0.20514596793E+02 -0.10626916878E+03  0.10986437252E+03  0.47000000000E+01 0. -1.
         -5    1    3    3    0  502  0.25575611425E+02 -0.99672517784E+01 -0.51289267719E+02  0.58362119486E+02  0.47000000000E+01 0.  1.
<mgrwt>
<rscale>  0 0.10127968E+03</rscale>
<asrwt>0</asrwt>
<pdfrwt beam="1">  1        1 0.33574018E-01 0.10151770E+03</pdfrwt>
<pdfrwt beam="2">  1       -1 0.72050250E-02 0.10151770E+03</pdfrwt>
<totfact> 0.12148478E+04</totfact>
</mgrwt>
</event>
<event>
 8    1  0.7366917E-004  0.1010856E+03  0.7546771E-02  0.1278350E+00
          1   -1    0    0  501    0  0.00000000000E+00  0.00000000000E+00  0.18544596493E+02  0.18544596493E+02  0.00000000000E+00 0. -1.
         -1   -1    0    0    0  501 -0.00000000000E+00 -0.00000000000E+00 -0.66297847096E+03  0.66297847096E+03  0.00000000000E+00 0.  1.
         23    2    1    2    0    0  0.32583540702E+02  0.30960515954E+02 -0.18091252312E+03  0.20723814426E+03  0.90543176122E+02 0.  0.
         23    2    1    2    0    0 -0.32583540702E+02 -0.30960515954E+02 -0.46352135135E+03  0.47428492319E+03  0.89854908273E+02 0.  0.
          5    1    3    3  502    0  0.20732717631E+02  0.52995033064E+02 -0.56792574938E+02  0.80534499923E+02  0.47000000000E+01 0. -1.
         -5    1    3    3    0  502  0.11850823071E+02 -0.22034517110E+02 -0.12411994818E+03  0.12670364434E+03  0.47000000000E+01 0.  1.
          5    1    4    4  503    0 -0.46174856945E+02  0.14269266802E+02 -0.30397796422E+03  0.30783180816E+03  0.47000000000E+01 0. -1.
         -5    1    4    4    0  503  0.13591316243E+02 -0.45229782756E+02 -0.15954338713E+03  0.16645311503E+03  0.47000000000E+01 0.  1.
<mgrwt>
<rscale>  0 0.10093129E+03</rscale>
<asrwt>0</asrwt>
<pdfrwt beam="1">  1        1 0.28530146E-02 0.10108564E+03</pdfrwt>
<pdfrwt beam="2">  1       -1 0.10199670E+00 0.10108564E+03</pdfrwt>
<totfact> 0.33251417E+03</totfact>
</mgrwt>
</event>
<event>
 8    1  0.7366917E-004  0.1320944E+03  0.7546771E-02  0.1224406E+00
         -2   -1    0    0    0  501 -0.00000000000E+00  0.00000000000E+00  0.35222461504E+03  0.35222461504E+03  0.00000000000E+00 0.  1.
          2   -1    0    0  501    0  0.00000000000E+00 -0.00000000000E+00 -0.63989067994E+02  0.63989067994E+02  0.00000000000E+00 0. -1.
         23    2    1    2    0    0 -0.39180257149E+02  0.86274448039E+02  0.45107681047E+02  0.13951874475E+03  0.91936958364E+02 0.  0.
         23    2    1    2    0    0  0.39180257149E+02 -0.86274448039E+02  0.24312786600E+03  0.27669493828E+03  0.92035627398E+02 0.  0.
          5    1    3    3  502    0  0.13887510346E+01  0.89674349887E+02  0.39664230281E+02  0.98177180755E+02  0.47000000000E+01 0. -1.
         -5    1    3    3    0  502 -0.40569008184E+02 -0.33999018481E+01  0.54434507655E+01  0.41341563998E+02  0.47000000000E+01 0.  1.
          5    1    4    4  503    0  0.57901793687E+02 -0.52760152514E+02  0.93098366156E+02  0.12176061427E+03  0.47000000000E+01 0. -1.
         -5    1    4    4    0  503 -0.18721536538E+02 -0.33514295526E+02  0.15002949985E+03  0.15493432402E+03  0.47000000000E+01 0.  1.
<mgrwt>
<rscale>  0 0.13207721E+03</rscale>
<asrwt>0</asrwt>
<pdfrwt beam="1">  1        2 0.98444722E-02 0.13209440E+03</pdfrwt>
<pdfrwt beam="2">  1       -2 0.54188401E-01 0.13209440E+03</pdfrwt>
<totfact> 0.20564534E+03</totfact>
</mgrwt>
</event>
<event>
 8    1  0.7366917E-004  0.1521252E+03  0.7546771E-02  0.1198059E+00
          1   -1    0    0  501    0  0.00000000000E+00  0.00000000000E+00  0.15319481706E+04  0.15319481706E+04  0.00000000000E+00 0. -1.
         -1   -1    0    0    0  501 -0.00000000000E+00 -0.00000000000E+00 -0.15106224400E+02  0.15106224400E+02  0.00000000000E+00 0.  1.
         23    2    1    2    0    0 -0.62762358136E+02  0.10372434818E+03  0.80446034554E+03  0.81861111559E+03  0.90938754210E+02 0.  0.
         23    2    1    2    0    0  0.62762358136E+02 -0.10372434818E+03  0.71238160067E+03  0.72844327942E+03  0.91892395512E+02 0.  0.
          5    1    4    4  502    0  0.45803428347E+02 -0.20765734742E+01  0.15976920632E+03  0.16628456180E+03  0.47000000000E+01 0. -1.
         -5    1    4    4    0  502  0.16958929788E+02 -0.10164777471E+03  0.55261239435E+03  0.56215871762E+03  0.47000000000E+01 0.  1.
          5    1    3    3  503    0 -0.50456620422E+02  0.57288403285E+02  0.69221248031E+03  0.69642518593E+03  0.47000000000E+01 0. -1.
         -5    1    3    3    0  503 -0.12305737713E+02  0.46435944897E+02  0.11224786523E+03  0.12218592966E+03  0.47000000000E+01 0.  1.
<mgrwt>
<rscale>  0 0.15198143E+03</rscale>
<asrwt>0</asrwt>
<pdfrwt beam="1">  1        1 0.23568421E+00 0.15212517E+03</pdfrwt>
<pdfrwt beam="2">  1       -1 0.23240357E-02 0.15212517E+03</pdfrwt>
<totfact> 0.37143754E+03</totfact>
</mgrwt>
</event>
<event>
 8    1  0.7366917E-004  0.1315105E+03  0.7546771E-02  0.1226463E+00
          2   -1    0    0  501    0  0.00000000000E+00  0.00000000000E+00  0.44006125765E+03  0.44006125765E+03  0.00000000000E+00 0. -1.
         -2   -1    0    0    0  501 -0.00000000000E+00 -0.00000000000E+00 -0.48528181824E+02  0.48528181824E+02  0.00000000000E+00 0.  1.
         23    2    1    2    0    0 -0.25616375882E+02  0.89778924639E+02  0.30585846734E+03  0.33163356891E+03  0.87834890346E+02 0.  0.
         23    2    1    2    0    0  0.25616375882E+02 -0.89778924639E+02  0.85674608488E+02  0.15695587057E+03  0.92620476908E+02 0.  0.
          5    1    4    4  502    0 -0.79786062971E+01 -0.25127707567E+02  0.79263017110E+02  0.83664662357E+02  0.47000000000E+01 0. -1.
         -5    1    3    3    0  503  0.14540146272E+02  0.86227806973E+02  0.20577792630E+03  0.22363652542E+03  0.47000000000E+01 0.  1.
          5    1    3    3  503    0 -0.40156522154E+02  0.35511176659E+01  0.10008054103E+03  0.10799704349E+03  0.47000000000E+01 0. -1.
         -5    1    4    4    0  502  0.33594982179E+02 -0.64651217072E+02  0.64115913785E+01  0.73291208208E+02  0.47000000000E+01 0.  1.
<mgrwt>
<rscale>  0 0.13067114E+03</rscale>
<asrwt>0</asrwt>
<pdfrwt beam="1">  1        2 0.67701729E-01 0.13151048E+03</pdfrwt>
<pdfrwt beam="2">  1       -2 0.74658744E-02 0.13151048E+03</pdfrwt>
<totfact> 0.72232154E+03</totfact>
</mgrwt>
</event>
<event>
 8    1  0.7366917E-004  0.9741735E+02  0.7546771E-02  0.1286325E+00
         -2   -1    0    0    0  501 -0.00000000000E+00  0.00000000000E+00  0.11592870730E+02  0.11592870730E+02  0.00000000000E+00 0.  1.
          2   -1    0    0  501    0  0.00000000000E+00 -0.00000000000E+00 -0.84028541192E+03  0.84028541192E+03  0.00000000000E+00 0. -1.
         23    2    1    2    0    0 -0.46895766688E+01  0.33077608084E+02 -0.33282770723E+03  0.34653476246E+03  0.90531423282E+02 0.  0.
         23    2    1    2    0    0  0.46895766688E+01 -0.33077608084E+02 -0.49586483395E+03  0.50534352019E+03  0.91509669233E+02 0.  0.
          5    1    3    3  502    0  0.25544964230E+02 -0.84055829353E+01 -0.22893844699E+03  0.23056040755E+03  0.47000000000E+01 0. -1.
         -5    1    3    3    0  502 -0.30234540899E+02  0.41483191019E+02 -0.10388926025E+03  0.11597435490E+03  0.47000000000E+01 0.  1.
          5    1    4    4  503    0 -0.62271104225E+01 -0.54476858414E+02 -0.45002430321E+03  0.45337674013E+03  0.47000000000E+01 0. -1.
         -5    1    4    4    0  503  0.10916687091E+02  0.21399250330E+02 -0.45840530740E+02  0.51966780064E+02  0.47000000000E+01 0.  1.
<mgrwt>
<rscale>  0 0.97186948E+02</rscale>
<asrwt>0</asrwt>
<pdfrwt beam="1">  1        2 0.12927471E+00 0.97417349E+02</pdfrwt>
<pdfrwt beam="2">  1       -2 0.17835181E-02 0.97417349E+02</pdfrwt>
<totfact> 0.27907099E+04</totfact>
</mgrwt>
</event>
<event>
 8    1  0.7366917E-004  0.1288847E+03  0.7546771E-02  0.1239946E+00
          1   -1    0    0  501    0  0.00000000000E+00  0.00000000000E+00  0.11225198068E+03  0.11225198068E+03  0.00000000000E+00 0. -1.
         -1   -1    0    0    0  501 -0.00000000000E+00 -0.00000000000E+00 -0.19667579708E+03  0.19667579708E+03  0.00000000000E+00 0.  1.
         23    2    1    2    0    0  0.29460437040E+02 -0.40563919977E+02  0.56718449775E+02  0.11779327246E+03  0.90249230122E+02 0.  0.
         23    2    1    2    0    0 -0.29460437040E+02  0.40563919977E+02 -0.14114226618E+03  0.19113450530E+03  0.11873462368E+03 0.  0.
          5    1    3    3  502    0 -0.29516255661E+02  0.20066401969E+01  0.21297950227E+02  0.36754981118E+02  0.47000000000E+01 0. -1.
         -5    1    4    4    0  503 -0.27780600011E+02  0.16500168897E+02 -0.15799612881E+03  0.16133469567E+03  0.47000000000E+01 0.  1.
          5    1    4    4  503    0 -0.16798370293E+01  0.24063751081E+02  0.16853862625E+02  0.29799809629E+02  0.47000000000E+01 0. -1.
         -5    1    3    3    0  502  0.58976692701E+02 -0.42570560174E+02  0.35420499548E+02  0.81038291343E+02  0.47000000000E+01 0.  1.
<mgrwt>
<rscale>  0 0.12193035E+03</rscale>
<asrwt>0</asrwt>
<pdfrwt beam="1">  1        1 0.17269536E-01 0.12888468E+03</pdfrwt>
<pdfrwt beam="2">  1       -1 0.30257815E-01 0.12888468E+03</pdfrwt>
<totfact> 0.29995466E+03</totfact>
</mgrwt>
</event>
<event>
 8    1  0.7366917E-004  0.1025051E+03  0.7546771E-02  0.1275418E+00
         -1   -1    0    0    0  501 -0.00000000000E+00  0.00000000000E+00  0.93808361863E+02  0.93808361863E+02  0.00000000000E+00 0.  1.
          1   -1    0    0  501    0  0.00000000000E+00 -0.00000000000E+00 -0.18623543009E+03  0.18623543009E+03  0.00000000000E+00 0. -1.
         23    2    1    2    0    0 -0.44845789365E+02 -0.10541268852E+02  0.42490030006E+02  0.11096262679E+03  0.91569857057E+02 0.  0.
         23    2    1    2    0    0  0.44845789365E+02  0.10541268852E+02 -0.13491709823E+03  0.16908116516E+03  0.90904091459E+02 0.  0.
          5    1    3    3  502    0  0.28156557711E+02 -0.53004373488E+01  0.95538428933E+01  0.30565540929E+02  0.47000000000E+01 0. -1.
         -5    1    3    3    0  502 -0.73002347077E+02 -0.52408315031E+01  0.32936187113E+02  0.80397085862E+02  0.47000000000E+01 0.  1.
          5    1    4    4  503    0  0.31557032924E+02 -0.35621840056E+02 -0.95346705869E+02  0.10666698710E+03  0.47000000000E+01 0. -1.
         -5    1    4    4    0  503  0.13288756442E+02  0.46163108907E+02 -0.39570392360E+02  0.62414178063E+02  0.47000000000E+01 0.  1.
<mgrwt>
<rscale>  0 0.10235623E+03</rscale>
<asrwt>0</asrwt>
<pdfrwt beam="1">  1        1 0.28651605E-01 0.10250513E+03</pdfrwt>
<pdfrwt beam="2">  1       -1 0.14432056E-01 0.10250513E+03</pdfrwt>
<totfact> 0.51497641E+03</totfact>
</mgrwt>
</event>
<event>
 8    1  0.7366917E-004  0.1033295E+03  0.7546771E-02  0.1274494E+00
         -2   -1    0    0    0  501 -0.00000000000E+00  0.00000000000E+00  0.20454627677E+02  0.20454627677E+02  0.00000000000E+00 0.  1.
          2   -1    0    0  501    0  0.00000000000E+00 -0.00000000000E+00 -0.70073582143E+03  0.70073582143E+03  0.00000000000E+00 0. -1.
         23    2    1    2    0    0 -0.26070048362E+02  0.40066012323E+02 -0.52995712635E+03  0.53993661762E+03  0.91608201146E+02 0.  0.
         23    2    1    2    0    0  0.26070048362E+02 -0.40066012323E+02 -0.15032406741E+03  0.18125383149E+03  0.89278740032E+02 0.  0.
          5    1    3    3  502    0 -0.52704844583E+02  0.17288034005E+02 -0.43611964022E+03  0.43965794358E+03  0.47000000000E+01 0. -1.
         -5    1    3    3    0  502  0.26634796221E+02  0.22777978317E+02 -0.93837486125E+02  0.10027867405E+03  0.47000000000E+01 0.  1.
          5    1    4    4  503    0  0.30224202448E+02  0.12041819161E+02 -0.15047593305E+02  0.36152840643E+02  0.47000000000E+01 0. -1.
         -5    1    4    4    0  503 -0.41541540860E+01 -0.52107831484E+02 -0.13527647410E+03  0.14510099084E+03  0.47000000000E+01 0.  1.
<mgrwt>
<rscale>  0 0.10281078E+03</rscale>
<asrwt>0</asrwt>
<pdfrwt beam="1">  1        2 0.10780551E+00 0.10332955E+03</pdfrwt>
<pdfrwt beam="2">  1       -2 0.31468657E-02 0.10332955E+03</pdfrwt>
<totfact> 0.15361846E+04</totfact>
</mgrwt>
</event>
<event>
 8    1  0.7366917E-004  0.9868657E+02  0.7546771E-02  0.1286103E+00
          2   -1    0    0  501    0  0.00000000000E+00  0.00000000000E+00  0.10195156383E+03  0.10195156383E+03  0.00000000000E+00 0. -1.
         -2   -1    0    0    0  501 -0.00000000000E+00 -0.00000000000E+00 -0.96581141229E+02  0.96581141229E+02  0.00000000000E+00 0.  1.
         23    2    1    2    0    0  0.26691782236E+02 -0.94886662083E+01  0.28059062191E+02  0.10259800476E+03  0.94533346410E+02 0.  0.
         23    2    1    2    0    0 -0.26691782236E+02  0.94886662083E+01 -0.22688639595E+02  0.95934700299E+02  0.88804314814E+02 0.  0.
          5    1    4    4  502    0 -0.28305126621E+01  0.46532939688E+02 -0.16606783485E+01  0.46884689724E+02  0.47000000000E+01 0. -1.
         -5    1    4    4    0  502 -0.23861269574E+02 -0.37044273479E+02 -0.21027961246E+02  0.49050010576E+02  0.47000000000E+01 0.  1.
          5    1    3    3  503    0  0.43438523334E+02  0.20033197667E+02 -0.12340136978E+02  0.49624623916E+02  0.47000000000E+01 0. -1.
         -5    1    3    3    0  503 -0.16746741098E+02 -0.29521863875E+02  0.40399199169E+02  0.52973380840E+02  0.47000000000E+01 0.  1.
<mgrwt>
<rscale>  0 0.97288801E+02</rscale>
<asrwt>0</asrwt>
<pdfrwt beam="1">  1        2 0.15684856E-01 0.98686573E+02</pdfrwt>
<pdfrwt beam="2">  1       -2 0.14858637E-01 0.98686573E+02</pdfrwt>
<totfact> 0.11684461E+04</totfact>
</mgrwt>
</event>
<event>
 8    1  0.7366917E-004  0.9500278E+02  0.7546771E-02  0.1293808E+00
          2   -1    0    0  501    0  0.00000000000E+00  0.00000000000E+00  0.13077227042E+03  0.13077227042E+03  0.00000000000E+00 0. -1.
         -2   -1    0    0    0  501 -0.00000000000E+00 -0.00000000000E+00 -0.10101967945E+03  0.10101967945E+03  0.00000000000E+00 0.  1.
         23    2    1    2    0    0  0.45333683226E+01  0.12868280916E+02 -0.53359850563E+02  0.10896238592E+03  0.94017997267E+02 0.  0.
         23    2    1    2    0    0 -0.45333683226E+01 -0.12868280916E+02  0.83112441534E+02  0.12282956396E+03  0.89405143943E+02 0.  0.
          5    1    3    3  502    0 -0.48789621236E+01 -0.22550605723E+02  0.17304714568E+02  0.29221177871E+02  0.47000000000E+01 0. -1.
         -5    1    3    3    0  502  0.94123304462E+01  0.35418886639E+02 -0.70664565131E+02  0.79741208044E+02  0.47000000000E+01 0.  1.
          5    1    4    4  503    0 -0.30526917450E+02  0.12908550990E+02  0.78867997691E+02  0.85678319530E+02  0.47000000000E+01 0. -1.
         -5    1    4    4    0  503  0.25993549127E+02 -0.25776831906E+02  0.42444438421E+01  0.37151244432E+02  0.47000000000E+01 0.  1.
<mgrwt>
<rscale>  0 0.93840987E+02</rscale>
<asrwt>0</asrwt>
<pdfrwt beam="1">  1        2 0.20118811E-01 0.95002778E+02</pdfrwt>
<pdfrwt beam="2">  1       -2 0.15541489E-01 0.95002778E+02</pdfrwt>
<totfact> 0.81602607E+03</totfact>
</mgrwt>
</event>
<event>
 8    1  0.7366917E-004  0.1045465E+03  0.7546771E-02  0.1274972E+00
         -2   -1    0    0    0  501 -0.00000000000E+00  0.00000000000E+00  0.15635455378E+02  0.15635455378E+02  0.00000000000E+00 0.  1.
          2   -1    0    0  501    0  0.00000000000E+00 -0.00000000000E+00 -0.64998878423E+03  0.64998878423E+03  0.00000000000E+00 0. -1.
         23    2    1    2    0    0  0.29672215624E+02 -0.39871039601E+02 -0.29056040871E+03  0.30628659577E+03  0.83162416174E+02 0.  0.
         23    2    1    2    0    0 -0.29672215624E+02  0.39871039601E+02 -0.34379292014E+03  0.35933764383E+03  0.91977335006E+02 0.  0.
          5    1    3    3  502    0  0.15847586079E+02  0.18090141546E+02 -0.16962950302E+03  0.17139036583E+03  0.47000000000E+01 0. -1.
         -5    1    4    4    0  503 -0.22964137425E+02 -0.22344070076E+02 -0.55172748630E+02  0.63974457924E+02  0.47000000000E+01 0.  1.
          5    1    4    4  503    0 -0.67080781991E+01  0.62215109677E+02 -0.28862017151E+03  0.29536318591E+03  0.47000000000E+01 0. -1.
         -5    1    3    3    0  502  0.13824629545E+02 -0.57961181147E+02 -0.12093090569E+03  0.13489622994E+03  0.47000000000E+01 0.  1.
<mgrwt>
<rscale>  0 0.10257533E+03</rscale>
<asrwt>0</asrwt>
<pdfrwt beam="1">  1        2 0.99998237E-01 0.10454650E+03</pdfrwt>
<pdfrwt beam="2">  1       -2 0.24054556E-02 0.10454650E+03</pdfrwt>
<totfact> 0.24808795E+04</totfact>
</mgrwt>
</event>
<event>
 8    1  0.7366917E-004  0.9699153E+02  0.7546771E-02  0.1287930E+00
         -1   -1    0    0    0  501 -0.00000000000E+00  0.00000000000E+00  0.20946354153E+02  0.20946354153E+02  0.00000000000E+00 0.  1.
          1   -1    0    0  501    0  0.00000000000E+00 -0.00000000000E+00 -0.45002878188E+03  0.45002878188E+03  0.00000000000E+00 0. -1.
         23    2    1    2    0    0  0.14572730593E+02 -0.13382916910E+02 -0.18056380957E+03  0.20496498696E+03  0.94952038483E+02 0.  0.
         23    2    1    2    0    0 -0.14572730593E+02  0.13382916910E+02 -0.24851861816E+03  0.26601014907E+03  0.92781619387E+02 0.  0.
          5    1    4    4  502    0 -0.19150654713E+02 -0.15054179178E+02 -0.23024353961E+03  0.23157623673E+03  0.47000000000E+01 0. -1.
         -5    1    4    4    0  502  0.45779241201E+01  0.28437096088E+02 -0.18275078550E+02  0.34433912342E+02  0.47000000000E+01 0.  1.
          5    1    3    3  503    0  0.21591759572E+02 -0.42237898469E+02 -0.16368539996E+03  0.17048531992E+03  0.47000000000E+01 0. -1.
         -5    1    3    3    0  503 -0.70190289794E+01  0.28854981558E+02 -0.16878409617E+02  0.34479667048E+02  0.47000000000E+01 0.  1.
<mgrwt>
<rscale>  0 0.96456175E+02</rscale>
<asrwt>0</asrwt>
<pdfrwt beam="1">  1        1 0.69235198E-01 0.96991528E+02</pdfrwt>
<pdfrwt beam="2">  1       -1 0.32225160E-02 0.96991528E+02</pdfrwt>
<totfact> 0.16117514E+04</totfact>
</mgrwt>
</event>
<event>
 8    1  0.7366917E-004  0.1019402E+03  0.7546771E-02  0.1279424E+00
         -1   -1    0    0    0  501 -0.00000000000E+00  0.00000000000E+00  0.10620951517E+03  0.10620951517E+03  0.00000000000E+00 0.  1.
          1   -1    0    0  501    0  0.00000000000E+00 -0.00000000000E+00 -0.96194458854E+02  0.96194458854E+02  0.00000000000E+00 0. -1.
         23    2    1    2    0    0  0.44791248200E+02 -0.97033194912E+00  0.25756351216E+02  0.10514365953E+03  0.91567472670E+02 0.  0.
         23    2    1    2    0    0 -0.44791248200E+02  0.97033194912E+00 -0.15741294895E+02  0.97260314502E+02  0.84879814754E+02 0.  0.
          5    1    3    3  502    0  0.17358948039E+02 -0.44138814984E+02 -0.50797289071E-01  0.47661941270E+02  0.47000000000E+01 0. -1.
         -5    1    4    4    0  503  0.20841715739E+02  0.16807591414E+01  0.13417187923E+02  0.25284639566E+02  0.47000000000E+01 0.  1.
          5    1    4    4  503    0 -0.65632963939E+02 -0.71042719226E+00 -0.29158482818E+02  0.71975674936E+02  0.47000000000E+01 0. -1.
         -5    1    3    3    0  502  0.27432300162E+02  0.43168483035E+02  0.25807148505E+02  0.57481718256E+02  0.47000000000E+01 0.  1.
<mgrwt>
<rscale>  0 0.10041578E+03</rscale>
<asrwt>0</asrwt>
<pdfrwt beam="1">  1        1 0.14799148E-01 0.10194018E+03</pdfrwt>
<pdfrwt beam="2">  1       -1 0.16339925E-01 0.10194018E+03</pdfrwt>
<totfact> 0.97435108E+03</totfact>
</mgrwt>
</event>
<event>
 8    1  0.7366917E-004  0.9934818E+02  0.7546771E-02  0.1283726E+00
         -3   -1    0    0    0  501 -0.00000000000E+00  0.00000000000E+00  0.95050597593E+02  0.95050597593E+02  0.00000000000E+00 0.  1.
          3   -1    0    0  501    0  0.00000000000E+00 -0.00000000000E+00 -0.10634070276E+03  0.10634070276E+03  0.00000000000E+00 0. -1.
         23    2    1    2    0    0  0.23443039165E+02 -0.12197767616E+02  0.19000558686E+02  0.10114881478E+03  0.95768992268E+02 0.  0.
         23    2    1    2    0    0 -0.23443039165E+02  0.12197767616E+02 -0.30290663848E+02  0.10024248557E+03  0.91829570278E+02 0.  0.
          5    1    3    3  502    0 -0.32633231869E+02 -0.74851393517E+01  0.28085626657E+02  0.43952787831E+02  0.47000000000E+01 0. -1.
         -5    1    3    3    0  502  0.56076271034E+02 -0.47126282642E+01 -0.90850679716E+01  0.57196026945E+02  0.47000000000E+01 0.  1.
          5    1    4    4  503    0  0.19679346101E+02  0.13260479474E+02 -0.47704631893E+02  0.53487745166E+02  0.47000000000E+01 0. -1.
         -5    1    4    4    0  503 -0.43122385265E+02 -0.10627118577E+01  0.17413968045E+02  0.46754740407E+02  0.47000000000E+01 0.  1.
<mgrwt>
<rscale>  0 0.98386368E+02</rscale>
<asrwt>0</asrwt>
<pdfrwt beam="1">  1        3 0.16360108E-01 0.99348183E+02</pdfrwt>
<pdfrwt beam="2">  1       -3 0.14623169E-01 0.99348183E+02</pdfrwt>
<totfact> 0.26669356E+03</totfact>
</mgrwt>
</event>
<event>
 8    1  0.7366917E-004  0.9743737E+02  0.7546771E-02  0.1286824E+00
         -2   -1    0    0    0  501 -0.00000000000E+00  0.00000000000E+00  0.21657946935E+02  0.21657946935E+02  0.00000000000E+00 0.  1.
          2   -1    0    0  501    0  0.00000000000E+00 -0.00000000000E+00 -0.49693778812E+03  0.49693778812E+03  0.00000000000E+00 0. -1.
         23    2    1    2    0    0 -0.31719324772E+02 -0.86786758701E+00 -0.14440172154E+03  0.17420074015E+03  0.92125848304E+02 0.  0.
         23    2    1    2    0    0  0.31719324772E+02  0.86786758701E+00 -0.33087811964E+03  0.34439499490E+03  0.90115002636E+02 0.  0.
          5    1    3    3  502    0  0.31509578727E+02 -0.84211221836E+01 -0.40050439394E+02  0.51864212575E+02  0.47000000000E+01 0. -1.
         -5    1    4    4    0  503 -0.21991121002E+01 -0.33083075596E+02 -0.23179134094E+03  0.23419786873E+03  0.47000000000E+01 0.  1.
          5    1    4    4  503    0  0.33918436872E+02  0.33950943183E+02 -0.99086778701E+02  0.11019712617E+03  0.47000000000E+01 0. -1.
         -5    1    3    3    0  502 -0.63228903499E+02  0.75532545966E+01 -0.10435128215E+03  0.12233652757E+03  0.47000000000E+01 0.  1.
<mgrwt>
<rscale>  0 0.96959112E+02</rscale>
<asrwt>0</asrwt>
<pdfrwt beam="1">  1        2 0.76451962E-01 0.97437368E+02</pdfrwt>
<pdfrwt beam="2">  1       -2 0.33319921E-02 0.97437368E+02</pdfrwt>
<totfact> 0.20671257E+04</totfact>
</mgrwt>
</event>
<event>
 8    1  0.7366917E-004  0.9982281E+02  0.7546771E-02  0.1282538E+00
          2   -1    0    0  501    0  0.00000000000E+00  0.00000000000E+00  0.28182472785E+03  0.28182472785E+03  0.00000000000E+00 0. -1.
         -2   -1    0    0    0  501 -0.00000000000E+00 -0.00000000000E+00 -0.42002731446E+02  0.42002731446E+02  0.00000000000E+00 0.  1.
         23    2    1    2    0    0  0.16067840835E+02  0.30271201631E+02  0.19170483744E+03  0.21613731466E+03  0.93755388807E+02 0.  0.
         23    2    1    2    0    0 -0.16067840835E+02 -0.30271201631E+02  0.48117158958E+02  0.10769014464E+03  0.90041019033E+02 0.  0.
          5    1    4    4  502    0  0.22218884782E+02 -0.44848344687E+02  0.42971208056E+02  0.66133709890E+02  0.47000000000E+01 0. -1.
         -5    1    3    3    0  503 -0.35143172379E+02  0.18702455327E+02  0.45078319286E+02  0.60323869817E+02  0.47000000000E+01 0.  1.
          5    1    3    3  503    0  0.51211013215E+02  0.11568746304E+02  0.14662651816E+03  0.15581344484E+03  0.47000000000E+01 0. -1.
         -5    1    4    4    0  502 -0.38286725617E+02  0.14577143056E+02  0.51459509021E+01  0.41556434747E+02  0.47000000000E+01 0.  1.
<mgrwt>
<rscale>  0 0.98941161E+02</rscale>
<asrwt>0</asrwt>
<pdfrwt beam="1">  1        2 0.43357649E-01 0.99822813E+02</pdfrwt>
<pdfrwt beam="2">  1       -2 0.64619589E-02 0.99822813E+02</pdfrwt>
<totfact> 0.14115397E+04</totfact>
</mgrwt>
</event>
<event>
 8    1  0.7366917E-004  0.1325352E+03  0.7546771E-02  0.1224798E+00
          1   -1    0    0  501    0  0.00000000000E+00  0.00000000000E+00  0.73554487322E+02  0.73554487322E+02  0.00000000000E+00 0. -1.
         -1   -1    0    0    0  501 -0.00000000000E+00 -0.00000000000E+00 -0.28495831166E+03  0.28495831166E+03  0.00000000000E+00 0.  1.
         23    2    1    2    0    0 -0.80484888843E+02  0.39853521644E+02 -0.18272589948E+03  0.22573065949E+03  0.97465151593E+02 0.  0.
         23    2    1    2    0    0  0.80484888843E+02 -0.39853521644E+02 -0.28677924864E+02  0.13278213949E+03  0.93501618567E+02 0.  0.
          5    1    4    4  502    0  0.73095779302E+01 -0.27817943461E+02  0.27156928117E+02  0.39835369368E+02  0.47000000000E+01 0. -1.
         -5    1    3    3    0  503 -0.32070258691E+01  0.48515528746E+02 -0.40032618006E+02  0.63156488573E+02  0.47000000000E+01 0.  1.
          5    1    3    3  503    0 -0.77277862974E+02 -0.86620071013E+01 -0.14269328147E+03  0.16257417092E+03  0.47000000000E+01 0. -1.
         -5    1    4    4    0  502  0.73175310913E+02 -0.12035578183E+02 -0.55834852981E+02  0.92946770126E+02  0.47000000000E+01 0.  1.
<mgrwt>
<rscale>  0 0.13180749E+03</rscale>
<asrwt>0</asrwt>
<pdfrwt beam="1">  1        1 0.11316075E-01 0.13253519E+03</pdfrwt>
<pdfrwt beam="2">  1       -1 0.43839741E-01 0.13253519E+03</pdfrwt>
<totfact> 0.27420844E+03</totfact>
</mgrwt>
</event>
<event>
 8    1  0.7366917E-004  0.1298398E+03  0.7546771E-02  0.1228000E+00
          1   -1    0    0  501    0  0.00000000000E+00  0.00000000000E+00  0.29560985143E+03  0.29560985143E+03  0.00000000000E+00 0. -1.
         -1   -1    0    0    0  501 -0.00000000000E+00 -0.00000000000E+00 -0.58131653614E+02  0.58131653614E+02  0.00000000000E+00 0.  1.
         23    2    1    2    0    0 -0.57792586992E+02 -0.73171181365E+02  0.91045885519E+02  0.15858036866E+03  0.90356932007E+02 0.  0.
         23    2    1    2    0    0  0.57792586992E+02  0.73171181365E+02  0.14643231229E+03  0.19516113638E+03  0.89170859450E+02 0.  0.
          5    1    4    4  502    0  0.10146905947E+02  0.79037343462E+02  0.79503175916E+02  0.11266191168E+03  0.47000000000E+01 0. -1.
         -5    1    4    4    0  502  0.47645681046E+02 -0.58661620974E+01  0.66929136377E+02  0.82499224701E+02  0.47000000000E+01 0.  1.
          5    1    3    3  503    0  0.87051136705E+01 -0.21826201237E+02 -0.10957043837E+02  0.26349741443E+02  0.47000000000E+01 0. -1.
         -5    1    3    3    0  503 -0.66497700663E+02 -0.51344980128E+02  0.10200292936E+03  0.13223062722E+03  0.47000000000E+01 0.  1.
<mgrwt>
<rscale>  0 0.12963369E+03</rscale>
<asrwt>0</asrwt>
<pdfrwt beam="1">  1        1 0.45478438E-01 0.12983982E+03</pdfrwt>
<pdfrwt beam="2">  1       -1 0.89433315E-02 0.12983982E+03</pdfrwt>
<totfact> 0.61614449E+03</totfact>
</mgrwt>
</event>
<event>
 8    1  0.7366917E-004  0.9315080E+02  0.7546771E-02  0.1295588E+00
         -1   -1    0    0    0  501 -0.00000000000E+00  0.00000000000E+00  0.31713525774E+02  0.31713525774E+02  0.00000000000E+00 0.  1.
          1   -1    0    0  501    0  0.00000000000E+00 -0.00000000000E+00 -0.32307389203E+03  0.32307389203E+03  0.00000000000E+00 0. -1.
         23    2    1    2    0    0  0.19266745120E+02  0.21096929852E+00 -0.75808256374E+02  0.12009980489E+03  0.91136268430E+02 0.  0.
         23    2    1    2    0    0 -0.19266745120E+02 -0.21096929852E+00 -0.21555210988E+03  0.23468761292E+03  0.90798191653E+02 0.  0.
          5    1    3    3  502    0 -0.15848422446E+02  0.36821356783E+02 -0.21873170105E+02  0.45907628776E+02  0.47000000000E+01 0. -1.
         -5    1    4    4    0  503  0.62227243803E+01  0.33692827876E+02 -0.35166356047E+02  0.49322323005E+02  0.47000000000E+01 0.  1.
          5    1    4    4  503    0 -0.25489469500E+02 -0.33903797174E+02 -0.18038575383E+03  0.18536528991E+03  0.47000000000E+01 0. -1.
         -5    1    3    3    0  502  0.35115167566E+02 -0.36610387485E+02 -0.53935086269E+02  0.74192176109E+02  0.47000000000E+01 0.  1.
<mgrwt>
<rscale>  0 0.93068004E+02</rscale>
<asrwt>0</asrwt>
<pdfrwt beam="1">  1        1 0.49703675E-01 0.93150799E+02</pdfrwt>
<pdfrwt beam="2">  1       -1 0.48790041E-02 0.93150799E+02</pdfrwt>
<totfact> 0.13256605E+04</totfact>
</mgrwt>
</event>
<event>
 8    1  0.7366917E-004  0.9664283E+02  0.7546771E-02  0.1289551E+00
          2   -1    0    0  501    0  0.00000000000E+00  0.00000000000E+00  0.55416390785E+03  0.55416390785E+03  0.00000000000E+00 0. -1.
         -2   -1    0    0    0  501 -0.00000000000E+00 -0.00000000000E+00 -0.16869188425E+02  0.16869188425E+02  0.00000000000E+00 0.  1.
         23    2    1    2    0    0 -0.31442152900E+02  0.77157832401E+01  0.31933796118E+03  0.33261123428E+03  0.87208700401E+02 0.  0.
         23    2    1    2    0    0  0.31442152900E+02 -0.77157832401E+01  0.21795675824E+03  0.23842186200E+03  0.91058736676E+02 0.  0.
          5    1    3    3  502    0 -0.10380731593E+02 -0.38473877648E+02  0.17477220924E+03  0.17931930730E+03  0.47000000000E+01 0. -1.
         -5    1    4    4    0  503  0.17248913015E+02  0.38003470680E+02  0.59532079691E+02  0.72855660702E+02  0.47000000000E+01 0.  1.
          5    1    4    4  503    0  0.14193239885E+02 -0.45719253920E+02  0.15842467855E+03  0.16556620130E+03  0.47000000000E+01 0. -1.
         -5    1    3    3    0  502 -0.21061421308E+02  0.46189660888E+02  0.14456575194E+03  0.15329192697E+03  0.47000000000E+01 0.  1.
<mgrwt>
<rscale>  0 0.95725179E+02</rscale>
<asrwt>0</asrwt>
<pdfrwt beam="1">  1        2 0.85255972E-01 0.96642826E+02</pdfrwt>
<pdfrwt beam="2">  1       -2 0.25952602E-02 0.96642826E+02</pdfrwt>
<totfact> 0.26380598E+04</totfact>
</mgrwt>
</event>
<event>
 8    1  0.7366917E-004  0.1969619E+03  0.7546771E-02  0.1152491E+00
         -1   -1    0    0    0  501 -0.00000000000E+00  0.00000000000E+00  0.53963677114E+03  0.53963677114E+03  0.00000000000E+00 0.  1.
          1   -1    0    0  501    0  0.00000000000E+00 -0.00000000000E+00 -0.73039284873E+02  0.73039284873E+02  0.00000000000E+00 0. -1.
         23    2    1    2    0    0  0.16474152056E+03  0.56487364430E+02  0.19093165299E+03  0.27431527601E+03  0.91996649950E+02 0.  0.
         23    2    1    2    0    0 -0.16474152056E+03 -0.56487364430E+02  0.27566583327E+03  0.33836078000E+03  0.90364677108E+02 0.  0.
          5    1    3    3  502    0  0.14845454043E+03  0.20028885907E+02  0.11690989342E+03  0.19007872060E+03  0.47000000000E+01 0. -1.
         -5    1    4    4    0  503 -0.12806007468E+03 -0.16150598258E+02  0.24143684224E+03  0.27381392101E+03  0.47000000000E+01 0.  1.
          5    1    4    4  503    0 -0.36681445886E+02 -0.40336766172E+02  0.34228991034E+02  0.64546858984E+02  0.47000000000E+01 0. -1.
         -5    1    3    3    0  502  0.16286980132E+02  0.36458478523E+02  0.74021759566E+02  0.84236555410E+02  0.47000000000E+01 0.  1.
<mgrwt>
<rscale>  0 0.19677235E+03</rscale>
<asrwt>0</asrwt>
<pdfrwt beam="1">  1        1 0.11236813E-01 0.19696186E+03</pdfrwt>
<pdfrwt beam="2">  1       -1 0.83021039E-01 0.19696186E+03</pdfrwt>
<totfact> 0.82396123E+02</totfact>
</mgrwt>
</event>
<event>
 8    1  0.9724301E-004  0.9133174E+02  0.7546771E-02  0.1300371E+00
         -4   -1    0    0    0  501 -0.00000000000E+00  0.00000000000E+00  0.14695855676E+03  0.14695855676E+03  0.00000000000E+00 0.  1.
          4   -1    0    0  501    0  0.00000000000E+00 -0.00000000000E+00 -0.11756040756E+03  0.11756040756E+03  0.00000000000E+00 0. -1.
         23    2    1    2    0    0  0.97914502650E+01  0.31013660387E+00 -0.80944405677E+02  0.12203885767E+03  0.90804830756E+02 0.  0.
         23    2    1    2    0    0 -0.97914502650E+01 -0.31013660387E+00  0.11034255488E+03  0.14248010664E+03  0.89605427789E+02 0.  0.
          5    1    3    3  502    0  0.29695315299E+02  0.91125342310E+01 -0.91974160691E+02  0.97191492763E+02  0.47000000000E+01 0. -1.
         -5    1    4    4    0  503 -0.49119450742E+02 -0.74136915193E+01  0.61543328451E+02  0.79229757919E+02  0.47000000000E+01 0.  1.
          5    1    4    4  503    0  0.39328000477E+02  0.71035549154E+01  0.48799226425E+02  0.63250348723E+02  0.47000000000E+01 0. -1.
         -5    1    3    3    0  502 -0.19903865034E+02 -0.88023976271E+01  0.11029755014E+02  0.24847364909E+02  0.47000000000E+01 0.  1.
<mgrwt>
<rscale>  0 0.91032167E+02</rscale>
<asrwt>0</asrwt>
<pdfrwt beam="1">  1        4 0.18086217E-01 0.91331736E+02</pdfrwt>
<pdfrwt beam="2">  1       -4 0.22609009E-01 0.91331736E+02</pdfrwt>
<totfact> 0.73895136E+02</totfact>
</mgrwt>
</event>
<event>
 8    1  0.7366917E-004  0.9989771E+02  0.7546771E-02  0.1281811E+00
          1   -1    0    0  501    0  0.00000000000E+00  0.00000000000E+00  0.26200323302E+02  0.26200323302E+02  0.00000000000E+00 0. -1.
         -1   -1    0    0    0  501 -0.00000000000E+00 -0.00000000000E+00 -0.41043002890E+03  0.41043002890E+03  0.00000000000E+00 0.  1.
         23    2    1    2    0    0  0.19145256523E+02  0.30395758928E+02 -0.25705941395E+03  0.27491506030E+03  0.90599696880E+02 0.  0.
         23    2    1    2    0    0 -0.19145256523E+02 -0.30395758928E+02 -0.12717029165E+03  0.16171529190E+03  0.93215393295E+02 0.  0.
          5    1    4    4  502    0 -0.89103385355E+01  0.32262260932E+02 -0.28101143542E+02  0.43954657109E+02  0.47000000000E+01 0. -1.
         -5    1    3    3    0  503  0.37005007895E+02  0.54916180063E+02 -0.18665891841E+03  0.19811309715E+03  0.47000000000E+01 0.  1.
          5    1    3    3  503    0 -0.17859751372E+02 -0.24520421135E+02 -0.70400495539E+02  0.76801963152E+02  0.47000000000E+01 0. -1.
         -5    1    4    4    0  502 -0.10234917987E+02 -0.62658019859E+02 -0.99069148109E+02  0.11776063479E+03  0.47000000000E+01 0.  1.
<mgrwt>
<rscale>  0 0.99283013E+02</rscale>
<asrwt>0</asrwt>
<pdfrwt beam="1">  1        1 0.40308189E-02 0.99897710E+02</pdfrwt>
<pdfrwt beam="2">  1       -1 0.63143082E-01 0.99897710E+02</pdfrwt>
<totfact> 0.55034767E+03</totfact>
</mgrwt>
</event>
<event>
 8    1  0.7366917E-004  0.1125651E+03  0.7546771E-02  0.1256889E+00
          1   -1    0    0  501    0  0.00000000000E+00  0.00000000000E+00  0.22083544125E+03  0.22083544125E+03  0.00000000000E+00 0. -1.
         -1   -1    0    0    0  501 -0.00000000000E+00 -0.00000000000E+00 -0.82938795572E+02  0.82938795572E+02  0.00000000000E+00 0.  1.
         23    2    1    2    0    0 -0.62459366761E+02  0.12578737678E+02 -0.16727341005E+02  0.11380115672E+03  0.92798179917E+02 0.  0.
         23    2    1    2    0    0  0.62459366761E+02 -0.12578737678E+02  0.15462398669E+03  0.18997308010E+03  0.90121011801E+02 0.  0.
          5    1    4    4  502    0  0.57662132396E+02  0.31160408852E+02  0.84310895786E+02  0.10689391816E+03  0.47000000000E+01 0. -1.
         -5    1    3    3    0  503 -0.83514623153E+01 -0.37232623176E+02 -0.10679027677E+01  0.38460961607E+02  0.47000000000E+01 0.  1.
          5    1    3    3  503    0 -0.54107904446E+02  0.49811360855E+02 -0.15659438237E+02  0.75340195113E+02  0.47000000000E+01 0. -1.
         -5    1    4    4    0  502  0.47972343647E+01 -0.43739146531E+02  0.70313090900E+02  0.83079161940E+02  0.47000000000E+01 0.  1.
<mgrwt>
<rscale>  0 0.11201186E+03</rscale>
<asrwt>0</asrwt>
<pdfrwt beam="1">  1        1 0.33974683E-01 0.11256509E+03</pdfrwt>
<pdfrwt beam="2">  1       -1 0.12759815E-01 0.11256509E+03</pdfrwt>
<totfact> 0.50810355E+03</totfact>
</mgrwt>
</event>
<event>
 8    1  0.7366917E-004  0.1034162E+03  0.7546771E-02  0.1273415E+00
          3   -1    0    0  501    0  0.00000000000E+00  0.00000000000E+00  0.11542451123E+03  0.11542451123E+03  0.00000000000E+00 0. -1.
         -3   -1    0    0    0  501 -0.00000000000E+00 -0.00000000000E+00 -0.10344426489E+03  0.10344426489E+03  0.00000000000E+00 0.  1.
         23    2    1    2    0    0  0.47231317294E+02 -0.12921045167E+02 -0.29769869737E+02  0.10734311528E+03  0.90766450367E+02 0.  0.
         23    2    1    2    0    0 -0.47231317294E+02  0.12921045167E+02  0.41750116077E+02  0.11152566084E+03  0.91088693545E+02 0.  0.
          5    1    4    4  502    0 -0.58856715774E+02 -0.17042656533E+02  0.37984709198E+01  0.61571775310E+02  0.47000000000E+01 0. -1.
         -5    1    4    4    0  502  0.11625398481E+02  0.29963701700E+02  0.37951645158E+02  0.49953885530E+02  0.47000000000E+01 0.  1.
          5    1    3    3  503    0  0.97396168472E+01 -0.24892758146E+02  0.26883395280E+02  0.38201001115E+02  0.47000000000E+01 0. -1.
         -5    1    3    3    0  503  0.37491700446E+02  0.11971712979E+02 -0.56653265017E+02  0.69142114164E+02  0.47000000000E+01 0.  1.
<mgrwt>
<rscale>  0 0.10334515E+03</rscale>
<asrwt>0</asrwt>
<pdfrwt beam="1">  1        3 0.17757617E-01 0.10341615E+03</pdfrwt>
<pdfrwt beam="2">  1       -3 0.15914502E-01 0.10341615E+03</pdfrwt>
<totfact> 0.20216974E+03</totfact>
</mgrwt>
</event>
<event>
 8    1  0.7366917E-004  0.1008249E+03  0.7546771E-02  0.1281834E+00
          1   -1    0    0  501    0  0.00000000000E+00  0.00000000000E+00  0.41800435182E+02  0.41800435182E+02  0.00000000000E+00 0. -1.
         -1   -1    0    0    0  501 -0.00000000000E+00 -0.00000000000E+00 -0.23307427087E+03  0.23307427087E+03  0.00000000000E+00 0.  1.
         23    2    1    2    0    0 -0.34854167687E+01 -0.18666906037E+02 -0.11720012687E+03  0.15460120707E+03  0.99020512919E+02 0.  0.
         23    2    1    2    0    0  0.34854167687E+01  0.18666906037E+02 -0.74073708817E+02  0.12027349898E+03  0.92834253957E+02 0.  0.
          5    1    4    4  502    0 -0.11196798526E+02 -0.26729998394E+02  0.29929209402E+01  0.29511162077E+02  0.47000000000E+01 0.  1.
         -5    1    4    4    0  502  0.14682215294E+02  0.45396904431E+02 -0.77066629758E+02  0.90762336903E+02  0.47000000000E+01 0. -1.
          5    1    3    3  503    0  0.47123445221E+02 -0.44370123973E+01 -0.48064900769E+02  0.67621230797E+02  0.47000000000E+01 0. -1.
         -5    1    3    3    0  503 -0.50608861990E+02 -0.14229893640E+02 -0.69135226103E+02  0.86979976277E+02  0.47000000000E+01 0.  1.
<mgrwt>
<rscale>  0 0.99272324E+02</rscale>
<asrwt>0</asrwt>
<pdfrwt beam="1">  1        1 0.64308361E-02 0.10082492E+03</pdfrwt>
<pdfrwt beam="2">  1       -1 0.35857580E-01 0.10082492E+03</pdfrwt>
<totfact> 0.80980979E+03</totfact>
</mgrwt>
</event>
<event>
 8    1  0.7366917E-004  0.1476258E+03  0.7546771E-02  0.1206206E+00
         -3   -1    0    0    0  501 -0.00000000000E+00  0.00000000000E+00  0.25740364761E+03  0.25740364761E+03  0.00000000000E+00 0.  1.
          3   -1    0    0  501    0  0.00000000000E+00 -0.00000000000E+00 -0.85078419099E+02  0.85078419099E+02  0.00000000000E+00 0. -1.
         23    2    1    2    0    0 -0.88324690829E+02  0.75480507312E+02  0.13119140771E+03  0.19749574290E+03  0.91075929936E+02 0.  0.
         23    2    1    2    0    0  0.88324690829E+02 -0.75480507312E+02  0.41133820802E+02  0.14498632381E+03  0.76357611820E+02 0.  0.
          5    1    3    3  502    0  0.26317532817E+01  0.33418284989E+02  0.19752732983E+01  0.33907220493E+02  0.47000000000E+01 0. -1.
         -5    1    4    4    0  503  0.42347176504E+02 -0.32964057193E+02  0.58803960328E+02  0.79749032438E+02  0.47000000000E+01 0.  1.
          5    1    4    4  503    0  0.45977514325E+02 -0.42516450119E+02 -0.17670139526E+02  0.65237291368E+02  0.47000000000E+01 0. -1.
         -5    1    3    3    0  502 -0.90956444111E+02  0.42062222322E+02  0.12921613441E+03  0.16358852241E+03  0.47000000000E+01 0.  1.
<mgrwt>
<rscale>  0 0.14542800E+03</rscale>
<asrwt>0</asrwt>
<pdfrwt beam="1">  1        3 0.13088988E-01 0.14762582E+03</pdfrwt>
<pdfrwt beam="2">  1       -3 0.39600561E-01 0.14762582E+03</pdfrwt>
<totfact> 0.69531932E+02</totfact>
</mgrwt>
</event>
<event>
 8    1  0.7366917E-004  0.1245247E+03  0.7546771E-02  0.1237370E+00
         -2   -1    0    0    0  501 -0.00000000000E+00  0.00000000000E+00  0.38863367635E+03  0.38863367635E+03  0.00000000000E+00 0. -1.
          2   -1    0    0  501    0  0.00000000000E+00 -0.00000000000E+00 -0.41986121311E+02  0.41986121311E+02  0.00000000000E+00 0.  1.
         23    2    1    2    0    0 -0.18832726970E+02  0.77227848403E+02  0.23644157812E+03  0.26722838349E+03  0.95851848737E+02 0.  0.
         23    2    1    2    0    0  0.18832726970E+02 -0.77227848403E+02  0.11020597692E+03  0.16339141416E+03  0.90733591910E+02 0.  0.
          5    1    3    3  502    0 -0.40616877530E+02  0.89961948222E+02  0.18491463829E+03  0.20966257730E+03  0.47000000000E+01 0. -1.
         -5    1    3    3    0  502  0.21784150560E+02 -0.12734099820E+02  0.51526939832E+02  0.57565806190E+02  0.47000000000E+01 0.  1.
          5    1    4    4  503    0  0.39539147872E+02 -0.84481366213E+02  0.10467226831E+03  0.14028121473E+03  0.47000000000E+01 0. -1.
         -5    1    4    4    0  503 -0.20706420902E+02  0.72535178101E+01  0.55337086054E+01  0.23110199440E+02  0.47000000000E+01 0.  1.
<mgrwt>
<rscale>  0 0.12353914E+03</rscale>
<asrwt>0</asrwt>
<pdfrwt beam="1">  1        2 0.64594036E-02 0.12452465E+03</pdfrwt>
<pdfrwt beam="2">  1       -2 0.59789794E-01 0.12452465E+03</pdfrwt>
<totfact> 0.28456376E+03</totfact>
</mgrwt>
</event>
<event>
 8    1  0.7366917E-004  0.9854439E+02  0.7546771E-02  0.1284572E+00
         -2   -1    0    0    0  501 -0.00000000000E+00  0.00000000000E+00  0.53443639316E+02  0.53443639316E+02  0.00000000000E+00 0.  1.
          2   -1    0    0  501    0  0.00000000000E+00 -0.00000000000E+00 -0.17793912658E+03  0.17793912658E+03  0.00000000000E+00 0. -1.
         23    2    1    2    0    0  0.34221557334E+02  0.62744477348E+01 -0.65779949166E+02  0.11667221444E+03  0.89860559917E+02 0.  0.
         23    2    1    2    0    0 -0.34221557334E+02 -0.62744477348E+01 -0.58715538098E+02  0.11471055146E+03  0.92198224068E+02 0.  0.
          5    1    3    3  502    0  0.19990393341E+02 -0.34030545779E+02 -0.20598234256E+01  0.39799833473E+02  0.47000000000E+01 0. -1.
         -5    1    3    3    0  502  0.14231163993E+02  0.40304993513E+02 -0.63720125740E+02  0.76872380964E+02  0.47000000000E+01 0.  1.
          5    1    4    4  503    0  0.21526700025E+02 -0.89134964022E+01 -0.53399770212E+02  0.58450617540E+02  0.47000000000E+01 0. -1.
         -5    1    4    4    0  503 -0.55748257359E+02  0.26390486674E+01 -0.53157678855E+01  0.56259933920E+02  0.47000000000E+01 0.  1.
<mgrwt>
<rscale>  0 0.97993895E+02</rscale>
<asrwt>0</asrwt>
<pdfrwt beam="1">  1        2 0.27375250E-01 0.98544387E+02</pdfrwt>
<pdfrwt beam="2">  1       -2 0.82220984E-02 0.98544387E+02</pdfrwt>
<totfact> 0.15924212E+04</totfact>
</mgrwt>
</event>
<event>
 8    1  0.7366917E-004  0.9614797E+02  0.7546771E-02  0.1288767E+00
          3   -1    0    0  501    0  0.00000000000E+00  0.00000000000E+00  0.40319237985E+02  0.40319237985E+02  0.00000000000E+00 0. -1.
         -3   -1    0    0    0  501 -0.00000000000E+00 -0.00000000000E+00 -0.28748143959E+03  0.28748143959E+03  0.00000000000E+00 0.  1.
         23    2    1    2    0    0 -0.10034157365E+02 -0.23360384696E+02 -0.19760502457E+03  0.21963253883E+03  0.92435461218E+02 0.  0.
         23    2    1    2    0    0  0.10034157365E+02  0.23360384696E+02 -0.49557177039E+02  0.10816813875E+03  0.92725619746E+02 0.  0.
          5    1    4    4  502    0 -0.36326768120E+02 -0.60997960996E+01 -0.53804054142E+01  0.37521731795E+02  0.47000000000E+01 0. -1.
         -5    1    3    3    0  503  0.17790043012E+02 -0.49389385329E+02 -0.78988090587E+02  0.94957914195E+02  0.47000000000E+01 0.  1.
          5    1    3    3  503    0 -0.27824200376E+02  0.26029000634E+02 -0.11861693398E+03  0.12467462463E+03  0.47000000000E+01 0. -1.
         -5    1    4    4    0  502  0.46360925485E+02  0.29460180795E+02 -0.44176771625E+02  0.70646406954E+02  0.47000000000E+01 0.  1.
<mgrwt>
<rscale>  0 0.96077945E+02</rscale>
<asrwt>0</asrwt>
<pdfrwt beam="1">  1        3 0.62029596E-02 0.96147972E+02</pdfrwt>
<pdfrwt beam="2">  1       -3 0.44227914E-01 0.96147972E+02</pdfrwt>
<totfact> 0.17726399E+03</totfact>
</mgrwt>
</event>
<event>
 8    1  0.7366917E-004  0.1095731E+03  0.7546771E-02  0.1262233E+00
          1   -1    0    0  501    0  0.00000000000E+00  0.00000000000E+00  0.66748449288E+03  0.66748449288E+03  0.00000000000E+00 0. -1.
         -1   -1    0    0    0  501 -0.00000000000E+00 -0.00000000000E+00 -0.32494926355E+02  0.32494926355E+02  0.00000000000E+00 0.  1.
         23    2    1    2    0    0  0.19103658493E+02  0.57136220309E+02  0.55524894501E+03  0.56595728849E+03  0.91524663437E+02 0.  0.
         23    2    1    2    0    0 -0.19103658493E+02 -0.57136220309E+02  0.79740621510E+02  0.13402213074E+03  0.89296513770E+02 0.  0.
          5    1    3    3  502    0  0.45529971219E+02  0.66725433718E+02  0.42344342054E+03  0.43110518691E+03  0.47000000000E+01 0. -1.
         -5    1    3    3    0  502 -0.26426312727E+02 -0.95892134098E+01  0.13180552448E+03  0.13485210158E+03  0.47000000000E+01 0.  1.
          5    1    4    4  503    0  0.12243641019E+02 -0.62778008496E+02  0.79083176893E+02  0.10181956572E+03  0.47000000000E+01 0. -1.
         -5    1    4    4    0  503 -0.31347299512E+02  0.56417881877E+01  0.65744461696E+00  0.32202565023E+02  0.47000000000E+01 0.  1.
<mgrwt>
<rscale>  0 0.10910657E+03</rscale>
<asrwt>0</asrwt>
<pdfrwt beam="1">  1        1 0.10268991E+00 0.10957309E+03</pdfrwt>
<pdfrwt beam="2">  1       -1 0.49992199E-02 0.10957309E+03</pdfrwt>
<totfact> 0.50944511E+03</totfact>
</mgrwt>
</event>
<event>
 8    1  0.7366917E-004  0.1192077E+03  0.7546771E-02  0.1244964E+00
          1   -1    0    0  501    0  0.00000000000E+00  0.00000000000E+00  0.94225289510E+03  0.94225289510E+03  0.00000000000E+00 0. -1.
         -1   -1    0    0    0  501 -0.00000000000E+00 -0.00000000000E+00 -0.15139061394E+02  0.15139061394E+02  0.00000000000E+00 0.  1.
         23    2    1    2    0    0 -0.63907380418E+02 -0.43089314102E+02  0.51933031898E+03  0.53254153688E+03  0.89194540336E+02 0.  0.
         23    2    1    2    0    0  0.63907380418E+02  0.43089314102E+02  0.40778351473E+03  0.42485041962E+03  0.90937571468E+02 0.  0.
          5    1    4    4  502    0  0.42616793035E+02  0.74111469407E+01  0.35430264070E+03  0.35696437827E+03  0.47000000000E+01 0. -1.
         -5    1    4    4    0  502  0.21290587382E+02  0.35678167162E+02  0.53480874031E+02  0.67886041350E+02  0.47000000000E+01 0.  1.
          5    1    3    3  503    0 -0.22573655941E+01  0.24888341210E+02  0.92468337683E+02  0.95901035977E+02  0.47000000000E+01 0. -1.
         -5    1    3    3    0  503 -0.61650014823E+02 -0.67977655312E+02  0.42686198130E+03  0.43664050090E+03  0.47000000000E+01 0.  1.
<mgrwt>
<rscale>  0 0.11887528E+03</rscale>
<asrwt>0</asrwt>
<pdfrwt beam="1">  1        1 0.14496194E+00 0.11920774E+03</pdfrwt>
<pdfrwt beam="2">  1       -1 0.23290871E-02 0.11920774E+03</pdfrwt>
<totfact> 0.92859118E+03</totfact>
</mgrwt>
</event>
<event>
 8    1  0.7366917E-004  0.1097814E+03  0.7546771E-02  0.1261138E+00
          1   -1    0    0  501    0  0.00000000000E+00  0.00000000000E+00  0.82774351459E+03  0.82774351459E+03  0.00000000000E+00 0. -1.
         -1   -1    0    0    0  501 -0.00000000000E+00 -0.00000000000E+00 -0.29044216879E+02  0.29044216879E+02  0.00000000000E+00 0.  1.
         23    2    1    2    0    0  0.36202135349E+02  0.46056547918E+02  0.96659700550E+02  0.14627050944E+03  0.92844838363E+02 0.  0.
         23    2    1    2    0    0 -0.36202135349E+02 -0.46056547918E+02  0.70203959716E+03  0.71051722203E+03  0.92430117451E+02 0.  0.
          5    1    4    4  502    0 -0.56096255714E+02 -0.58405440754E+02  0.61246947364E+03  0.61781787896E+03  0.47000000000E+01 0. -1.
         -5    1    4    4    0  502  0.19894120365E+02  0.12348892836E+02  0.89570123514E+02  0.92699343071E+02  0.47000000000E+01 0.  1.
          5    1    3    3  503    0 -0.22182622281E+02  0.51249418366E+01  0.63251954747E+02  0.67388675157E+02  0.47000000000E+01 0. -1.
         -5    1    3    3    0  503  0.58384757629E+02  0.40931606081E+02  0.33407745803E+02  0.78881834280E+02  0.47000000000E+01 0.  1.
<mgrwt>
<rscale>  0 0.10969370E+03</rscale>
<asrwt>0</asrwt>
<pdfrwt beam="1">  1        1 0.12734514E+00 0.10978144E+03</pdfrwt>
<pdfrwt beam="2">  1       -1 0.44683417E-02 0.10978144E+03</pdfrwt>
<totfact> 0.43961566E+03</totfact>
</mgrwt>
</event>
<event>
 8    1  0.7366917E-004  0.1892047E+03  0.7546771E-02  0.1160133E+00
         -1   -1    0    0    0  501 -0.00000000000E+00  0.00000000000E+00  0.11546209296E+03  0.11546209296E+03  0.00000000000E+00 0.  1.
          1   -1    0    0  501    0  0.00000000000E+00 -0.00000000000E+00 -0.51409782289E+03  0.51409782289E+03  0.00000000000E+00 0. -1.
         23    2    1    2    0    0 -0.87041626122E+02  0.13826313864E+03 -0.40218864548E+03  0.44447062617E+03  0.95422695363E+02 0.  0.
         23    2    1    2    0    0  0.87041626122E+02 -0.13826313864E+03  0.35529155526E+01  0.18508928968E+03  0.86905015745E+02 0.  0.
          5    1    3    3  502    0 -0.79891324614E+02  0.11132992284E+03 -0.21388862346E+03  0.25406182065E+03  0.47000000000E+01 0. -1.
         -5    1    3    3    0  502 -0.71503015081E+01  0.26933215796E+02 -0.18830002203E+03  0.19040880552E+03  0.47000000000E+01 0.  1.
          5    1    4    4  503    0  0.25716312314E+02  0.66021316957E+01 -0.52203777392E+01  0.27463779887E+02  0.47000000000E+01 0. -1.
         -5    1    4    4    0  503  0.61325313808E+02 -0.14486527033E+03  0.87732932918E+01  0.15762550979E+03  0.47000000000E+01 0.  1.
<mgrwt>
<rscale>  0 0.18815870E+03</rscale>
<asrwt>0</asrwt>
<pdfrwt beam="1">  1        1 0.79091973E-01 0.18920473E+03</pdfrwt>
<pdfrwt beam="2">  1       -1 0.17763399E-01 0.18920473E+03</pdfrwt>
<totfact> 0.10638691E+03</totfact>
</mgrwt>
</event>
<event>
 8    1  0.7366917E-004  0.1153814E+03  0.7546771E-02  0.1250975E+00
          1   -1    0    0  501    0  0.00000000000E+00  0.00000000000E+00  0.50217560426E+03  0.50217560426E+03  0.00000000000E+00 0. -1.
         -1   -1    0    0    0  501 -0.00000000000E+00 -0.00000000000E+00 -0.31695585785E+02  0.31695585785E+02  0.00000000000E+00 0.  1.
         23    2    1    2    0    0 -0.99807871671E+01 -0.68618913841E+02  0.12706712231E+03  0.17163600974E+03  0.92220902279E+02 0.  0.
         23    2    1    2    0    0  0.99807871671E+01  0.68618913841E+02  0.34341289617E+03  0.36223518031E+03  0.92052904086E+02 0.  0.
          5    1    3    3  502    0  0.18101230656E+02 -0.80760758601E+02  0.79318335108E+02  0.11473204855E+03  0.47000000000E+01 0. -1.
         -5    1    4    4    0  503  0.45876907165E+02  0.51450718284E+02  0.15646194090E+03  0.17103887269E+03  0.47000000000E+01 0.  1.
          5    1    4    4  503    0 -0.35896119998E+02  0.17168195557E+02  0.18695095527E+03  0.19119630762E+03  0.47000000000E+01 0. -1.
         -5    1    3    3    0  502 -0.28082017823E+02  0.12141844759E+02  0.47748787200E+02  0.56903961182E+02  0.47000000000E+01 0.  1.
<mgrwt>
<rscale>  0 0.11534782E+03</rscale>
<asrwt>0</asrwt>
<pdfrwt beam="1">  1        1 0.77257780E-01 0.11538139E+03</pdfrwt>
<pdfrwt beam="2">  1       -1 0.48762443E-02 0.11538139E+03</pdfrwt>
<totfact> 0.77639991E+03</totfact>
</mgrwt>
</event>
<event>
 8    1  0.7366917E-004  0.9954303E+02  0.7546771E-02  0.1281544E+00
          2   -1    0    0  501    0  0.00000000000E+00  0.00000000000E+00  0.20492843161E+03  0.20492843161E+03  0.00000000000E+00 0. -1.
         -2   -1    0    0    0  501 -0.00000000000E+00 -0.00000000000E+00 -0.77076029971E+02  0.77076029971E+02  0.00000000000E+00 0.  1.
         23    2    1    2    0    0 -0.26678298087E+02 -0.27084553288E+02  0.15028377952E+03  0.17996534576E+03  0.91416665172E+02 0.  0.
         23    2    1    2    0    0  0.26678298087E+02  0.27084553288E+02 -0.22431377877E+02  0.10203911583E+03  0.91997335991E+02 0.  0.
          5    1    4    4  502    0 -0.12923319110E+02  0.17663336315E+02  0.28774093052E+02  0.36456056528E+02  0.47000000000E+01 0. -1.
         -5    1    4    4    0  502  0.39601617197E+02  0.94212169736E+01 -0.51205470929E+02  0.65583059299E+02  0.47000000000E+01 0.  1.
          5    1    3    3  503    0 -0.43089762436E+02  0.17720164337E+02  0.48302563644E+02  0.67275251806E+02  0.47000000000E+01 0. -1.
         -5    1    3    3    0  503  0.16411464348E+02 -0.44804717625E+02  0.10198121587E+03  0.11269009395E+03  0.47000000000E+01 0.  1.
<mgrwt>
<rscale>  0 0.99408655E+02</rscale>
<asrwt>0</asrwt>
<pdfrwt beam="1">  1        2 0.31527451E-01 0.99543028E+02</pdfrwt>
<pdfrwt beam="2">  1       -2 0.11857851E-01 0.99543028E+02</pdfrwt>
<totfact> 0.77424233E+03</totfact>
</mgrwt>
</event>
<event>
 8    1  0.7366917E-004  0.1275823E+03  0.7546771E-02  0.1231704E+00
          2   -1    0    0  501    0  0.00000000000E+00  0.00000000000E+00  0.53715468781E+03  0.53715468781E+03  0.00000000000E+00 0. -1.
         -2   -1    0    0    0  501 -0.00000000000E+00 -0.00000000000E+00 -0.37870493722E+02  0.37870493722E+02  0.00000000000E+00 0.  1.
         23    2    1    2    0    0 -0.85927805866E+02  0.29348980526E+02  0.11667329752E+03  0.17170355518E+03  0.87318394561E+02 0.  0.
         23    2    1    2    0    0  0.85927805866E+02 -0.29348980526E+02  0.38261089656E+03  0.40332162635E+03  0.89623019539E+02 0.  0.
          5    1    4    4  502    0  0.55211023278E+01 -0.37366135590E+02  0.62868571512E+02  0.73493251009E+02  0.47000000000E+01 0. -1.
         -5    1    3    3    0  503  0.12852547374E+02  0.22346513052E+02  0.31724251713E+02  0.41146965457E+02  0.47000000000E+01 0.  1.
          5    1    3    3  503    0 -0.98780353240E+02  0.70024674742E+01  0.84949045812E+02  0.13055658973E+03  0.47000000000E+01 0. -1.
         -5    1    4    4    0  502  0.80406703538E+02  0.80171550637E+01  0.31974232505E+03  0.32982837534E+03  0.47000000000E+01 0.  1.
<mgrwt>
<rscale>  0 0.12717829E+03</rscale>
<asrwt>0</asrwt>
<pdfrwt beam="1">  1        2 0.82639177E-01 0.12758227E+03</pdfrwt>
<pdfrwt beam="2">  1       -2 0.58262302E-02 0.12758227E+03</pdfrwt>
<totfact> 0.84596493E+03</totfact>
</mgrwt>
</event>
<event>
 8    1  0.7366917E-004  0.9313529E+02  0.7546771E-02  0.1297358E+00
          1   -1    0    0  501    0  0.00000000000E+00  0.00000000000E+00  0.37154934803E+03  0.37154934803E+03  0.00000000000E+00 0. -1.
         -1   -1    0    0    0  501 -0.00000000000E+00 -0.00000000000E+00 -0.23789355248E+02  0.23789355248E+02  0.00000000000E+00 0.  1.
         23    2    1    2    0    0 -0.15029730423E+02 -0.15615383759E+02  0.22221418354E+03  0.24094257583E+03  0.90578410638E+02 0.  0.
         23    2    1    2    0    0  0.15029730423E+02  0.15615383759E+02  0.12554580924E+03  0.15439612745E+03  0.87216288313E+02 0.  0.
          5    1    4    4  502    0  0.45618862935E+02  0.11792997626E+02  0.10955790142E+03  0.11935317010E+03  0.47000000000E+01 0. -1.
         -5    1    4    4    0  502 -0.30589132512E+02  0.38223861335E+01  0.15987907821E+02  0.35042957354E+02  0.47000000000E+01 0.  1.
          5    1    3    3  503    0  0.35861620232E+02 -0.15639944768E+02  0.12570033792E+03  0.13173203343E+03  0.47000000000E+01 0. -1.
         -5    1    3    3    0  503 -0.50891350656E+02  0.24561008896E-01  0.96513845623E+02  0.10921054240E+03  0.47000000000E+01 0.  1.
<mgrwt>
<rscale>  0 0.92307717E+02</rscale>
<asrwt>0</asrwt>
<pdfrwt beam="1">  1        1 0.57161434E-01 0.93135286E+02</pdfrwt>
<pdfrwt beam="2">  1       -1 0.36599011E-02 0.93135286E+02</pdfrwt>
<totfact> 0.16962988E+04</totfact>
</mgrwt>
</event>
<event>
 8    1  0.7366917E-004  0.9501475E+02  0.7546771E-02  0.1291194E+00
         -1   -1    0    0    0  501 -0.00000000000E+00  0.00000000000E+00  0.16054904129E+02  0.16054904129E+02  0.00000000000E+00 0.  1.
          1   -1    0    0  501    0  0.00000000000E+00 -0.00000000000E+00 -0.56262545529E+03  0.56262545529E+03  0.00000000000E+00 0. -1.
         23    2    1    2    0    0 -0.12634569652E+02 -0.12099656017E+02 -0.28440529080E+03  0.29982838081E+03  0.93298737826E+02 0.  0.
         23    2    1    2    0    0  0.12634569652E+02  0.12099656017E+02 -0.26216526036E+03  0.27885197861E+03  0.93390407464E+02 0.  0.
          5    1    3    3  502    0  0.23291738959E+02  0.30599302741E+02 -0.12555076699E+03  0.13139218974E+03  0.47000000000E+01 0. -1.
         -5    1    3    3    0  502 -0.35926308611E+02 -0.42698958758E+02 -0.15885452380E+03  0.16843619107E+03  0.47000000000E+01 0.  1.
          5    1    4    4  503    0 -0.24089486316E+02  0.26707071229E+02 -0.21066250937E+03  0.21376237709E+03  0.47000000000E+01 0. -1.
         -5    1    4    4    0  503  0.36724055968E+02 -0.14607415212E+02 -0.51502750988E+02  0.65089601514E+02  0.47000000000E+01 0.  1.
<mgrwt>
<rscale>  0 0.94992214E+02</rscale>
<asrwt>0</asrwt>
<pdfrwt beam="1">  1        1 0.86557743E-01 0.95014747E+02</pdfrwt>
<pdfrwt beam="2">  1       -1 0.24699858E-02 0.95014747E+02</pdfrwt>
<totfact> 0.17689201E+04</totfact>
</mgrwt>
</event>
<event>
 8    1  0.7366917E-004  0.9421066E+02  0.7546771E-02  0.1295545E+00
          4   -1    0    0  501    0  0.00000000000E+00  0.00000000000E+00  0.12003249046E+02  0.12003249046E+02  0.00000000000E+00 0. -1.
         -4   -1    0    0    0  501 -0.00000000000E+00 -0.00000000000E+00 -0.77337833793E+03  0.77337833793E+03  0.00000000000E+00 0.  1.
         23    2    1    2    0    0  0.70412954091E+01 -0.11739707542E+01 -0.25576528774E+03  0.27106950266E+03  0.89508853246E+02 0.  0.
         23    2    1    2    0    0 -0.70412954091E+01  0.11739707542E+01 -0.50560980115E+03  0.51431208432E+03  0.93939826568E+02 0.  0.
          5    1    3    3  502    0  0.47718024985E+02  0.56210965607E+01 -0.13937496694E+03  0.14749941710E+03  0.47000000000E+01 0. -1.
         -5    1    4    4    0  503 -0.42489304776E+02  0.20630062375E+02 -0.36010880945E+03  0.36322360212E+03  0.47000000000E+01 0.  1.
          5    1    4    4  503    0  0.35448009367E+02 -0.19456091621E+02 -0.14550099170E+03  0.15108848220E+03  0.47000000000E+01 0. -1.
         -5    1    3    3    0  502 -0.40676729576E+02 -0.67950673149E+01 -0.11639032080E+03  0.12357008555E+03  0.47000000000E+01 0.  1.
<mgrwt>
<rscale>  0 0.93086293E+02</rscale>
<asrwt>0</asrwt>
<pdfrwt beam="1">  1        4 0.18466541E-02 0.94210663E+02</pdfrwt>
<pdfrwt beam="2">  1       -4 0.11898126E+00 0.94210663E+02</pdfrwt>
<totfact> 0.99474454E+02</totfact>
</mgrwt>
</event>
<event>
 8    1  0.7366917E-004  0.1009373E+03  0.7546771E-02  0.1281124E+00
         -3   -1    0    0    0  501 -0.00000000000E+00  0.00000000000E+00  0.16602894210E+03  0.16602894210E+03  0.00000000000E+00 0.  1.
          3   -1    0    0  501    0  0.00000000000E+00 -0.00000000000E+00 -0.65536939268E+02  0.65536939268E+02  0.00000000000E+00 0. -1.
         23    2    1    2    0    0 -0.18536641184E+01 -0.43258075802E+02  0.10425135479E+02  0.96286965990E+02  0.85368607679E+02 0.  0.
         23    2    1    2    0    0  0.18536641184E+01  0.43258075802E+02  0.90066867352E+02  0.13527891538E+03  0.91179203542E+02 0.  0.
          5    1    4    4  502    0 -0.13520924010E+02 -0.25046209431E+02  0.14973517735E+02  0.32502680294E+02  0.47000000000E+01 0. -1.
         -5    1    3    3    0  503 -0.37746266694E+02 -0.45658267128E+02  0.73161889102E+01  0.59875492705E+02  0.47000000000E+01 0.  1.
          5    1    3    3  503    0  0.35892602576E+02  0.24001913254E+01  0.31089465692E+01  0.36411473286E+02  0.47000000000E+01 0. -1.
         -5    1    4    4    0  502  0.15374588128E+02  0.68304285233E+02  0.75093349618E+02  0.10277623508E+03  0.47000000000E+01 0.  1.
<mgrwt>
<rscale>  0 0.99607166E+02</rscale>
<asrwt>0</asrwt>
<pdfrwt beam="1">  1        3 0.10082606E-01 0.10093733E+03</pdfrwt>
<pdfrwt beam="2">  1       -3 0.25542914E-01 0.10093733E+03</pdfrwt>
<totfact> 0.22764753E+03</totfact>
</mgrwt>
</event>
<event>
 8    1  0.7992588E-004  0.2364739E+03  0.7546771E-02  0.1122880E+00
          1   -1    0    0  501    0  0.00000000000E+00  0.00000000000E+00  0.20384318288E+03  0.20384318288E+03  0.00000000000E+00 0. -1.
         -1   -1    0    0    0  501 -0.00000000000E+00 -0.00000000000E+00 -0.15861217205E+04  0.15861217205E+04  0.00000000000E+00 0.  1.
         23    2    1    2    0    0  0.18961866654E+03 -0.10808549584E+03  0.12531241259E+03  0.26394052540E+03  0.79521613973E+02 0.  0.
         23    2    1    2    0    0 -0.18961866654E+03  0.10808549584E+03 -0.15075909502E+04  0.15260243780E+04  0.91006680589E+02 0.  0.
          5    1    4    4  502    0 -0.56983671238E+02  0.12271719679E+02 -0.20464881157E+03  0.21284022169E+03  0.47000000000E+01 0. -1.
         -5    1    3    3    0  503  0.26542238709E+02 -0.79089878229E+01 -0.96526658933E+01  0.29703644270E+02  0.47000000000E+01 0.  1.
          5    1    3    3  503    0  0.16307642784E+03 -0.10017650802E+03  0.13496507848E+03  0.23423688113E+03  0.47000000000E+01 0. -1.
         -5    1    4    4    0  502 -0.13263499531E+03  0.95813776160E+02 -0.13029421386E+04  0.13131841563E+04  0.47000000000E+01 0.  1.
<mgrwt>
<rscale>  0 0.23542245E+03</rscale>
<asrwt>0</asrwt>
<pdfrwt beam="1">  1        1 0.31360488E-01 0.23647395E+03</pdfrwt>
<pdfrwt beam="2">  1       -1 0.24401874E+00 0.23647395E+03</pdfrwt>
<totfact> 0.12651533E+01</totfact>
</mgrwt>
</event>
<event>
 8    1  0.7366917E-004  0.1072286E+03  0.7546771E-02  0.1272957E+00
         -3   -1    0    0    0  501 -0.00000000000E+00  0.00000000000E+00  0.44443971766E+02  0.44443971766E+02  0.00000000000E+00 0.  1.
          3   -1    0    0  501    0  0.00000000000E+00 -0.00000000000E+00 -0.24747934019E+03  0.24747934019E+03  0.00000000000E+00 0. -1.
         23    2    1    2    0    0 -0.37410452901E+02 -0.42720953842E+02 -0.13771914530E+03  0.16636785292E+03  0.74074810964E+02 0.  0.
         23    2    1    2    0    0  0.37410452901E+02  0.42720953842E+02 -0.65316223118E+02  0.12555545903E+03  0.90957915581E+02 0.  0.
          5    1    3    3  502    0 -0.30343049458E+02 -0.22733640693E+02 -0.13944564217E+03  0.14458456415E+03  0.47000000000E+01 0. -1.
         -5    1    4    4    0  503 -0.17452102561E+02  0.27972942865E+02 -0.59588932420E+02  0.68264136143E+02  0.47000000000E+01 0.  1.
          5    1    4    4  503    0  0.54862555462E+02  0.14748010978E+02 -0.57272906975E+01  0.57291322889E+02  0.47000000000E+01 0. -1.
         -5    1    3    3    0  502 -0.70674034431E+01 -0.19987313150E+02  0.17264968676E+01  0.21783288774E+02  0.47000000000E+01 0.  1.
<mgrwt>
<rscale>  0 0.10357280E+03</rscale>
<asrwt>0</asrwt>
<pdfrwt beam="1">  1        3 0.38073746E-01 0.10722856E+03</pdfrwt>
<pdfrwt beam="2">  1       -3 0.68375339E-02 0.10722856E+03</pdfrwt>
<totfact> 0.20676442E+03</totfact>
</mgrwt>
</event>
<event>
 8    1  0.7366917E-004  0.1061601E+03  0.7546771E-02  0.1269832E+00
         -1   -1    0    0    0  501 -0.00000000000E+00  0.00000000000E+00  0.12277308270E+03  0.12277308270E+03  0.00000000000E+00 0.  1.
          1   -1    0    0  501    0  0.00000000000E+00 -0.00000000000E+00 -0.11679271288E+03  0.11679271288E+03  0.00000000000E+00 0. -1.
         23    2    1    2    0    0  0.39496276494E+02 -0.27803047796E+02  0.62029459071E+02  0.11951806058E+03  0.90021928932E+02 0.  0.
         23    2    1    2    0    0 -0.39496276494E+02  0.27803047796E+02 -0.56049089255E+02  0.12004773500E+03  0.94535670248E+02 0.  0.
          5    1    4    4  502    0 -0.19661438813E+02 -0.96860173369E+01 -0.71293133742E+02  0.74734142310E+02  0.47000000000E+01 0. -1.
         -5    1    3    3    0  503  0.54924289006E+02  0.46902062773E+00  0.66812991109E+02  0.86619647218E+02  0.47000000000E+01 0.  1.
          5    1    3    3  503    0 -0.15428012513E+02 -0.28272068424E+02 -0.47835320378E+01  0.32898413363E+02  0.47000000000E+01 0. -1.
         -5    1    4    4    0  502 -0.19834837681E+02  0.37489065133E+02  0.15244044487E+02  0.45313592692E+02  0.47000000000E+01 0.  1.
<mgrwt>
<rscale>  0 0.10514591E+03</rscale>
<asrwt>0</asrwt>
<pdfrwt beam="1">  1        1 0.17968110E-01 0.10616006E+03</pdfrwt>
<pdfrwt beam="2">  1       -1 0.18888167E-01 0.10616006E+03</pdfrwt>
<totfact> 0.60723151E+03</totfact>
</mgrwt>
</event>
<event>
 8    1  0.7366917E-004  0.9852375E+02  0.7546771E-02  0.1283697E+00
          1   -1    0    0  501    0  0.00000000000E+00  0.00000000000E+00  0.17222414487E+03  0.17222414487E+03  0.00000000000E+00 0. -1.
         -1   -1    0    0    0  501 -0.00000000000E+00 -0.00000000000E+00 -0.56454720315E+02  0.56454720315E+02  0.00000000000E+00 0.  1.
         23    2    1    2    0    0  0.37897685816E+02 -0.88476813241E+01  0.67345984966E+02  0.11934157666E+03  0.90511955977E+02 0.  0.
         23    2    1    2    0    0 -0.37897685816E+02  0.88476813241E+01  0.48423439587E+02  0.10933728852E+03  0.89973869006E+02 0.  0.
          5    1    3    3  502    0 -0.20024266894E+02 -0.16995680169E+02  0.52377257665E+02  0.58781727854E+02  0.47000000000E+01 0. -1.
         -5    1    4    4    0  503  0.12389523139E+02  0.16373505786E+02 -0.16486770742E+02  0.26748749220E+02  0.47000000000E+01 0.  1.
          5    1    4    4  503    0 -0.50287208955E+02 -0.75258244621E+01  0.64910210329E+02  0.82588539297E+02  0.47000000000E+01 0. -1.
         -5    1    3    3    0  502  0.57921952710E+02  0.81479988447E+01  0.14968727301E+02  0.60559848810E+02  0.47000000000E+01 0.  1.
<mgrwt>
<rscale>  0 0.98399997E+02</rscale>
<asrwt>0</asrwt>
<pdfrwt beam="1">  1        1 0.26496022E-01 0.98523755E+02</pdfrwt>
<pdfrwt beam="2">  1       -1 0.86853417E-02 0.98523755E+02</pdfrwt>
<totfact> 0.12265616E+04</totfact>
</mgrwt>
</event>
<event>
 7    1  0.7366917E-004  0.1208563E+03  0.7546771E-02  0.1259223E+00
          1   -1    0    0  501    0  0.00000000000E+00  0.00000000000E+00  0.97937840834E+03  0.97937840834E+03  0.00000000000E+00 0. -1.
         -1   -1    0    0    0  501 -0.00000000000E+00 -0.00000000000E+00 -0.12369770276E+02  0.12369770276E+02  0.00000000000E+00 0.  1.
         23    2    1    2    0    0 -0.23975453605E+02 -0.73500835009E+02  0.38449194091E+03  0.40303883282E+03  0.92892696226E+02 0.  0.
          5    1    1    2  502    0 -0.85636535988E+01  0.20956201005E+02  0.16835267644E+03  0.16993296381E+03  0.47000000000E+01 0. -1.
         -5    1    1    2    0  502  0.32539107204E+02  0.52544634004E+02  0.41416402071E+03  0.41877638199E+03  0.47000000000E+01 0.  1.
          5    1    3    3  503    0 -0.30316241320E+02 -0.24717157934E+02  0.31673079801E+03  0.31917158519E+03  0.47000000000E+01 0. -1.
         -5    1    3    3    0  503  0.63407877146E+01 -0.48783677075E+02  0.67761142901E+02  0.83867247630E+02  0.47000000000E+01 0.  1.
<mgrwt>
<rscale>  0 0.11073034E+03</rscale>
<asrwt>0</asrwt>
<pdfrwt beam="1">  1        1 0.15067354E+00 0.12085631E+03</pdfrwt>
<pdfrwt beam="2">  1       -1 0.19030423E-02 0.12085631E+03</pdfrwt>
<totfact> 0.11667205E+04</totfact>
</mgrwt>
</event>
<event>
 8    1  0.7366917E-004  0.1002247E+03  0.7546771E-02  0.1281953E+00
         -3   -1    0    0    0  501 -0.00000000000E+00  0.00000000000E+00  0.14276446666E+03  0.14276446666E+03  0.00000000000E+00 0.  1.
          3   -1    0    0  501    0  0.00000000000E+00 -0.00000000000E+00 -0.73972215224E+02  0.73972215224E+02  0.00000000000E+00 0. -1.
         23    2    1    2    0    0  0.21063136291E+02  0.22807266721E+02  0.66835342592E+02  0.12046553032E+03  0.95295088276E+02 0.  0.
         23    2    1    2    0    0 -0.21063136291E+02 -0.22807266721E+02  0.19569088485E+01  0.96271151571E+02  0.91106959157E+02 0.  0.
          5    1    4    4  502    0 -0.44403650365E+02 -0.20430245151E+00 -0.27266694440E+02  0.52319102925E+02  0.47000000000E+01 0. -1.
         -5    1    4    4    0  502  0.23340514074E+02 -0.22602964270E+02  0.29223603288E+02  0.43952048646E+02  0.47000000000E+01 0.  1.
          5    1    3    3  503    0 -0.17607432330E+01 -0.35727556023E+02  0.33282145606E+02  0.49085126996E+02  0.47000000000E+01 0. -1.
         -5    1    3    3    0  503  0.22823879524E+02  0.58534822745E+02  0.33553196986E+02  0.71380403321E+02  0.47000000000E+01 0.  1.
<mgrwt>
<rscale>  0 0.99216185E+02</rscale>
<asrwt>0</asrwt>
<pdfrwt beam="1">  1        3 0.11380341E-01 0.10022465E+03</pdfrwt>
<pdfrwt beam="2">  1       -3 0.21963764E-01 0.10022465E+03</pdfrwt>
<totfact> 0.24365653E+03</totfact>
</mgrwt>
</event>
<event>
 7    1  0.7366917E-004  0.1435396E+03  0.7546771E-02  0.1230360E+00
          1   -1    0    0  501    0  0.00000000000E+00  0.00000000000E+00  0.32831766486E+03  0.32831766486E+03  0.00000000000E+00 0. -1.
         -1   -1    0    0    0  501 -0.00000000000E+00 -0.00000000000E+00 -0.52402599795E+02  0.52402599795E+02  0.00000000000E+00 0.  1.
         23    2    1    2    0    0  0.11551667613E+01  0.13576827224E+02  0.29610233399E+02  0.95641870335E+02  0.89916276567E+02 0.  0.
          5    1    3    3  502    0  0.21293308058E+02  0.22953734900E+02  0.53825487891E+02  0.62446393496E+02  0.47000000000E+01 0. -1.
         -5    1    3    3    0  502 -0.20138141297E+02 -0.93769076761E+01 -0.24215254492E+02  0.33195476839E+02  0.47000000000E+01 0.  1.
          5    1    1    2  503    0  0.35699753407E+02  0.17132060874E+02  0.23112975118E+03  0.23454430665E+03  0.47000000000E+01 0. -1.
         -5    1    1    2    0  503 -0.36854920168E+02 -0.30708888098E+02  0.15175080490E+02  0.50534087670E+02  0.47000000000E+01 0.  1.
<mgrwt>
<rscale>  0 0.12806220E+03</rscale>
<asrwt>0</asrwt>
<pdfrwt beam="1">  1        1 0.50510409E-01 0.14353961E+03</pdfrwt>
<pdfrwt beam="2">  1       -1 0.80619386E-02 0.14353961E+03</pdfrwt>
<totfact> 0.63689986E+03</totfact>
</mgrwt>
</event>
<event>
 8    1  0.7366917E-004  0.9289743E+02  0.7546771E-02  0.1296857E+00
          1   -1    0    0  501    0  0.00000000000E+00  0.00000000000E+00  0.42689493420E+02  0.42689493420E+02  0.00000000000E+00 0. -1.
         -1   -1    0    0    0  501 -0.00000000000E+00 -0.00000000000E+00 -0.20809991945E+03  0.20809991945E+03  0.00000000000E+00 0.  1.
         23    2    1    2    0    0  0.10365146617E+02 -0.37830494364E+01 -0.10968298757E+03  0.14373688177E+03  0.92239827025E+02 0.  0.
         23    2    1    2    0    0 -0.10365146617E+02  0.37830494364E+01 -0.55727438455E+02  0.10705253110E+03  0.90735601011E+02 0.  0.
          5    1    3    3  502    0 -0.13150702628E+02  0.40268355447E+02 -0.54043622821E+02  0.68827934718E+02  0.47000000000E+01 0. -1.
         -5    1    4    4    0  503 -0.38420221042E+02 -0.21941769466E+02 -0.69975954654E+01  0.45040104069E+02  0.47000000000E+01 0.  1.
          5    1    4    4  503    0  0.28055074425E+02  0.25724818903E+02 -0.48729842989E+02  0.62012427032E+02  0.47000000000E+01 0. -1.
         -5    1    3    3    0  502  0.23515849245E+02 -0.44051404883E+02 -0.55639364753E+02  0.74908947049E+02  0.47000000000E+01 0.  1.
<mgrwt>
<rscale>  0 0.92521812E+02</rscale>
<asrwt>0</asrwt>
<pdfrwt beam="1">  1        1 0.65676144E-02 0.92897435E+02</pdfrwt>
<pdfrwt beam="2">  1       -1 0.32015372E-01 0.92897435E+02</pdfrwt>
<totfact> 0.94667581E+03</totfact>
</mgrwt>
</event>
<event>
 8    1  0.7366917E-004  0.1329441E+03  0.7546771E-02  0.1223340E+00
          2   -1    0    0  501    0  0.00000000000E+00  0.00000000000E+00  0.42788823755E+03  0.42788823755E+03  0.00000000000E+00 0. -1.
         -2   -1    0    0    0  501 -0.00000000000E+00 -0.00000000000E+00 -0.41353378326E+02  0.41353378326E+02  0.00000000000E+00 0.  1.
         23    2    1    2    0    0 -0.17047904479E+02  0.93289103348E+02  0.20961244476E+03  0.24793713211E+03  0.92422706231E+02 0.  0.
         23    2    1    2    0    0  0.17047904479E+02 -0.93289103348E+02  0.17692241446E+03  0.22130448377E+03  0.93169984156E+02 0.  0.
          5    1    3    3  502    0  0.19768813986E+02  0.84177045032E+02  0.10234049160E+03  0.13406060994E+03  0.47000000000E+01 0. -1.
         -5    1    3    3    0  502 -0.36816718465E+02  0.91120583160E+01  0.10727195316E+03  0.11387652216E+03  0.47000000000E+01 0.  1.
          5    1    4    4  503    0 -0.36849118146E+01 -0.84115817443E+02  0.17918922484E+03  0.19804019193E+03  0.47000000000E+01 0. -1.
         -5    1    4    4    0  503  0.20732816294E+02 -0.91732859050E+01 -0.22668103783E+01  0.23264291845E+02  0.47000000000E+01 0.  1.
<mgrwt>
<rscale>  0 0.13281325E+03</rscale>
<asrwt>0</asrwt>
<pdfrwt beam="1">  1        2 0.65828956E-01 0.13294410E+03</pdfrwt>
<pdfrwt beam="2">  1       -2 0.63620585E-02 0.13294410E+03</pdfrwt>
<totfact> 0.95134329E+03</totfact>
</mgrwt>
</event>
<event>
 8    1  0.7366917E-004  0.9220200E+02  0.7546771E-02  0.1298032E+00
         -2   -1    0    0    0  501 -0.00000000000E+00  0.00000000000E+00  0.12450286217E+02  0.12450286217E+02  0.00000000000E+00 0.  1.
          2   -1    0    0  501    0  0.00000000000E+00 -0.00000000000E+00 -0.96192035654E+03  0.96192035654E+03  0.00000000000E+00 0. -1.
         23    2    1    2    0    0 -0.49820621527E+00 -0.82201777599E+01 -0.20848435976E+03  0.22767054754E+03  0.91106149187E+02 0.  0.
         23    2    1    2    0    0  0.49820621527E+00  0.82201777599E+01 -0.74098571057E+03  0.74670009523E+03  0.91833487409E+02 0.  0.
          5    1    3    3  502    0 -0.37153920002E+02  0.41914333976E+01 -0.16509131324E+03  0.16933757289E+03  0.47000000000E+01 0. -1.
         -5    1    3    3    0  502  0.36655713787E+02 -0.12411611158E+02 -0.43393046519E+02  0.58332974645E+02  0.47000000000E+01 0.  1.
          5    1    4    4  503    0 -0.42065682604E+02 -0.11215655441E+02 -0.42214913678E+03  0.42441406228E+03  0.47000000000E+01 0. -1.
         -5    1    4    4    0  503  0.42563888819E+02  0.19435833201E+02 -0.31883657379E+03  0.32228603294E+03  0.47000000000E+01 0.  1.
<mgrwt>
<rscale>  0 0.92020363E+02</rscale>
<asrwt>0</asrwt>
<pdfrwt beam="1">  1        2 0.14798772E+00 0.92202001E+02</pdfrwt>
<pdfrwt beam="2">  1       -2 0.19154290E-02 0.92202001E+02</pdfrwt>
<totfact> 0.21066387E+04</totfact>
</mgrwt>
</event>
<event>
 8    1  0.7366917E-004  0.1353756E+03  0.7546771E-02  0.1220828E+00
          1   -1    0    0  501    0  0.00000000000E+00  0.00000000000E+00  0.88366195103E+03  0.88366195103E+03  0.00000000000E+00 0. -1.
         -1   -1    0    0    0  501 -0.00000000000E+00 -0.00000000000E+00 -0.20764074570E+02  0.20764074570E+02  0.00000000000E+00 0.  1.
         23    2    1    2    0    0 -0.98219601176E+02  0.12340003045E+02  0.35549421899E+03  0.37927363533E+03  0.87595576325E+02 0.  0.
         23    2    1    2    0    0  0.98219601176E+02 -0.12340003045E+02  0.50740365747E+03  0.52515239026E+03  0.92342815966E+02 0.  0.
          5    1    3    3  502    0 -0.67350255499E+02  0.32576615260E+02  0.31697119807E+03  0.32571478810E+03  0.47000000000E+01 0. -1.
         -5    1    4    4    0  503  0.10815047610E+02 -0.35954880265E+02  0.83669076823E+02  0.91827681480E+02  0.47000000000E+01 0.  1.
          5    1    4    4  503    0  0.87404553566E+02  0.23614877220E+02  0.42373458064E+03  0.43332470878E+03  0.47000000000E+01 0. -1.
         -5    1    3    3    0  502 -0.30869345677E+02 -0.20236612214E+02  0.38523020917E+02  0.53558847234E+02  0.47000000000E+01 0.  1.
<mgrwt>
<rscale>  0 0.13457032E+03</rscale>
<asrwt>0</asrwt>
<pdfrwt beam="1">  1        1 0.13594796E+00 0.13537563E+03</pdfrwt>
<pdfrwt beam="2">  1       -1 0.31944737E-02 0.13537563E+03</pdfrwt>
<totfact> 0.65535950E+03</totfact>
</mgrwt>
</event>
<event>
 8    1  0.7366917E-004  0.1016113E+03  0.7546771E-02  0.1277464E+00
          1   -1    0    0  501    0  0.00000000000E+00  0.00000000000E+00  0.26896018696E+03  0.26896018696E+03  0.00000000000E+00 0. -1.
         -1   -1    0    0    0  501 -0.00000000000E+00 -0.00000000000E+00 -0.41781125026E+02  0.41781125026E+02  0.00000000000E+00 0.  1.
         23    2    1    2    0    0 -0.45817034508E+01 -0.45844952250E+02  0.66390019784E+02  0.12053620811E+03  0.89434842682E+02 0.  0.
         23    2    1    2    0    0  0.45817034508E+01  0.45844952250E+02  0.16078904215E+03  0.19020510387E+03  0.90565522199E+02 0.  0.
          5    1    3    3  502    0 -0.44487902118E+02 -0.32321257345E+02  0.51822208039E+02  0.75706461793E+02  0.47000000000E+01 0. -1.
         -5    1    3    3    0  502  0.39906198667E+02 -0.13523694906E+02  0.14567811746E+02  0.44829746319E+02  0.47000000000E+01 0.  1.
          5    1    4    4  503    0 -0.32537888400E+02 -0.43175643927E+01  0.27961127515E+02  0.43373611744E+02  0.47000000000E+01 0. -1.
         -5    1    4    4    0  503  0.37119591850E+02  0.50162516643E+02  0.13282791463E+03  0.14683149213E+03  0.47000000000E+01 0.  1.
<mgrwt>
<rscale>  0 0.10135879E+03</rscale>
<asrwt>0</asrwt>
<pdfrwt beam="1">  1        1 0.41378489E-01 0.10161135E+03</pdfrwt>
<pdfrwt beam="2">  1       -1 0.64278655E-02 0.10161135E+03</pdfrwt>
<totfact> 0.11141987E+04</totfact>
</mgrwt>
</event>
<event>
 8    1  0.8387757E-004  0.1054539E+03  0.7546771E-02  0.1271383E+00
         -3   -1    0    0    0  501 -0.00000000000E+00  0.00000000000E+00  0.26981186911E+02  0.26981186911E+02  0.00000000000E+00 0.  1.
          3   -1    0    0  501    0  0.00000000000E+00 -0.00000000000E+00 -0.81838424792E+03  0.81838424792E+03  0.00000000000E+00 0. -1.
         23    2    1    2    0    0  0.37041339347E+02  0.36102450220E+02 -0.69552357103E+03  0.70284037507E+03  0.86925872157E+02 0.  0.
         23    2    1    2    0    0 -0.37041339347E+02 -0.36102450220E+02 -0.95879489979E+02  0.14252505975E+03  0.91897052870E+02 0.  0.
          5    1    3    3  502    0  0.44951764655E+02  0.60245030690E+02 -0.51694421748E+03  0.52240170258E+03  0.47000000000E+01 0. -1.
         -5    1    3    3    0  502 -0.79104253077E+01 -0.24142580470E+02 -0.17857935354E+03  0.18043867250E+03  0.47000000000E+01 0.  1.
          5    1    4    4  503    0 -0.21218802360E+02  0.29776401524E+02 -0.41605186741E+02  0.55587347707E+02  0.47000000000E+01 0. -1.
         -5    1    4    4    0  503 -0.15822536987E+02 -0.65878851744E+02 -0.54274303238E+02  0.86937712046E+02  0.47000000000E+01 0.  1.
<mgrwt>
<rscale>  0 0.10436132E+03</rscale>
<asrwt>0</asrwt>
<pdfrwt beam="1">  1        3 0.12590525E+00 0.10545386E+03</pdfrwt>
<pdfrwt beam="2">  1       -3 0.41509524E-02 0.10545386E+03</pdfrwt>
<totfact> 0.36345186E+02</totfact>
</mgrwt>
</event>
<event>
 8    1  0.7366917E-004  0.1019734E+03  0.7546771E-02  0.1276494E+00
          1   -1    0    0  501    0  0.00000000000E+00  0.00000000000E+00  0.19436478231E+03  0.19436478231E+03  0.00000000000E+00 0. -1.
         -1   -1    0    0    0  501 -0.00000000000E+00 -0.00000000000E+00 -0.60696261361E+02  0.60696261361E+02  0.00000000000E+00 0.  1.
         23    2    1    2    0    0 -0.28846098431E+02  0.36268356528E+02  0.21852572900E+02  0.10372899981E+03  0.90192457441E+02 0.  0.
         23    2    1    2    0    0  0.28846098431E+02 -0.36268356528E+02  0.11181594805E+03  0.15133204386E+03  0.90835511672E+02 0.  0.
          5    1    3    3  502    0 -0.98147660951E+01 -0.29987840201E+02  0.11239595524E+02  0.33823345502E+02  0.47000000000E+01 0. -1.
         -5    1    3    3    0  502 -0.19031332335E+02  0.66256196729E+02  0.10612977376E+02  0.69905654308E+02  0.47000000000E+01 0.  1.
          5    1    4    4  503    0  0.50128536269E+02 -0.28235202466E+02  0.11422136139E+03  0.12797931944E+03  0.47000000000E+01 0. -1.
         -5    1    4    4    0  503 -0.21282437839E+02 -0.80331540625E+01 -0.24054133391E+01  0.23352724421E+02  0.47000000000E+01 0.  1.
<mgrwt>
<rscale>  0 0.10183003E+03</rscale>
<asrwt>0</asrwt>
<pdfrwt beam="1">  1        1 0.29902274E-01 0.10197343E+03</pdfrwt>
<pdfrwt beam="2">  1       -1 0.93378865E-02 0.10197343E+03</pdfrwt>
<totfact> 0.95011035E+03</totfact>
</mgrwt>
</event>
<event>
 8    1  0.7366917E-004  0.1247568E+03  0.7546771E-02  0.1250702E+00
         -1   -1    0    0    0  501 -0.00000000000E+00  0.00000000000E+00  0.10546497766E+03  0.10546497766E+03  0.00000000000E+00 0.  1.
          1   -1    0    0  501    0  0.00000000000E+00 -0.00000000000E+00 -0.24587522004E+03  0.24587522004E+03  0.00000000000E+00 0. -1.
         23    2    1    2    0    0  0.16251867554E+01 -0.19267124705E+02  0.54353545595E+02  0.13608297951E+03  0.12324936539E+03 0.  0.
         23    2    1    2    0    0 -0.16251867554E+01  0.19267124705E+02 -0.19476378798E+03  0.21525721818E+03  0.89603981749E+02 0.  0.
          5    1    3    3  502    0 -0.18611946845E+02  0.49178232376E+02  0.28727567171E+02  0.60102131580E+02  0.47000000000E+01 0. -1.
         -5    1    3    3    0  502  0.20237133600E+02 -0.68445357081E+02  0.25625978424E+02  0.75980847932E+02  0.47000000000E+01 0.  1.
          5    1    4    4  503    0  0.22662121849E+02  0.17986429484E+02 -0.13434421397E+02  0.32243713969E+02  0.47000000000E+01 0. -1.
         -5    1    4    4    0  503 -0.24287308604E+02  0.12806952213E+01 -0.18132936658E+03  0.18301350421E+03  0.47000000000E+01 0.  1.
<mgrwt>
<rscale>  0 0.11550502E+03</rscale>
<asrwt>0</asrwt>
<pdfrwt beam="1">  1        1 0.37826957E-01 0.12475684E+03</pdfrwt>
<pdfrwt beam="2">  1       -1 0.16225381E-01 0.12475684E+03</pdfrwt>
<totfact> 0.30795843E+03</totfact>
</mgrwt>
</event>
<event>
 8    1  0.7366917E-004  0.1024008E+03  0.7546771E-02  0.1275843E+00
          3   -1    0    0  501    0  0.00000000000E+00  0.00000000000E+00  0.39434616154E+02  0.39434616154E+02  0.00000000000E+00 0. -1.
         -3   -1    0    0    0  501 -0.00000000000E+00 -0.00000000000E+00 -0.30484276725E+03  0.30484276725E+03  0.00000000000E+00 0.  1.
         23    2    1    2    0    0  0.45879345252E+02  0.42127237096E+01 -0.19681732677E+03  0.22186252852E+03  0.91450861575E+02 0.  0.
         23    2    1    2    0    0 -0.45879345252E+02 -0.42127237096E+01 -0.68590824334E+02  0.12241485489E+03  0.90321836524E+02 0.  0.
          5    1    3    3  502    0  0.33347105820E+00 -0.20248624307E+02 -0.27484408610E+01  0.20970501101E+02  0.47000000000E+01 0. -1.
         -5    1    4    4    0  503 -0.61557857907E+01  0.37153002694E+02 -0.48240000368E+02  0.61379369037E+02  0.47000000000E+01 0.  1.
          5    1    4    4  503    0 -0.39723559461E+02 -0.41365726404E+02 -0.20350823966E+02  0.61035485853E+02  0.47000000000E+01 0. -1.
         -5    1    3    3    0  502  0.45545874194E+02  0.24461348016E+02 -0.19406888590E+03  0.20089202742E+03  0.47000000000E+01 0.  1.
<mgrwt>
<rscale>  0 0.10214810E+03</rscale>
<asrwt>0</asrwt>
<pdfrwt beam="1">  1        3 0.60668639E-02 0.10240079E+03</pdfrwt>
<pdfrwt beam="2">  1       -3 0.46898888E-01 0.10240079E+03</pdfrwt>
<totfact> 0.16575312E+03</totfact>
</mgrwt>
</event>
<event>
 8    1  0.7366917E-004  0.2487140E+03  0.7546771E-02  0.1114122E+00
         -2   -1    0    0    0  501 -0.00000000000E+00  0.00000000000E+00  0.51628985493E+03  0.51628985493E+03  0.00000000000E+00 0.  1.
          2   -1    0    0  501    0  0.00000000000E+00 -0.00000000000E+00 -0.38167478925E+03  0.38167478925E+03  0.00000000000E+00 0. -1.
         23    2    1    2    0    0 -0.13643111764E+03  0.18776063125E+03  0.43920285260E+03  0.50473139617E+03  0.89370756032E+02 0.  0.
         23    2    1    2    0    0  0.13643111764E+03 -0.18776063125E+03 -0.30458778691E+03  0.39323324801E+03  0.89393304557E+02 0.  0.
          5    1    3    3  502    0 -0.10658128206E+03  0.96945492760E+02  0.19543657034E+03  0.24284880333E+03  0.47000000000E+01 0. -1.
         -5    1    3    3    0  502 -0.29849835583E+02  0.90815138486E+02  0.24376628227E+03  0.26188259284E+03  0.47000000000E+01 0.  1.
          5    1    4    4  503    0  0.10312333754E+03 -0.15776503187E+03 -0.28992955837E+03  0.34584023311E+03  0.47000000000E+01 0. -1.
         -5    1    4    4    0  503  0.33307780098E+02 -0.29995599379E+02 -0.14658228549E+02  0.47393014901E+02  0.47000000000E+01 0.  1.
<mgrwt>
<rscale>  0 0.24871200E+03</rscale>
<asrwt>0</asrwt>
<pdfrwt beam="1">  1        2 0.58719199E-01 0.24871403E+03</pdfrwt>
<pdfrwt beam="2">  1       -2 0.79429208E-01 0.24871403E+03</pdfrwt>
<totfact> 0.12309477E+02</totfact>
</mgrwt>
</event>
<event>
 8    1  0.7366917E-004  0.9667438E+02  0.7546771E-02  0.1287666E+00
         -2   -1    0    0    0  501 -0.00000000000E+00  0.00000000000E+00  0.15201191784E+03  0.15201191784E+03  0.00000000000E+00 0.  1.
          2   -1    0    0  501    0  0.00000000000E+00 -0.00000000000E+00 -0.12806233265E+03  0.12806233265E+03  0.00000000000E+00 0. -1.
         23    2    1    2    0    0  0.30903796187E+02  0.75709118208E+01  0.11312577858E+03  0.14855113820E+03  0.90871533266E+02 0.  0.
         23    2    1    2    0    0 -0.30903796187E+02 -0.75709118208E+01 -0.89176193390E+02  0.13152311229E+03  0.91288401640E+02 0.  0.
          5    1    4    4  502    0 -0.59518213394E+01 -0.45350987838E+02 -0.23564018837E+02  0.51667100353E+02  0.47000000000E+01 0. -1.
         -5    1    3    3    0  503  0.60427471102E+02  0.65739728982E+01  0.50560828406E+02  0.79203432707E+02  0.47000000000E+01 0.  1.
          5    1    3    3  503    0 -0.29523674915E+02  0.99693892260E+00  0.62564950172E+02  0.69347705497E+02  0.47000000000E+01 0. -1.
         -5    1    4    4    0  502 -0.24951974848E+02  0.37780076018E+02 -0.65612174553E+02  0.79856011936E+02  0.47000000000E+01 0.  1.
<mgrwt>
<rscale>  0 0.96575842E+02</rscale>
<asrwt>0</asrwt>
<pdfrwt beam="1">  1        2 0.19701897E-01 0.96674379E+02</pdfrwt>
<pdfrwt beam="2">  1       -2 0.23386449E-01 0.96674379E+02</pdfrwt>
<totfact> 0.42299222E+03</totfact>
</mgrwt>
</event>
<event>
 8    1  0.7366917E-004  0.1014022E+03  0.7546771E-02  0.1279003E+00
          1   -1    0    0  501    0  0.00000000000E+00  0.00000000000E+00  0.18019328185E+02  0.18019328185E+02  0.00000000000E+00 0. -1.
         -1   -1    0    0    0  501 -0.00000000000E+00 -0.00000000000E+00 -0.88949693804E+03  0.88949693804E+03  0.00000000000E+00 0.  1.
         23    2    1    2    0    0  0.17214593336E+01 -0.41580346984E+02 -0.71889158713E+03  0.72600793981E+03  0.92469054007E+02 0.  0.
         23    2    1    2    0    0 -0.17214593336E+01  0.41580346984E+02 -0.15258602272E+03  0.18150832641E+03  0.89055541926E+02 0.  0.
          5    1    4    4  502    0 -0.49370468879E+01  0.67513748075E+02 -0.13002378018E+03  0.14666544932E+03  0.47000000000E+01 0. -1.
         -5    1    4    4    0  502  0.32155875543E+01 -0.25933401091E+02 -0.22562242541E+02  0.34842877090E+02  0.47000000000E+01 0.  1.
          5    1    3    3  503    0 -0.37271104422E+02  0.46187128314E+01 -0.19677480875E+03  0.20038184322E+03  0.47000000000E+01 0. -1.
         -5    1    3    3    0  503  0.38992563756E+02 -0.46199059816E+02 -0.52211677838E+03  0.52562609660E+03  0.47000000000E+01 0.  1.
<mgrwt>
<rscale>  0 0.10061748E+03</rscale>
<asrwt>0</asrwt>
<pdfrwt beam="1">  1        1 0.27722037E-02 0.10140224E+03</pdfrwt>
<pdfrwt beam="2">  1       -1 0.13684571E+00 0.10140224E+03</pdfrwt>
<totfact> 0.17479870E+03</totfact>
</mgrwt>
</event>
<event>
 8    1  0.7366917E-004  0.4167443E+03  0.7546771E-02  0.1038144E+00
          1   -1    0    0  501    0  0.00000000000E+00  0.00000000000E+00  0.81357273470E+03  0.81357273470E+03  0.00000000000E+00 0. -1.
         -1   -1    0    0    0  501 -0.00000000000E+00 -0.00000000000E+00 -0.21713636791E+03  0.21713636791E+03  0.00000000000E+00 0.  1.
         23    2    1    2    0    0 -0.23145365745E+03  0.33486233463E+03  0.36592413910E+03  0.55459558769E+03  0.89287242142E+02 0.  0.
         23    2    1    2    0    0  0.23145365745E+03 -0.33486233463E+03  0.23051222769E+03  0.47611351493E+03  0.88569821507E+02 0.  0.
          5    1    3    3  502    0  0.15148592989E+01  0.20083450268E+02  0.40189233337E+02  0.45198498311E+02  0.47000000000E+01 0. -1.
         -5    1    4    4    0  503  0.10656079666E+03 -0.18287620253E+03  0.72601702763E+02  0.22381243505E+03  0.47000000000E+01 0.  1.
          5    1    4    4  503    0  0.12489286078E+03 -0.15198613210E+03  0.15791052493E+03  0.25230107988E+03  0.47000000000E+01 0. -1.
         -5    1    3    3    0  502 -0.23296851675E+03  0.31477888436E+03  0.32573490576E+03  0.50939708938E+03  0.47000000000E+01 0.  1.
<mgrwt>
<rscale>  0 0.41670599E+03</rscale>
<asrwt>0</asrwt>
<pdfrwt beam="1">  1        1 0.12516503E+00 0.41674427E+03</pdfrwt>
<pdfrwt beam="2">  1       -1 0.33405596E-01 0.41674427E+03</pdfrwt>
<totfact> 0.18889093E+02</totfact>
</mgrwt>
</event>
<event>
 8    1  0.7366917E-004  0.1003415E+03  0.7546771E-02  0.1280602E+00
          3   -1    0    0  501    0  0.00000000000E+00  0.00000000000E+00  0.69330000025E+02  0.69330000025E+02  0.00000000000E+00 0. -1.
         -3   -1    0    0    0  501 -0.00000000000E+00 -0.00000000000E+00 -0.46344277247E+03  0.46344277247E+03  0.00000000000E+00 0.  1.
         23    2    1    2    0    0 -0.18974889669E+02  0.34424106331E+02 -0.41816537767E+03  0.42958874692E+03  0.90217198249E+02 0.  0.
         23    2    1    2    0    0  0.18974889669E+02 -0.34424106331E+02  0.24052605226E+02  0.10318402558E+03  0.92321989699E+02 0.  0.
          5    1    4    4  502    0  0.46401880449E+02 -0.71617981696E+01  0.39242161293E+02  0.61371516888E+02  0.47000000000E+01 0. -1.
         -5    1    4    4    0  502 -0.27426990780E+02 -0.27262308162E+02 -0.15189556067E+02  0.41812508691E+02  0.47000000000E+01 0.  1.
          5    1    3    3  503    0 -0.28284384799E+02 -0.21212192083E+02 -0.94411112663E+02  0.10092329617E+03  0.47000000000E+01 0. -1.
         -5    1    3    3    0  503  0.93094951299E+01  0.55636298414E+02 -0.32375426501E+03  0.32866545074E+03  0.47000000000E+01 0.  1.
<mgrwt>
<rscale>  0 0.99854683E+02</rscale>
<asrwt>0</asrwt>
<pdfrwt beam="1">  1        3 0.10666154E-01 0.10034149E+03</pdfrwt>
<pdfrwt beam="2">  1       -3 0.71298890E-01 0.10034149E+03</pdfrwt>
<totfact> 0.28296586E+02</totfact>
</mgrwt>
</event>
<event>
 8    1  0.7366917E-004  0.1083923E+03  0.7546771E-02  0.1266237E+00
         -1   -1    0    0    0  501 -0.00000000000E+00  0.00000000000E+00  0.69333663144E+02  0.69333663144E+02  0.00000000000E+00 0.  1.
          1   -1    0    0  501    0  0.00000000000E+00 -0.00000000000E+00 -0.36785973185E+03  0.36785973185E+03  0.00000000000E+00 0. -1.
         23    2    1    2    0    0 -0.44644223313E+02  0.33262396134E+02 -0.31146978260E+03  0.32803102970E+03  0.86553089515E+02 0.  0.
         23    2    1    2    0    0  0.44644223313E+02 -0.33262396134E+02  0.12943713887E+02  0.10916236530E+03  0.93002089201E+02 0.  0.
          5    1    4    4  502    0 -0.24157751863E+02 -0.14544213560E+02 -0.15182646760E+02  0.32368717704E+02  0.47000000000E+01 0. -1.
         -5    1    4    4    0  502  0.68801975177E+02 -0.18718182574E+02  0.28126360647E+02  0.76793647591E+02  0.47000000000E+01 0.  1.
          5    1    3    3  503    0 -0.16659621740E+02 -0.23630602621E+02 -0.42282793411E+02  0.51438050074E+02  0.47000000000E+01 0. -1.
         -5    1    3    3    0  503 -0.27984601573E+02  0.56892998756E+02 -0.26918698919E+03  0.27659297963E+03  0.47000000000E+01 0.  1.
<mgrwt>
<rscale>  0 0.10699549E+03</rscale>
<asrwt>0</asrwt>
<pdfrwt beam="1">  1        1 0.56593805E-01 0.10839226E+03</pdfrwt>
<pdfrwt beam="2">  1       -1 0.10666717E-01 0.10839226E+03</pdfrwt>
<totfact> 0.35591347E+03</totfact>
</mgrwt>
</event>
<event>
 8    1  0.7366917E-004  0.9358644E+02  0.7546771E-02  0.1294592E+00
         -3   -1    0    0    0  501 -0.00000000000E+00  0.00000000000E+00  0.17481761395E+03  0.17481761395E+03  0.00000000000E+00 0.  1.
          3   -1    0    0  501    0  0.00000000000E+00 -0.00000000000E+00 -0.51805856283E+02  0.51805856283E+02  0.00000000000E+00 0. -1.
         23    2    1    2    0    0 -0.16995138066E+02  0.86244903996E+01  0.39965038966E+02  0.10176259801E+03  0.91625353813E+02 0.  0.
         23    2    1    2    0    0  0.16995138066E+02 -0.86244903996E+01  0.83046718696E+02  0.12486087222E+03  0.91270276503E+02 0.  0.
          5    1    3    3  502    0  0.26294605485E+02 -0.24928111324E+02  0.56786220862E+01  0.36975042401E+02  0.47000000000E+01 0.  1.
         -5    1    3    3    0  502 -0.43289743551E+02  0.33552601724E+02  0.34286416880E+02  0.64787555607E+02  0.47000000000E+01 0. -1.
          5    1    4    4  503    0 -0.21511330551E+02  0.30223686275E+02  0.42513982737E+02  0.56619230676E+02  0.47000000000E+01 0. -1.
         -5    1    4    4    0  503  0.38506468617E+02 -0.38848176675E+02  0.40532735959E+02  0.68241641544E+02  0.47000000000E+01 0.  1.
<mgrwt>
<rscale>  0 0.93499418E+02</rscale>
<asrwt>0</asrwt>
<pdfrwt beam="1">  1        3 0.79701318E-02 0.93586441E+02</pdfrwt>
<pdfrwt beam="2">  1       -3 0.26895017E-01 0.93586441E+02</pdfrwt>
<totfact> 0.29946844E+03</totfact>
</mgrwt>
</event>
<event>
 8    1  0.7366917E-004  0.9382125E+02  0.7546771E-02  0.1294488E+00
         -2   -1    0    0    0  501 -0.00000000000E+00  0.00000000000E+00  0.18326487549E+03  0.18326487549E+03  0.00000000000E+00 0.  1.
          2   -1    0    0  501    0  0.00000000000E+00 -0.00000000000E+00 -0.22830303171E+03  0.22830303171E+03  0.00000000000E+00 0. -1.
         23    2    1    2    0    0  0.49727439260E+01 -0.17432649671E+02  0.16059788291E+03  0.18599491003E+03  0.92053251462E+02 0.  0.
         23    2    1    2    0    0 -0.49727439260E+01  0.17432649671E+02 -0.20563603914E+03  0.22557299716E+03  0.90930583423E+02 0.  0.
          5    1    3    3  502    0 -0.17617590719E+02 -0.24836360959E+02  0.84767624994E+01  0.31955748010E+02  0.47000000000E+01 0. -1.
         -5    1    3    3    0  502  0.22590334645E+02  0.74037112881E+01  0.15212112041E+03  0.15403916202E+03  0.47000000000E+01 0.  1.
          5    1    4    4  503    0 -0.31623477282E+02  0.10069787033E+02 -0.19103644255E+03  0.19395478160E+03  0.47000000000E+01 0. -1.
         -5    1    4    4    0  503  0.26650733356E+02  0.73628626378E+01 -0.14599596590E+02  0.31618215561E+02  0.47000000000E+01 0.  1.
<mgrwt>
<rscale>  0 0.93544713E+02</rscale>
<asrwt>0</asrwt>
<pdfrwt beam="1">  1        2 0.35123544E-01 0.93821248E+02</pdfrwt>
<pdfrwt beam="2">  1       -2 0.28194596E-01 0.93821248E+02</pdfrwt>
<totfact> 0.16278027E+03</totfact>
</mgrwt>
</event>
<event>
 8    1  0.7366917E-004  0.9119941E+02  0.7546771E-02  0.1300053E+00
          2   -1    0    0  501    0  0.00000000000E+00  0.00000000000E+00  0.32343456967E+03  0.32343456967E+03  0.00000000000E+00 0. -1.
         -2   -1    0    0    0  501 -0.00000000000E+00 -0.00000000000E+00 -0.30981136284E+02  0.30981136284E+02  0.00000000000E+00 0.  1.
         23    2    1    2    0    0 -0.12092456425E+02 -0.27844061585E+01  0.72997143088E+02  0.11681573107E+03  0.90351268429E+02 0.  0.
         23    2    1    2    0    0  0.12092456425E+02  0.27844061585E+01  0.21945629030E+03  0.23759997489E+03  0.90214767600E+02 0.  0.
          5    1    4    4  502    0 -0.12082623226E+02 -0.29782101637E+02  0.31454298902E+02  0.45215332370E+02  0.47000000000E+01 0. -1.
         -5    1    4    4    0  502  0.24175079651E+02  0.32566507795E+02  0.18800199140E+03  0.19238464252E+03  0.47000000000E+01 0.  1.
          5    1    3    3  503    0  0.76276517464E+01 -0.43948189791E+02  0.41960546799E+02  0.61419882325E+02  0.47000000000E+01 0. -1.
         -5    1    3    3    0  503 -0.19720108171E+02  0.41163783632E+02  0.31036596289E+02  0.55395848747E+02  0.47000000000E+01 0.  1.
<mgrwt>
<rscale>  0 0.91165582E+02</rscale>
<asrwt>0</asrwt>
<pdfrwt beam="1">  1        2 0.49759162E-01 0.91199409E+02</pdfrwt>
<pdfrwt beam="2">  1       -2 0.47663289E-02 0.91199409E+02</pdfrwt>
<totfact> 0.19099838E+04</totfact>
</mgrwt>
</event>
<event>
 8    1  0.7366917E-004  0.9735450E+02  0.7546771E-02  0.1287017E+00
          3   -1    0    0  501    0  0.00000000000E+00  0.00000000000E+00  0.24267745181E+03  0.24267745181E+03  0.00000000000E+00 0. -1.
         -3   -1    0    0    0  501 -0.00000000000E+00 -0.00000000000E+00 -0.39909881989E+02  0.39909881989E+02  0.00000000000E+00 0.  1.
         23    2    1    2    0    0 -0.13902017363E+02 -0.29227822197E+02  0.13082355871E+03  0.16307269076E+03  0.91817031547E+02 0.  0.
         23    2    1    2    0    0  0.13902017363E+02  0.29227822197E+02  0.71944011112E+02  0.11951464304E+03  0.89779048157E+02 0.  0.
          5    1    3    3  502    0  0.35578848770E+02  0.19724786940E+01  0.69194254535E+02  0.77972302855E+02  0.47000000000E+01 0. -1.
         -5    1    4    4    0  503 -0.18448428663E+02  0.51712565477E+02  0.48634781817E+02  0.73498067666E+02  0.47000000000E+01 0.  1.
          5    1    4    4  503    0  0.32350446026E+02 -0.22484743279E+02  0.23309229295E+02  0.46016575370E+02  0.47000000000E+01 0. -1.
         -5    1    3    3    0  502 -0.49480866133E+02 -0.31200300891E+02  0.61629304177E+02  0.85100387909E+02  0.47000000000E+01 0.  1.
<mgrwt>
<rscale>  0 0.96870997E+02</rscale>
<asrwt>0</asrwt>
<pdfrwt beam="1">  1        3 0.37334992E-01 0.97354501E+02</pdfrwt>
<pdfrwt beam="2">  1       -3 0.61399820E-02 0.97354501E+02</pdfrwt>
<totfact> 0.24994551E+03</totfact>
</mgrwt>
</event>
<event>
 8    1  0.7366917E-004  0.1012455E+03  0.7546771E-02  0.1281491E+00
          1   -1    0    0  501    0  0.00000000000E+00  0.00000000000E+00  0.29912397719E+03  0.29912397719E+03  0.00000000000E+00 0. -1.
         -1   -1    0    0    0  501 -0.00000000000E+00 -0.00000000000E+00 -0.57277716863E+02  0.57277716863E+02  0.00000000000E+00 0.  1.
         23    2    1    2    0    0 -0.63945699905E+01 -0.23122059773E+02  0.48360398325E+01  0.10136093814E+03  0.98362250514E+02 0.  0.
         23    2    1    2    0    0  0.63945699905E+01  0.23122059773E+02  0.23701022049E+03  0.25504075591E+03  0.91084698951E+02 0.  0.
          5    1    3    3  502    0  0.40132302863E+02 -0.33118440564E+02 -0.51868971382E+01  0.52501683215E+02  0.47000000000E+01 0. -1.
         -5    1    4    4    0  503 -0.57190819850E+01 -0.25100046782E+02  0.16702871137E+03  0.16906626118E+03  0.47000000000E+01 0.  1.
          5    1    4    4  503    0  0.12113651976E+02  0.48222106555E+02  0.69981509120E+02  0.85974494727E+02  0.47000000000E+01 0. -1.
         -5    1    3    3    0  502 -0.46526872854E+02  0.99963807908E+01  0.10022936971E+02  0.48859254927E+02  0.47000000000E+01 0.  1.
<mgrwt>
<rscale>  0 0.99433827E+02</rscale>
<asrwt>0</asrwt>
<pdfrwt beam="1">  1        1 0.46019072E-01 0.10124551E+03</pdfrwt>
<pdfrwt beam="2">  1       -1 0.88119566E-02 0.10124551E+03</pdfrwt>
<totfact> 0.61066787E+03</totfact>
</mgrwt>
</event>
<event>
 8    1  0.7366917E-004  0.9052929E+02  0.7546771E-02  0.1314158E+00
         -3   -1    0    0    0  501 -0.00000000000E+00  0.00000000000E+00  0.19526196167E+02  0.19526196167E+02  0.00000000000E+00 0.  1.
          3   -1    0    0  501    0  0.00000000000E+00 -0.00000000000E+00 -0.35371781393E+03  0.35371781393E+03  0.00000000000E+00 0. -1.
         23    2    1    2    0    0  0.28199684554E+01  0.72087825315E+01 -0.18775046939E+03  0.20107966186E+03  0.71574247405E+02 0.  0.
         23    2    1    2    0    0 -0.28199684554E+01 -0.72087825315E+01 -0.14644114838E+03  0.17216434824E+03  0.90197749960E+02 0.  0.
          5    1    4    4  502    0 -0.32276466367E+02  0.13349919216E+02 -0.12542451301E+03  0.13028195994E+03  0.47000000000E+01 0. -1.
         -5    1    3    3    0  503  0.32349610566E+02  0.21062889843E+02 -0.95146181748E+02  0.10278632464E+03  0.47000000000E+01 0.  1.
          5    1    3    3  503    0 -0.29529642110E+02 -0.13854107311E+02 -0.92604287638E+02  0.98293337218E+02  0.47000000000E+01 0. -1.
         -5    1    4    4    0  502  0.29456497912E+02 -0.20558701747E+02 -0.21016635373E+02  0.41882388293E+02  0.47000000000E+01 0.  1.
<mgrwt>
<rscale>  0 0.85489409E+02</rscale>
<asrwt>0</asrwt>
<pdfrwt beam="1">  1        3 0.54418127E-01 0.90529293E+02</pdfrwt>
<pdfrwt beam="2">  1       -3 0.30040301E-02 0.90529293E+02</pdfrwt>
<totfact> 0.36010737E+03</totfact>
</mgrwt>
</event>
<event>
 8    1  0.7366917E-004  0.1146737E+03  0.7546771E-02  0.1252155E+00
         -2   -1    0    0    0  501 -0.00000000000E+00  0.00000000000E+00  0.35616289219E+02  0.35616289219E+02  0.00000000000E+00 0.  1.
          2   -1    0    0  501    0  0.00000000000E+00 -0.00000000000E+00 -0.39196088568E+03  0.39196088568E+03  0.00000000000E+00 0. -1.
         23    2    1    2    0    0  0.54535641103E+02  0.39515757659E+02 -0.12664046341E+03  0.17083986426E+03  0.92805285384E+02 0.  0.
         23    2    1    2    0    0 -0.54535641103E+02 -0.39515757659E+02 -0.22970413305E+03  0.25673731063E+03  0.92813935791E+02 0.  0.
          5    1    4    4  502    0 -0.68131989103E+02 -0.54331370301E+02 -0.21297232153E+03  0.23015900042E+03  0.47000000000E+01 0. -1.
         -5    1    3    3    0  503  0.29508696088E+02  0.45631746648E+02 -0.15569398648E+02  0.56723148901E+02  0.47000000000E+01 0.  1.
          5    1    3    3  503    0  0.25026945015E+02 -0.61159889890E+01 -0.11107106476E+03  0.11411671536E+03  0.47000000000E+01 0. -1.
         -5    1    4    4    0  502  0.13596348000E+02  0.14815612642E+02 -0.16731811520E+02  0.26578310210E+02  0.47000000000E+01 0.  1.
<mgrwt>
<rscale>  0 0.11467195E+03</rscale>
<asrwt>0</asrwt>
<pdfrwt beam="1">  1        2 0.60301673E-01 0.11467370E+03</pdfrwt>
<pdfrwt beam="2">  1       -2 0.54794293E-02 0.11467370E+03</pdfrwt>
<totfact> 0.12944030E+04</totfact>
</mgrwt>
</event>
<event>
 8    1  0.7366917E-004  0.9770413E+02  0.7546771E-02  0.1285694E+00
         -1   -1    0    0    0  501 -0.00000000000E+00  0.00000000000E+00  0.10279564284E+02  0.10279564284E+02  0.00000000000E+00 0.  1.
          1   -1    0    0  501    0  0.00000000000E+00 -0.00000000000E+00 -0.10006916738E+04  0.10006916738E+04  0.00000000000E+00 0. -1.
         23    2    1    2    0    0  0.19335013325E+02  0.26208640227E+02 -0.34957690587E+03  0.36273065303E+03  0.91152498439E+02 0.  0.
         23    2    1    2    0    0 -0.19335013325E+02 -0.26208640227E+02 -0.64083520368E+03  0.64824058508E+03  0.92116026345E+02 0.  0.
          5    1    3    3  502    0  0.12335839977E+02 -0.29004455623E+02 -0.20982208168E+03  0.21222824354E+03  0.47000000000E+01 0. -1.
         -5    1    3    3    0  502  0.69991733475E+01  0.55213095850E+02 -0.13975482418E+03  0.15050240949E+03  0.47000000000E+01 0.  1.
          5    1    4    4  503    0 -0.15590409306E+02 -0.60523275026E+02 -0.39207731967E+03  0.39705521314E+03  0.47000000000E+01 0. -1.
         -5    1    4    4    0  503 -0.37446040186E+01  0.34314634799E+02 -0.24875788400E+03  0.25118537194E+03  0.47000000000E+01 0.  1.
<mgrwt>
<rscale>  0 0.97476367E+02</rscale>
<asrwt>0</asrwt>
<pdfrwt beam="1">  1        1 0.15395262E+00 0.97704134E+02</pdfrwt>
<pdfrwt beam="2">  1       -1 0.15814709E-02 0.97704134E+02</pdfrwt>
<totfact> 0.14449451E+04</totfact>
</mgrwt>
</event>
<event>
 8    1  0.7366917E-004  0.1062025E+03  0.7546771E-02  0.1270507E+00
          1   -1    0    0  501    0  0.00000000000E+00  0.00000000000E+00  0.55247643065E+02  0.55247643065E+02  0.00000000000E+00 0. -1.
         -1   -1    0    0    0  501 -0.00000000000E+00 -0.00000000000E+00 -0.59688281063E+03  0.59688281063E+03  0.00000000000E+00 0.  1.
         23    2    1    2    0    0 -0.28354529469E+01 -0.41295651811E+02 -0.52077701987E+01  0.10633011673E+03  0.97803896657E+02 0.  0.
         23    2    1    2    0    0  0.28354529469E+01  0.41295651811E+02 -0.53642739737E+03  0.54580033697E+03  0.91816580937E+02 0.  0.
          5    1    4    4  502    0  0.43157088459E+02  0.12373047409E+02 -0.16576073117E+03  0.17179737072E+03  0.47000000000E+01 0. -1.
         -5    1    4    4    0  502 -0.40321635512E+02  0.28922604403E+02 -0.37066666619E+03  0.37400296625E+03  0.47000000000E+01 0.  1.
          5    1    3    3  503    0  0.31692690022E+02 -0.56046379343E+02 -0.16884776253E+02  0.66729370651E+02  0.47000000000E+01 0. -1.
         -5    1    3    3    0  503 -0.34528142968E+02  0.14750727532E+02  0.11677006054E+02  0.39600746078E+02  0.47000000000E+01 0.  1.
<mgrwt>
<rscale>  0 0.10480340E+03</rscale>
<asrwt>0</asrwt>
<pdfrwt beam="1">  1        1 0.84996371E-02 0.10620251E+03</pdfrwt>
<pdfrwt beam="2">  1       -1 0.91828128E-01 0.10620251E+03</pdfrwt>
<totfact> 0.95295712E+02</totfact>
</mgrwt>
</event>
<event>
 8    1  0.7366917E-004  0.1703594E+03  0.7546771E-02  0.1178587E+00
         -1   -1    0    0    0  501 -0.00000000000E+00  0.00000000000E+00  0.17224497018E+03  0.17224497018E+03  0.00000000000E+00 0.  1.
          1   -1    0    0  501    0  0.00000000000E+00 -0.00000000000E+00 -0.44823077994E+03  0.44823077994E+03  0.00000000000E+00 0. -1.
         23    2    1    2    0    0 -0.40502708520E+02 -0.13315696117E+03  0.10826323474E+03  0.20184961814E+03  0.98239984956E+02 0.  0.
         23    2    1    2    0    0  0.40502708520E+02  0.13315696117E+03 -0.38424904451E+03  0.41862613197E+03  0.90715293426E+02 0.  0.
          5    1    4    4  502    0  0.69025248226E+02  0.81243212773E+02 -0.24532118836E+03  0.26752480253E+03  0.47000000000E+01 0. -1.
         -5    1    3    3    0  503 -0.17288108512E+00 -0.11885565747E+03  0.10502698060E+03  0.15868035119E+03  0.47000000000E+01 0.  1.
          5    1    3    3  503    0 -0.40329827435E+02 -0.14301303692E+02  0.32362541427E+01  0.43169266951E+02  0.47000000000E+01 0. -1.
         -5    1    4    4    0  502 -0.28522539706E+02  0.51913748393E+02 -0.13892785615E+03  0.15110132944E+03  0.47000000000E+01 0.  1.
<mgrwt>
<rscale>  0 0.16929312E+03</rscale>
<asrwt>0</asrwt>
<pdfrwt beam="1">  1        1 0.68958580E-01 0.17035944E+03</pdfrwt>
<pdfrwt beam="2">  1       -1 0.26499227E-01 0.17035944E+03</pdfrwt>
<totfact> 0.66273451E+02</totfact>
</mgrwt>
</event>
<event>
 8    1  0.7366917E-004  0.9325548E+02  0.7546771E-02  0.1297322E+00
          1   -1    0    0  501    0  0.00000000000E+00  0.00000000000E+00  0.12674278672E+03  0.12674278672E+03  0.00000000000E+00 0. -1.
         -1   -1    0    0    0  501 -0.00000000000E+00 -0.00000000000E+00 -0.72263462582E+02  0.72263462582E+02  0.00000000000E+00 0.  1.
         23    2    1    2    0    0  0.11494002709E+02 -0.57535468069E+01  0.57171678288E+02  0.10938548743E+03  0.92365408365E+02 0.  0.
         23    2    1    2    0    0 -0.11494002709E+02  0.57535468069E+01 -0.26923541460E+01  0.89620761877E+02  0.88653351823E+02 0.  0.
          5    1    3    3  502    0  0.33026953083E+02  0.13370675658E+02  0.69079279632E+02  0.77869066208E+02  0.47000000000E+01 0. -1.
         -5    1    3    3    0  502 -0.21532950375E+02 -0.19124222465E+02 -0.11907601345E+02  0.31516421220E+02  0.47000000000E+01 0.  1.
          5    1    4    4  503    0  0.66180026152E+01  0.32582566737E+02  0.28783171464E+02  0.44226491758E+02  0.47000000000E+01 0. -1.
         -5    1    4    4    0  503 -0.18112005324E+02 -0.26829019930E+02 -0.31475525610E+02  0.45394270119E+02  0.47000000000E+01 0.  1.
<mgrwt>
<rscale>  0 0.92322787E+02</rscale>
<asrwt>0</asrwt>
<pdfrwt beam="1">  1        1 0.19498890E-01 0.93255477E+02</pdfrwt>
<pdfrwt beam="2">  1       -1 0.11117456E-01 0.93255477E+02</pdfrwt>
<totfact> 0.12322276E+04</totfact>
</mgrwt>
</event>
<event>
 8    1  0.7366917E-004  0.1085702E+03  0.7546771E-02  0.1263934E+00
          2   -1    0    0  501    0  0.00000000000E+00  0.00000000000E+00  0.67475092887E+03  0.67475092887E+03  0.00000000000E+00 0. -1.
         -2   -1    0    0    0  501 -0.00000000000E+00 -0.00000000000E+00 -0.52140695237E+02  0.52140695237E+02  0.00000000000E+00 0.  1.
         23    2    1    2    0    0 -0.57015391922E+02  0.90709608336E+00  0.14633526479E+02  0.10955191372E+03  0.92389955971E+02 0.  0.
         23    2    1    2    0    0  0.57015391922E+02 -0.90709608336E+00  0.60797670716E+03  0.61733971039E+03  0.90670082357E+02 0.  0.
          5    1    4    4  502    0  0.76621165541E+02 -0.68518616653E+01  0.55532214888E+03  0.56064474496E+03  0.47000000000E+01 0. -1.
         -5    1    4    4    0  502 -0.19605773619E+02  0.59447655819E+01  0.52654558275E+02  0.56694965422E+02  0.47000000000E+01 0.  1.
          5    1    3    3  503    0  0.17638553606E+01  0.23974356510E+02  0.35282866612E+02  0.42951736078E+02  0.47000000000E+01 0. -1.
         -5    1    3    3    0  503 -0.58779247282E+02 -0.23067260427E+02 -0.20649340132E+02  0.66600177647E+02  0.47000000000E+01 0.  1.
<mgrwt>
<rscale>  0 0.10820338E+03</rscale>
<asrwt>0</asrwt>
<pdfrwt beam="1">  1        2 0.10380783E+00 0.10857017E+03</pdfrwt>
<pdfrwt beam="2">  1       -2 0.80216459E-02 0.10857017E+03</pdfrwt>
<totfact> 0.39784909E+03</totfact>
</mgrwt>
</event>
<event>
 8    1  0.7366917E-004  0.1166176E+03  0.7546771E-02  0.1249281E+00
         -1   -1    0    0    0  501 -0.00000000000E+00  0.00000000000E+00  0.14844736349E+02  0.14844736349E+02  0.00000000000E+00 0.  1.
          1   -1    0    0  501    0  0.00000000000E+00 -0.00000000000E+00 -0.91774890672E+03  0.91774890672E+03  0.00000000000E+00 0. -1.
         23    2    1    2    0    0  0.69147462811E+02 -0.95415538225E+01 -0.50395058721E+03  0.51726768081E+03  0.93419732349E+02 0.  0.
         23    2    1    2    0    0 -0.69147462811E+02  0.95415538225E+01 -0.39895358316E+03  0.41532596226E+03  0.91974347252E+02 0.  0.
          5    1    4    4  502    0 -0.40207955751E+02 -0.27558561227E+02 -0.31657594220E+03  0.32034133542E+03  0.47000000000E+01 0. -1.
         -5    1    3    3    0  503 -0.72088966854E+01  0.27914421771E+02 -0.17750365123E+03  0.17989113189E+03  0.47000000000E+01 0.  1.
          5    1    3    3  503    0  0.76356359497E+02 -0.37455975594E+02 -0.32644693598E+03  0.33737654891E+03  0.47000000000E+01 0. -1.
         -5    1    4    4    0  502 -0.28939507061E+02  0.37100115050E+02 -0.82377640960E+02  0.94984626839E+02  0.47000000000E+01 0.  1.
<mgrwt>
<rscale>  0 0.11632784E+03</rscale>
<asrwt>0</asrwt>
<pdfrwt beam="1">  1        1 0.14119214E+00 0.11661758E+03</pdfrwt>
<pdfrwt beam="2">  1       -1 0.22838056E-02 0.11661758E+03</pdfrwt>
<totfact> 0.99530719E+03</totfact>
</mgrwt>
</event>
<event>
 8    1  0.7366917E-004  0.1015886E+03  0.7546771E-02  0.1280531E+00
         -3   -1    0    0    0  501 -0.00000000000E+00  0.00000000000E+00  0.24129696568E+03  0.24129696568E+03  0.00000000000E+00 0.  1.
          3   -1    0    0  501    0  0.00000000000E+00 -0.00000000000E+00 -0.44065105483E+02  0.44065105483E+02  0.00000000000E+00 0. -1.
         23    2    1    2    0    0 -0.24360485108E+01  0.33091287808E+02  0.14482682615E+03  0.17690405665E+03  0.96017019464E+02 0.  0.
         23    2    1    2    0    0  0.24360485108E+01 -0.33091287808E+02  0.52405034052E+02  0.10845801451E+03  0.88971263098E+02 0.  0.
          5    1    3    3  502    0  0.27419420696E+02  0.20035589199E+02  0.67306074589E+01  0.34937666531E+02  0.47000000000E+01 0. -1.
         -5    1    4    4    0  503 -0.42871579351E+02 -0.14313410328E+02  0.21250548474E+02  0.50164946344E+02  0.47000000000E+01 0.  1.
          5    1    4    4  503    0  0.45307627861E+02 -0.18777877480E+02  0.31154485578E+02  0.58293068170E+02  0.47000000000E+01 0. -1.
         -5    1    3    3    0  502 -0.29855469207E+02  0.13055698609E+02  0.13809621869E+03  0.14196639012E+03  0.47000000000E+01 0.  1.
<mgrwt>
<rscale>  0 0.99888498E+02</rscale>
<asrwt>0</asrwt>
<pdfrwt beam="1">  1        3 0.67792472E-02 0.10158856E+03</pdfrwt>
<pdfrwt beam="2">  1       -3 0.37122609E-01 0.10158856E+03</pdfrwt>
<totfact> 0.21755687E+03</totfact>
</mgrwt>
</event>
<event>
 8    1  0.7366917E-004  0.9584981E+02  0.7546771E-02  0.1290210E+00
         -2   -1    0    0    0  501 -0.00000000000E+00  0.00000000000E+00  0.96968314508E+02  0.96968314508E+02  0.00000000000E+00 0.  1.
          2   -1    0    0  501    0  0.00000000000E+00 -0.00000000000E+00 -0.71430741866E+03  0.71430741866E+03  0.00000000000E+00 0. -1.
         23    2    1    2    0    0 -0.18224433531E+02 -0.19065411049E+02  0.69255296012E+02  0.11825177780E+03  0.92149699134E+02 0.  0.
         23    2    1    2    0    0  0.18224433531E+02  0.19065411049E+02 -0.68659440017E+03  0.69302395537E+03  0.90414116729E+02 0.  0.
          5    1    3    3  502    0 -0.41006675285E+02  0.20428369684E+02  0.51524042125E+02  0.69106313914E+02  0.47000000000E+01 0. -1.
         -5    1    4    4    0  503  0.54703029249E+02  0.15531283434E+02 -0.43702254889E+03  0.44073171024E+03  0.47000000000E+01 0.  1.
          5    1    4    4  503    0 -0.36478595718E+02  0.35341276152E+01 -0.24957185128E+03  0.25229224513E+03  0.47000000000E+01 0. -1.
         -5    1    3    3    0  502  0.22782241754E+02 -0.39493780733E+02  0.17731253887E+02  0.49145463883E+02  0.47000000000E+01 0.  1.
<mgrwt>
<rscale>  0 0.95430224E+02</rscale>
<asrwt>0</asrwt>
<pdfrwt beam="1">  1        2 0.10989344E+00 0.95849814E+02</pdfrwt>
<pdfrwt beam="2">  1       -2 0.14918203E-01 0.95849814E+02</pdfrwt>
<totfact> 0.13961325E+03</totfact>
</mgrwt>
</event>
<event>
 8    1  0.7366917E-004  0.1958585E+03  0.7546771E-02  0.1153469E+00
         -2   -1    0    0    0  501 -0.00000000000E+00  0.00000000000E+00  0.36467642979E+03  0.36467642979E+03  0.00000000000E+00 0.  1.
          2   -1    0    0  501    0  0.00000000000E+00 -0.00000000000E+00 -0.58028458052E+03  0.58028458052E+03  0.00000000000E+00 0. -1.
         23    2    1    2    0    0 -0.11674873250E+03  0.12717683035E+03  0.31996486566E+03  0.37469878648E+03  0.90650166105E+02 0.  0.
         23    2    1    2    0    0  0.11674873250E+03 -0.12717683035E+03 -0.53557301639E+03  0.57026222383E+03  0.92500461241E+02 0.  0.
          5    1    3    3  502    0 -0.69678631996E+02  0.11066564019E+03  0.15795896041E+03  0.20512220467E+03  0.47000000000E+01 0. -1.
         -5    1    3    3    0  502 -0.47070100500E+02  0.16511190160E+02  0.16200590525E+03  0.16957658181E+03  0.47000000000E+01 0.  1.
          5    1    4    4  503    0  0.11289471491E+03 -0.86351817439E+02 -0.48254389093E+03  0.50306316671E+03  0.47000000000E+01 0. -1.
         -5    1    4    4    0  503  0.38540175893E+01 -0.40825012912E+02 -0.53029125453E+02  0.67199057115E+02  0.47000000000E+01 0.  1.
<mgrwt>
<rscale>  0 0.19564137E+03</rscale>
<asrwt>0</asrwt>
<pdfrwt beam="1">  1        2 0.89274550E-01 0.19585849E+03</pdfrwt>
<pdfrwt beam="2">  1       -2 0.56104067E-01 0.19585849E+03</pdfrwt>
<totfact> 0.16271107E+02</totfact>
</mgrwt>
</event>
<event>
 8    1  0.7366917E-004  0.9789908E+02  0.7546771E-02  0.1285252E+00
         -1   -1    0    0    0  501 -0.00000000000E+00  0.00000000000E+00  0.97760441907E+02  0.97760441907E+02  0.00000000000E+00 0.  1.
          1   -1    0    0  501    0  0.00000000000E+00 -0.00000000000E+00 -0.10494923802E+03  0.10494923802E+03  0.00000000000E+00 0. -1.
         23    2    1    2    0    0 -0.34997891646E+02  0.73774068579E+01 -0.31213731506E+02  0.10275469484E+03  0.91131507861E+02 0.  0.
         23    2    1    2    0    0  0.34997891646E+02 -0.73774068579E+01  0.24024935389E+02  0.99954985093E+02  0.90191590367E+02 0.  0.
          5    1    3    3  502    0  0.66184284385E+00 -0.29117809548E+02 -0.41076704704E+02  0.50573417308E+02  0.47000000000E+01 0. -1.
         -5    1    4    4    0  503  0.41113371249E+02  0.25602230011E+02  0.39540949396E+02  0.62700559457E+02  0.47000000000E+01 0.  1.
          5    1    4    4  503    0 -0.61154796028E+01 -0.32979636869E+02 -0.15516014007E+02  0.37254425636E+02  0.47000000000E+01 0. -1.
         -5    1    3    3    0  502 -0.35659734490E+02  0.36495216406E+02  0.98629731976E+01  0.52181277531E+02  0.47000000000E+01 0.  1.
<mgrwt>
<rscale>  0 0.97679762E+02</rscale>
<asrwt>0</asrwt>
<pdfrwt beam="1">  1        1 0.16146037E-01 0.97899082E+02</pdfrwt>
<pdfrwt beam="2">  1       -1 0.15040068E-01 0.97899082E+02</pdfrwt>
<totfact> 0.98822195E+03</totfact>
</mgrwt>
</event>
<event>
 8    1  0.7366917E-004  0.1183452E+03  0.7546771E-02  0.1245903E+00
         -3   -1    0    0    0  501 -0.00000000000E+00  0.00000000000E+00  0.74121417621E+03  0.74121417621E+03  0.00000000000E+00 0.  1.
          3   -1    0    0  501    0  0.00000000000E+00 -0.00000000000E+00 -0.18885494172E+02  0.18885494172E+02  0.00000000000E+00 0. -1.
         23    2    1    2    0    0 -0.39991992442E+02  0.64194189055E+02  0.35258814792E+03  0.37188110946E+03  0.90867508797E+02 0.  0.
         23    2    1    2    0    0  0.39991992442E+02 -0.64194189055E+02  0.36974053412E+03  0.38821856092E+03  0.91023816132E+02 0.  0.
          5    1    4    4  502    0 -0.20042574042E+02 -0.74900240288E+01  0.17873751472E+03  0.18007496884E+03  0.47000000000E+01 0. -1.
         -5    1    3    3    0  503 -0.54312899090E+02  0.27919819162E+02  0.30029599969E+03  0.30647868562E+03  0.47000000000E+01 0.  1.
          5    1    3    3  503    0  0.14320906647E+02  0.36274369892E+02  0.52292148232E+02  0.65402423847E+02  0.47000000000E+01 0. -1.
         -5    1    4    4    0  502  0.60034566484E+02 -0.56704165026E+02  0.19100301940E+03  0.20814359208E+03  0.47000000000E+01 0.  1.
<mgrwt>
<rscale>  0 0.11831515E+03</rscale>
<asrwt>0</asrwt>
<pdfrwt beam="1">  1        3 0.29054612E-02 0.11834521E+03</pdfrwt>
<pdfrwt beam="2">  1       -3 0.11403293E+00 0.11834521E+03</pdfrwt>
<totfact> 0.80864719E+02</totfact>
</mgrwt>
</event>
<event>
 7    1  0.7366917E-004  0.1908775E+03  0.7546771E-02  0.1172783E+00
          2   -1    0    0  501    0  0.00000000000E+00  0.00000000000E+00  0.12437638232E+04  0.12437638232E+04  0.00000000000E+00 0. -1.
         -2   -1    0    0    0  501 -0.00000000000E+00 -0.00000000000E+00 -0.23252850928E+02  0.23252850928E+02  0.00000000000E+00 0.  1.
         23    2    1    2    0    0  0.99329743318E+02 -0.23351091190E+01  0.33304234621E+03  0.35925305411E+03  0.90959891566E+02 0.  0.
          5    1    3    3  502    0  0.86734646584E+01 -0.36359692980E+02  0.99070281960E+02  0.10599182530E+03  0.47000000000E+01 0. -1.
         -5    1    1    2    0  503 -0.27344612241E+02 -0.77972570678E+02  0.36651212847E+03  0.37574017607E+03  0.47000000000E+01 0.  1.
          5    1    1    2  503    0 -0.71985131077E+02  0.80307679797E+02  0.52095649760E+03  0.53202344396E+03  0.47000000000E+01 0. -1.
         -5    1    3    3    0  502  0.90656278659E+02  0.34024583861E+02  0.23397206425E+03  0.25326122881E+03  0.47000000000E+01 0.  1.
<mgrwt>
<rscale>  0 0.17494936E+03</rscale>
<asrwt>0</asrwt>
<pdfrwt beam="1">  1        2 0.19134823E+00 0.19087752E+03</pdfrwt>
<pdfrwt beam="2">  1       -2 0.35773626E-02 0.19087752E+03</pdfrwt>
<totfact> 0.60715289E+03</totfact>
</mgrwt>
</event>
<event>
 8    1  0.7366917E-004  0.1329998E+03  0.7546771E-02  0.1224974E+00
         -1   -1    0    0    0  501 -0.00000000000E+00  0.00000000000E+00  0.14176051951E+03  0.14176051951E+03  0.00000000000E+00 0.  1.
          1   -1    0    0  501    0  0.00000000000E+00 -0.00000000000E+00 -0.12848306904E+03  0.12848306904E+03  0.00000000000E+00 0. -1.
         23    2    1    2    0    0  0.15704918861E+02  0.88114581164E+02 -0.28007163995E+02  0.13591673329E+03  0.98377503853E+02 0.  0.
         23    2    1    2    0    0 -0.15704918861E+02 -0.88114581164E+02  0.41284614471E+02  0.13432685526E+03  0.91260400837E+02 0.  0.
          5    1    3    3  502    0  0.51454396302E+02  0.52177806918E+02 -0.39995113775E+02  0.83616849734E+02  0.47000000000E+01 0. -1.
         -5    1    3    3    0  502 -0.35749477441E+02  0.35936774246E+02  0.11987949780E+02  0.52299883560E+02  0.47000000000E+01 0.  1.
          5    1    4    4  503    0  0.63982771051E+01 -0.21845477968E+02 -0.27615440175E+02  0.36095226743E+02  0.47000000000E+01 0. -1.
         -5    1    4    4    0  503 -0.22103195966E+02 -0.66269103196E+02  0.68900054646E+02  0.98231628514E+02  0.47000000000E+01 0.  1.
<mgrwt>
<rscale>  0 0.13168687E+03</rscale>
<asrwt>0</asrwt>
<pdfrwt beam="1">  1        1 0.19766626E-01 0.13299984E+03</pdfrwt>
<pdfrwt beam="2">  1       -1 0.21809311E-01 0.13299984E+03</pdfrwt>
<totfact> 0.43371330E+03</totfact>
</mgrwt>
</event>
<event>
 8    1  0.7366917E-004  0.1425637E+03  0.7546771E-02  0.1220540E+00
         -2   -1    0    0    0  501 -0.00000000000E+00  0.00000000000E+00  0.65314646625E+02  0.65314646625E+02  0.00000000000E+00 0.  1.
          2   -1    0    0  501    0  0.00000000000E+00 -0.00000000000E+00 -0.42198422065E+03  0.42198422065E+03  0.00000000000E+00 0. -1.
         23    2    1    2    0    0  0.47330946752E+02 -0.47205903734E+02 -0.32063377700E+03  0.34025126360E+03  0.92175308845E+02 0.  0.
         23    2    1    2    0    0 -0.47330946752E+02  0.47205903734E+02 -0.36035797016E+02  0.14704760367E+03  0.12591982850E+03 0.  0.
          5    1    4    4  502    0 -0.77427110161E+02  0.11056474872E+02 -0.55402565184E+02  0.95962165740E+02  0.47000000000E+01 0. -1.
         -5    1    3    3    0  503 -0.13827816772E+02 -0.44100049008E+02 -0.86376925504E+02  0.98076939689E+02  0.47000000000E+01 0.  1.
          5    1    3    3  503    0  0.61158763524E+02 -0.31058547260E+01 -0.23425685150E+03  0.24217432392E+03  0.47000000000E+01 0. -1.
         -5    1    4    4    0  502  0.30096163409E+02  0.36149428862E+02  0.19366768168E+02  0.51085437927E+02  0.47000000000E+01 0.  1.
<mgrwt>
<rscale>  0 0.13477302E+03</rscale>
<asrwt>0</asrwt>
<pdfrwt beam="1">  1        2 0.64920647E-01 0.14256374E+03</pdfrwt>
<pdfrwt beam="2">  1       -2 0.10048407E-01 0.14256374E+03</pdfrwt>
<totfact> 0.47844786E+03</totfact>
</mgrwt>
</event>
<event>
 8    1  0.7366917E-004  0.1121725E+03  0.7546771E-02  0.1257547E+00
          1   -1    0    0  501    0  0.00000000000E+00  0.00000000000E+00  0.37935273794E+02  0.37935273794E+02  0.00000000000E+00 0. -1.
         -1   -1    0    0    0  501 -0.00000000000E+00 -0.00000000000E+00 -0.37824915554E+03  0.37824915554E+03  0.00000000000E+00 0.  1.
         23    2    1    2    0    0 -0.56667058223E+02 -0.30242222132E+02 -0.91128228338E+02  0.14291503580E+03  0.89412560468E+02 0.  0.
         23    2    1    2    0    0  0.56667058223E+02  0.30242222132E+02 -0.24918565341E+03  0.27326939354E+03  0.91961535946E+02 0.  0.
          5    1    3    3  502    0 -0.74469210422E+02 -0.44426941492E+02 -0.72593801271E+02  0.11318730677E+03  0.47000000000E+01 0. -1.
         -5    1    3    3    0  502  0.17802152199E+02  0.14184719360E+02 -0.18534427068E+02  0.29727729025E+02  0.47000000000E+01 0.  1.
          5    1    4    4  503    0  0.69609898620E+02 -0.25957499628E+01 -0.20475453676E+03  0.21633027117E+03  0.47000000000E+01 0.  1.
         -5    1    4    4    0  503 -0.12942840397E+02  0.32837972094E+02 -0.44431116654E+02  0.56939122367E+02  0.47000000000E+01 0. -1.
<mgrwt>
<rscale>  0 0.11164884E+03</rscale>
<asrwt>0</asrwt>
<pdfrwt beam="1">  1        1 0.58361960E-02 0.11217251E+03</pdfrwt>
<pdfrwt beam="2">  1       -1 0.58192178E-01 0.11217251E+03</pdfrwt>
<totfact> 0.39194488E+03</totfact>
</mgrwt>
</event>
<event>
 8    1  0.7366917E-004  0.1090768E+03  0.7546771E-02  0.1267965E+00
          1   -1    0    0  501    0  0.00000000000E+00  0.00000000000E+00  0.41293498476E+03  0.41293498476E+03  0.00000000000E+00 0. -1.
         -1   -1    0    0    0  501 -0.00000000000E+00 -0.00000000000E+00 -0.90751316224E+02  0.90751316224E+02  0.00000000000E+00 0.  1.
         23    2    1    2    0    0 -0.12665315834E+02 -0.32111586909E+02 -0.54289941658E+02  0.11172951358E+03  0.91348356314E+02 0.  0.
         23    2    1    2    0    0  0.12665315834E+02  0.32111586909E+02  0.37647361019E+03  0.39195678740E+03  0.10347067111E+03 0.  0.
          5    1    3    3  502    0  0.27482184589E+02  0.73209380273E+01  0.56543924375E+01  0.29375649052E+02  0.47000000000E+01 0. -1.
         -5    1    4    4    0  503  0.44323078395E+01 -0.24243052895E+02  0.23463568221E+02  0.34351128076E+02  0.47000000000E+01 0.  1.
          5    1    4    4  503    0  0.82330079943E+01  0.56354639804E+02  0.35301004197E+03  0.35760565933E+03  0.47000000000E+01 0. -1.
         -5    1    3    3    0  502 -0.40147500423E+02 -0.39432524936E+02 -0.59944334096E+02  0.82353864531E+02  0.47000000000E+01 0.  1.
<mgrwt>
<rscale>  0 0.10610125E+03</rscale>
<asrwt>0</asrwt>
<pdfrwt beam="1">  1        1 0.63528458E-01 0.10907678E+03</pdfrwt>
<pdfrwt beam="2">  1       -1 0.13961741E-01 0.10907678E+03</pdfrwt>
<totfact> 0.20383235E+03</totfact>
</mgrwt>
</event>
<event>
 8    1  0.7366917E-004  0.1474377E+03  0.7546771E-02  0.1208478E+00
          2   -1    0    0  501    0  0.00000000000E+00  0.00000000000E+00  0.13764014910E+04  0.13764014910E+04  0.00000000000E+00 0. -1.
         -2   -1    0    0    0  501 -0.00000000000E+00 -0.00000000000E+00 -0.19822494640E+02  0.19822494640E+02  0.00000000000E+00 0.  1.
         23    2    1    2    0    0 -0.85230946511E+02 -0.28439451377E+02  0.28410041971E+03  0.31365843583E+03  0.97956363996E+02 0.  0.
         23    2    1    2    0    0  0.85230946511E+02  0.28439451377E+02  0.10724785766E+04  0.10825655498E+04  0.11689634568E+03 0.  0.
          5    1    4    4  502    0  0.11087537754E+03  0.36387988856E+01  0.84356053662E+03  0.85083668182E+03  0.47000000000E+01 0. -1.
         -5    1    3    3    0  503 -0.10404268699E+03 -0.78531532777E+01  0.23034527731E+03  0.25291814785E+03  0.47000000000E+01 0.  1.
          5    1    3    3  503    0  0.18811740476E+02 -0.20586298099E+02  0.53755142398E+02  0.60740287976E+02  0.47000000000E+01 0. -1.
         -5    1    4    4    0  502 -0.25644431029E+02  0.24800652491E+02  0.22891803999E+03  0.23172886794E+03  0.47000000000E+01 0.  1.
<mgrwt>
<rscale>  0 0.14366684E+03</rscale>
<asrwt>0</asrwt>
<pdfrwt beam="1">  1        2 0.21175400E+00 0.14743769E+03</pdfrwt>
<pdfrwt beam="2">  1       -2 0.30496157E-02 0.14743769E+03</pdfrwt>
<totfact> 0.64641980E+03</totfact>
</mgrwt>
</event>
<event>
 8    1  0.7366917E-004  0.1219828E+03  0.7546771E-02  0.1251393E+00
         -1   -1    0    0    0  501 -0.00000000000E+00  0.00000000000E+00  0.16670206866E+03  0.16670206866E+03  0.00000000000E+00 0.  1.
          1   -1    0    0  501    0  0.00000000000E+00 -0.00000000000E+00 -0.88515345221E+02  0.88515345221E+02  0.00000000000E+00 0. -1.
         23    2    1    2    0    0  0.40274676816E+02  0.49545174589E+01 -0.19830867993E+02  0.98733361252E+02  0.87797588024E+02 0.  0.
         23    2    1    2    0    0 -0.40274676816E+02 -0.49545174589E+01  0.98017591433E+02  0.15648405263E+03  0.11503570603E+03 0.  0.
          5    1    3    3  502    0 -0.25856840397E+02 -0.11017654446E+02 -0.47334181848E+01  0.28887023947E+02  0.47000000000E+01 0. -1.
         -5    1    4    4    0  503 -0.30930295113E+02 -0.52393791702E+02  0.87667249298E+02  0.10681492950E+03  0.47000000000E+01 0.  1.
          5    1    4    4  503    0 -0.93443817026E+01  0.47439274243E+02  0.10350342134E+02  0.49669123129E+02  0.47000000000E+01 0. -1.
         -5    1    3    3    0  502  0.66131517213E+02  0.15972171905E+02 -0.15097449808E+02  0.69846337305E+02  0.47000000000E+01 0.  1.
<mgrwt>
<rscale>  0 0.11510775E+03</rscale>
<asrwt>0</asrwt>
<pdfrwt beam="1">  1        1 0.13617746E-01 0.12198283E+03</pdfrwt>
<pdfrwt beam="2">  1       -1 0.25646472E-01 0.12198283E+03</pdfrwt>
<totfact> 0.53445725E+03</totfact>
</mgrwt>
</event>
<event>
 8    1  0.7366917E-004  0.1574638E+03  0.7546771E-02  0.1191650E+00
          1   -1    0    0  501    0  0.00000000000E+00  0.00000000000E+00  0.83900121524E+03  0.83900121524E+03  0.00000000000E+00 0. -1.
         -1   -1    0    0    0  501 -0.00000000000E+00 -0.00000000000E+00 -0.55425250341E+02  0.55425250341E+02  0.00000000000E+00 0.  1.
         23    2    1    2    0    0 -0.90750970907E+02  0.90569146053E+02  0.86147350519E+02  0.17948873594E+03  0.91412971683E+02 0.  0.
         23    2    1    2    0    0  0.90750970907E+02 -0.90569146053E+02  0.69742861438E+03  0.71493772964E+03  0.91053699356E+02 0.  0.
          5    1    4    4  502    0  0.54001358688E+02 -0.71042657692E+02  0.62432586210E+03  0.63068857453E+03  0.47000000000E+01 0. -1.
         -5    1    4    4    0  502  0.36749612219E+02 -0.19526488361E+02  0.73102752278E+02  0.84249155109E+02  0.47000000000E+01 0.  1.
          5    1    3    3  503    0 -0.34178644012E+02 -0.13924343406E+02  0.10917944246E+02  0.38773167944E+02  0.47000000000E+01 0. -1.
         -5    1    3    3    0  503 -0.56572326894E+02  0.10449348946E+03  0.75229406272E+02  0.14071556800E+03  0.47000000000E+01 0.  1.
<mgrwt>
<rscale>  0 0.15741167E+03</rscale>
<asrwt>0</asrwt>
<pdfrwt beam="1">  1        1 0.12907710E+00 0.15746377E+03</pdfrwt>
<pdfrwt beam="2">  1       -1 0.85269622E-02 0.15746377E+03</pdfrwt>
<totfact> 0.16601746E+03</totfact>
</mgrwt>
</event>
<event>
 8    1  0.7366917E-004  0.9691972E+02  0.7546771E-02  0.1287487E+00
         -2   -1    0    0    0  501 -0.00000000000E+00  0.00000000000E+00  0.27954667861E+02  0.27954667861E+02  0.00000000000E+00 0.  1.
          2   -1    0    0  501    0  0.00000000000E+00 -0.00000000000E+00 -0.38315168388E+03  0.38315168388E+03  0.00000000000E+00 0. -1.
         23    2    1    2    0    0  0.24748614078E+01 -0.30605561942E+02 -0.25324021193E+03  0.27115316332E+03  0.91927186817E+02 0.  0.
         23    2    1    2    0    0 -0.24748614078E+01  0.30605561942E+02 -0.10195680409E+03  0.13995318843E+03  0.90823343309E+02 0.  0.
          5    1    4    4  502    0 -0.21918149569E+02 -0.26089738676E+02 -0.48789592075E+02  0.59695846083E+02  0.47000000000E+01 0. -1.
         -5    1    4    4    0  502  0.19443288161E+02  0.56695300619E+02 -0.53167212016E+02  0.80257342345E+02  0.47000000000E+01 0.  1.
          5    1    3    3  503    0 -0.38820520569E+02 -0.32512802833E+02 -0.17861293260E+03  0.18571156361E+03  0.47000000000E+01 0. -1.
         -5    1    3    3    0  503  0.41295381977E+02  0.19072408908E+01 -0.74627279334E+02  0.85441599711E+02  0.47000000000E+01 0.  1.
<mgrwt>
<rscale>  0 0.96657073E+02</rscale>
<asrwt>0</asrwt>
<pdfrwt beam="1">  1        2 0.58946412E-01 0.96919725E+02</pdfrwt>
<pdfrwt beam="2">  1       -2 0.43007182E-02 0.96919725E+02</pdfrwt>
<totfact> 0.18730680E+04</totfact>
</mgrwt>
</event>
<event>
 8    1  0.7366917E-004  0.1061257E+03  0.7546771E-02  0.1268240E+00
         -2   -1    0    0    0  501 -0.00000000000E+00  0.00000000000E+00  0.18812369875E+02  0.18812369875E+02  0.00000000000E+00 0.  1.
          2   -1    0    0  501    0  0.00000000000E+00 -0.00000000000E+00 -0.67546496661E+03  0.67546496661E+03  0.00000000000E+00 0. -1.
         23    2    1    2    0    0 -0.54309149770E+01  0.52828662670E+02 -0.20757889910E+03  0.23283411842E+03  0.91117314006E+02 0.  0.
         23    2    1    2    0    0  0.54309149770E+01 -0.52828662670E+02 -0.44907369763E+03  0.46144321806E+03  0.91881963159E+02 0.  0.
          5    1    4    4  502    0 -0.40525169748E+02 -0.34130178291E+02 -0.28674228564E+03  0.29163399464E+03  0.47000000000E+01 0. -1.
         -5    1    4    4    0  502  0.45956084725E+02 -0.18698484379E+02 -0.16233141199E+03  0.16980922342E+03  0.47000000000E+01 0.  1.
          5    1    3    3  503    0 -0.40131782980E+02  0.18729898347E-01 -0.61278980282E+02  0.73401388136E+02  0.47000000000E+01 0. -1.
         -5    1    3    3    0  503  0.34700868003E+02  0.52809932771E+02 -0.14629991882E+03  0.15943273028E+03  0.47000000000E+01 0.  1.
<mgrwt>
<rscale>  0 0.10595995E+03</rscale>
<asrwt>0</asrwt>
<pdfrwt beam="1">  1        2 0.10391768E+00 0.10612567E+03</pdfrwt>
<pdfrwt beam="2">  1       -2 0.28942111E-02 0.10612567E+03</pdfrwt>
<totfact> 0.18160552E+04</totfact>
</mgrwt>
</event>
<event>
 8    1  0.7366917E-004  0.9241781E+02  0.7546771E-02  0.1301491E+00
          1   -1    0    0  501    0  0.00000000000E+00  0.00000000000E+00  0.11189369655E+03  0.11189369655E+03  0.00000000000E+00 0. -1.
         -1   -1    0    0    0  501 -0.00000000000E+00 -0.00000000000E+00 -0.74048146622E+02  0.74048146622E+02  0.00000000000E+00 0.  1.
         23    2    1    2    0    0  0.39029973145E+01  0.78553353810E+01  0.39973146420E+02  0.10069212136E+03  0.92000604281E+02 0.  0.
         23    2    1    2    0    0 -0.39029973145E+01 -0.78553353810E+01 -0.21275964883E+01  0.85249721811E+02  0.84770565175E+02 0.  0.
          5    1    4    4  502    0  0.16848414561E+02  0.24747932658E+02  0.23749277363E+02  0.38502563802E+02  0.47000000000E+01 0. -1.
         -5    1    4    4    0  502 -0.20751411875E+02 -0.32603268039E+02 -0.25876873851E+02  0.46747158009E+02  0.47000000000E+01 0.  1.
          5    1    3    3  503    0  0.42754378644E+02  0.23670635703E+02  0.29226850077E+02  0.57136106389E+02  0.47000000000E+01 0. -1.
         -5    1    3    3    0  503 -0.38851381329E+02 -0.15815300322E+02  0.10746296343E+02  0.43556014976E+02  0.47000000000E+01 0.  1.
<mgrwt>
<rscale>  0 0.90564118E+02</rscale>
<asrwt>0</asrwt>
<pdfrwt beam="1">  1        1 0.17214415E-01 0.92417806E+02</pdfrwt>
<pdfrwt beam="2">  1       -1 0.11392023E-01 0.92417806E+02</pdfrwt>
<totfact> 0.13885627E+04</totfact>
</mgrwt>
</event>
<event>
 8    1  0.7366917E-004  0.9549867E+02  0.7546771E-02  0.1290274E+00
          1   -1    0    0  501    0  0.00000000000E+00  0.00000000000E+00  0.38957373589E+03  0.38957373589E+03  0.00000000000E+00 0. -1.
         -1   -1    0    0    0  501 -0.00000000000E+00 -0.00000000000E+00 -0.40294118977E+02  0.40294118977E+02  0.00000000000E+00 0.  1.
         23    2    1    2    0    0  0.28040433221E+02 -0.65702617841E+01  0.35324872740E+02  0.10182260509E+03  0.91052523513E+02 0.  0.
         23    2    1    2    0    0 -0.28040433221E+02  0.65702617841E+01  0.31395474417E+03  0.32804524977E+03  0.90645850852E+02 0.  0.
          5    1    3    3  502    0  0.27634490719E+02 -0.31963941367E+02  0.54884128304E+02  0.69424175650E+02  0.47000000000E+01 0. -1.
         -5    1    4    4    0  503  0.53310956639E+01 -0.37632879011E+02  0.15465086909E+03  0.15932242615E+03  0.47000000000E+01 0.  1.
          5    1    4    4  503    0 -0.33371528885E+02  0.44203140795E+02  0.15930387508E+03  0.16872282362E+03  0.47000000000E+01 0. -1.
         -5    1    3    3    0  502  0.40594250143E+00  0.25393679582E+02 -0.19559255563E+02  0.32398429441E+02  0.47000000000E+01 0.  1.
<mgrwt>
<rscale>  0 0.95401609E+02</rscale>
<asrwt>0</asrwt>
<pdfrwt beam="1">  1        1 0.59934418E-01 0.95498672E+02</pdfrwt>
<pdfrwt beam="2">  1       -1 0.61990955E-02 0.95498672E+02</pdfrwt>
<totfact> 0.74168152E+03</totfact>
</mgrwt>
</event>
<event>
 8    1  0.7366917E-004  0.1437292E+03  0.7546771E-02  0.1209327E+00
         -2   -1    0    0    0  501 -0.00000000000E+00  0.00000000000E+00  0.67110723410E+02  0.67110723410E+02  0.00000000000E+00 0.  1.
          2   -1    0    0  501    0  0.00000000000E+00 -0.00000000000E+00 -0.33202360584E+03  0.33202360584E+03  0.00000000000E+00 0. -1.
         23    2    1    2    0    0  0.76757287523E+02  0.80773160406E+02 -0.73435364723E+02  0.16140274645E+03  0.90786062478E+02 0.  0.
         23    2    1    2    0    0 -0.76757287523E+02 -0.80773160406E+02 -0.19147751770E+03  0.23773158280E+03  0.86236193344E+02 0.  0.
          5    1    4    4  502    0 -0.60199942069E+02 -0.60659380442E+02 -0.19309045674E+03  0.21120986706E+03  0.47000000000E+01 0. -1.
         -5    1    3    3    0  503  0.96471359114E+02  0.57817047720E+02 -0.51838403628E+02  0.12393080419E+03  0.47000000000E+01 0.  1.
          5    1    3    3  503    0 -0.19714071591E+02  0.22956112687E+02 -0.21596961095E+02  0.37471942262E+02  0.47000000000E+01 0. -1.
         -5    1    4    4    0  502 -0.16557345454E+02 -0.20113779964E+02  0.16129390384E+01  0.26521715730E+02  0.47000000000E+01 0.  1.
<mgrwt>
<rscale>  0 0.14301652E+03</rscale>
<asrwt>0</asrwt>
<pdfrwt beam="1">  1        2 0.51080556E-01 0.14372924E+03</pdfrwt>
<pdfrwt beam="2">  1       -2 0.10324726E-01 0.14372924E+03</pdfrwt>
<totfact> 0.59242555E+03</totfact>
</mgrwt>
</event>
<event>
 8    1  0.7366917E-004  0.9983262E+02  0.7546771E-02  0.1281887E+00
          3   -1    0    0  501    0  0.00000000000E+00  0.00000000000E+00  0.42073764848E+02  0.42073764848E+02  0.00000000000E+00 0. -1.
         -3   -1    0    0    0  501 -0.00000000000E+00 -0.00000000000E+00 -0.29063192731E+03  0.29063192731E+03  0.00000000000E+00 0.  1.
         23    2    1    2    0    0  0.32368721625E+02  0.13961892634E+02 -0.19820641923E+03  0.22089401578E+03  0.90915966691E+02 0.  0.
         23    2    1    2    0    0 -0.32368721625E+02 -0.13961892634E+02 -0.50351743230E+02  0.11181167637E+03  0.93401736288E+02 0.  0.
          5    1    3    3  502    0  0.73452259116E+01 -0.33602686466E+02 -0.36267942387E+02  0.50205044831E+02  0.47000000000E+01 0. -1.
         -5    1    3    3    0  502  0.25023495713E+02  0.47564579101E+02 -0.16193847684E+03  0.17068897095E+03  0.47000000000E+01 0.  1.
          5    1    4    4  503    0 -0.10694316932E+02 -0.21198811172E+02  0.23879333107E+02  0.34001037622E+02  0.47000000000E+01 0. -1.
         -5    1    4    4    0  503 -0.21674404693E+02  0.72369185374E+01 -0.74231076337E+02  0.77810638751E+02  0.47000000000E+01 0.  1.
<mgrwt>
<rscale>  0 0.99247069E+02</rscale>
<asrwt>0</asrwt>
<pdfrwt beam="1">  1        3 0.64728870E-02 0.99832625E+02</pdfrwt>
<pdfrwt beam="2">  1       -3 0.44712603E-01 0.99832625E+02</pdfrwt>
<totfact> 0.16335086E+03</totfact>
</mgrwt>
</event>
<event>
 8    1  0.7366917E-004  0.9980874E+02  0.7546771E-02  0.1287801E+00
         -1   -1    0    0    0  501 -0.00000000000E+00  0.00000000000E+00  0.55728273936E+02  0.55728273936E+02  0.00000000000E+00 0.  1.
          1   -1    0    0  501    0  0.00000000000E+00 -0.00000000000E+00 -0.19770088696E+03  0.19770088696E+03  0.00000000000E+00 0. -1.
         23    2    1    2    0    0 -0.35955395901E+02 -0.22733992729E+00 -0.12459606933E+03  0.15211909308E+03  0.79518524942E+02 0.  0.
         23    2    1    2    0    0  0.35955395901E+02  0.22733992729E+00 -0.17376543690E+02  0.10131006781E+03  0.93107160798E+02 0.  0.
          5    1    3    3  502    0 -0.53993676259E+02 -0.21980630111E+02 -0.79561631844E+02  0.98745169186E+02  0.47000000000E+01 0. -1.
         -5    1    3    3    0  502  0.18038280358E+02  0.21753290183E+02 -0.45034437486E+02  0.53373923893E+02  0.47000000000E+01 0.  1.
          5    1    4    4  503    0 -0.88824072295E-01 -0.43041123216E+02 -0.77826413742E+01  0.43990972758E+02  0.47000000000E+01 0. -1.
         -5    1    4    4    0  503  0.36044219973E+02  0.43268463144E+02 -0.95939023157E+01  0.57319095055E+02  0.47000000000E+01 0.  1.
<mgrwt>
<rscale>  0 0.96514504E+02</rscale>
<asrwt>0</asrwt>
<pdfrwt beam="1">  1        1 0.30415521E-01 0.99808745E+02</pdfrwt>
<pdfrwt beam="2">  1       -1 0.85735807E-02 0.99808745E+02</pdfrwt>
<totfact> 0.10560283E+04</totfact>
</mgrwt>
</event>
<event>
 8    1  0.7366917E-004  0.1139084E+03  0.7546771E-02  0.1254532E+00
          1   -1    0    0  501    0  0.00000000000E+00  0.00000000000E+00  0.18038821065E+02  0.18038821065E+02  0.00000000000E+00 0. -1.
         -1   -1    0    0    0  501 -0.00000000000E+00 -0.00000000000E+00 -0.70801472338E+03  0.70801472338E+03  0.00000000000E+00 0.  1.
         23    2    1    2    0    0 -0.40177805149E+02  0.54219033954E+02 -0.31684338107E+03  0.33592150929E+03  0.88879539850E+02 0.  0.
         23    2    1    2    0    0  0.40177805149E+02 -0.54219033954E+02 -0.37313252125E+03  0.39013203516E+03  0.91766915479E+02 0.  0.
          5    1    3    3  502    0 -0.19531356559E+02 -0.19254879049E+02 -0.14768792487E+03  0.15028651772E+03  0.47000000000E+01 0. -1.
         -5    1    3    3    0  502 -0.20646448590E+02  0.73473913004E+02 -0.16915545620E+03  0.18563499157E+03  0.47000000000E+01 0.  1.
          5    1    4    4  503    0  0.69421670874E+02 -0.41029141154E+02 -0.28493972503E+03  0.29616801939E+03  0.47000000000E+01 0. -1.
         -5    1    4    4    0  503 -0.29243865724E+02 -0.13189892801E+02 -0.88192796216E+02  0.93964015767E+02  0.47000000000E+01 0.  1.
<mgrwt>
<rscale>  0 0.11332570E+03</rscale>
<asrwt>0</asrwt>
<pdfrwt beam="1">  1        1 0.27752035E-02 0.11390841E+03</pdfrwt>
<pdfrwt beam="2">  1       -1 0.10892533E+00 0.11390841E+03</pdfrwt>
<totfact> 0.30077880E+03</totfact>
</mgrwt>
</event>
<event>
 8    1  0.7366917E-004  0.1410071E+03  0.7546771E-02  0.1212032E+00
         -1   -1    0    0    0  501 -0.00000000000E+00  0.00000000000E+00  0.15003010334E+03  0.15003010334E+03  0.00000000000E+00 0.  1.
          1   -1    0    0  501    0  0.00000000000E+00 -0.00000000000E+00 -0.29240064216E+03  0.29240064216E+03  0.00000000000E+00 0. -1.
         23    2    1    2    0    0 -0.67757305179E+02  0.82082356184E+02 -0.23485110005E+03  0.27393074639E+03  0.92490264471E+02 0.  0.
         23    2    1    2    0    0  0.67757305179E+02 -0.82082356184E+02  0.92480561228E+02  0.16849999911E+03  0.92255243177E+02 0.  0.
          5    1    3    3  502    0 -0.41412452587E+02  0.37978327420E+02 -0.32446673363E+02  0.65055523941E+02  0.47000000000E+01 0.  1.
         -5    1    4    4    0  503  0.37411980674E+02 -0.63220779670E+02  0.48757338927E+01  0.73772529176E+02  0.47000000000E+01 0.  1.
          5    1    4    4  503    0  0.30345324505E+02 -0.18861576514E+02  0.87604827335E+02  0.94727469935E+02  0.47000000000E+01 0. -1.
         -5    1    3    3    0  502 -0.26344852593E+02  0.44104028764E+02 -0.20240442669E+03  0.20887522245E+03  0.47000000000E+01 0. -1.
<mgrwt>
<rscale>  0 0.14096862E+03</rscale>
<asrwt>0</asrwt>
<pdfrwt beam="1">  1        1 0.44984713E-01 0.14100714E+03</pdfrwt>
<pdfrwt beam="2">  1       -1 0.23081555E-01 0.14100714E+03</pdfrwt>
<totfact> 0.14207584E+03</totfact>
</mgrwt>
</event>
<event>
 8    1  0.7366917E-004  0.3115243E+03  0.7546771E-02  0.1079702E+00
         -1   -1    0    0    0  501 -0.00000000000E+00  0.00000000000E+00  0.99627673172E+02  0.99627673172E+02  0.00000000000E+00 0.  1.
          1   -1    0    0  501    0  0.00000000000E+00 -0.00000000000E+00 -0.23056751953E+04  0.23056751953E+04  0.00000000000E+00 0. -1.
         23    2    1    2    0    0 -0.29178941852E+03  0.53770485422E+02 -0.18884135229E+03  0.36429168315E+03  0.94947586667E+02 0.  0.
         23    2    1    2    0    0  0.29178941852E+03 -0.53770485422E+02 -0.20172061698E+04  0.20410111853E+04  0.92593720675E+02 0.  0.
          5    1    3    3  502    0 -0.54771217522E+02  0.47703877975E+02 -0.29212948944E+02  0.78428519230E+02  0.47000000000E+01 0. -1.
         -5    1    4    4    0  503  0.16485974588E+02  0.17230213988E+02 -0.10484349917E+03  0.10762396086E+03  0.47000000000E+01 0.  1.
          5    1    4    4  503    0  0.27530344394E+03 -0.71000699410E+02 -0.19123626707E+04  0.19333872245E+04  0.47000000000E+01 0. -1.
         -5    1    3    3    0  502 -0.23701820100E+03  0.60666074469E+01 -0.15962840335E+03  0.28586316392E+03  0.47000000000E+01 0.  1.
<mgrwt>
<rscale>  0 0.31134679E+03</rscale>
<asrwt>0</asrwt>
<pdfrwt beam="1">  1        1 0.35471926E+00 0.31152428E+03</pdfrwt>
<pdfrwt beam="2">  1       -1 0.15327334E-01 0.31152428E+03</pdfrwt>
<totfact> 0.65701995E+01</totfact>
</mgrwt>
</event>
<event>
 8    1  0.7366917E-004  0.1168813E+03  0.7546771E-02  0.1258722E+00
          1   -1    0    0  501    0  0.00000000000E+00  0.00000000000E+00  0.29813599452E+03  0.29813599452E+03  0.00000000000E+00 0. -1.
         -1   -1    0    0    0  501 -0.00000000000E+00 -0.00000000000E+00 -0.37728374691E+02  0.37728374691E+02  0.00000000000E+00 0.  1.
         23    2    1    2    0    0 -0.20384087074E+02 -0.33605408286E+02  0.12307476402E+03  0.15552705587E+03  0.86581944405E+02 0.  0.
         23    2    1    2    0    0  0.20384087074E+02  0.33605408286E+02  0.13733285581E+03  0.18033731334E+03  0.11007451488E+03 0.  0.
          5    1    4    4  502    0 -0.13584029251E+02  0.19043977698E+02  0.14090527876E+03  0.14291111405E+03  0.47000000000E+01 0. -1.
         -5    1    4    4    0  502  0.33968116325E+02  0.14561430587E+02 -0.35724229518E+01  0.37426199288E+02  0.47000000000E+01 0.  1.
          5    1    3    3  503    0 -0.44492258538E+02  0.56051803302E+00  0.94808001942E+02  0.10483569279E+03  0.47000000000E+01 0. -1.
         -5    1    3    3    0  503  0.24108171464E+02 -0.34165926319E+02  0.28266762075E+02  0.50691363079E+02  0.47000000000E+01 0.  1.
<mgrwt>
<rscale>  0 0.11100368E+03</rscale>
<asrwt>0</asrwt>
<pdfrwt beam="1">  1        1 0.45867075E-01 0.11688128E+03</pdfrwt>
<pdfrwt beam="2">  1       -1 0.58043655E-02 0.11688128E+03</pdfrwt>
<totfact> 0.11559495E+04</totfact>
</mgrwt>
</event>
<event>
 8    1  0.7366917E-004  0.1319201E+03  0.7546771E-02  0.1225371E+00
          1   -1    0    0  501    0  0.00000000000E+00  0.00000000000E+00  0.68611264256E+03  0.68611264256E+03  0.00000000000E+00 0. -1.
         -1   -1    0    0    0  501 -0.00000000000E+00 -0.00000000000E+00 -0.30724183259E+02  0.30724183259E+02  0.00000000000E+00 0.  1.
         23    2    1    2    0    0 -0.93117602601E+02  0.74686747876E+01  0.17476317923E+03  0.21896365170E+03  0.93146352233E+02 0.  0.
         23    2    1    2    0    0  0.93117602601E+02 -0.74686747876E+01  0.48062528006E+03  0.49787317411E+03  0.90279392149E+02 0.  0.
          5    1    4    4  502    0  0.81709394370E+02 -0.33247196279E+02  0.43615502670E+03  0.44501134649E+03  0.47000000000E+01 0. -1.
         -5    1    3    3    0  503 -0.30360036207E+02  0.46911197898E+02  0.92165227298E+02  0.10788378659E+03  0.47000000000E+01 0.  1.
          5    1    3    3  503    0 -0.62757566394E+02 -0.39442523111E+02  0.82597951936E+02  0.11107986511E+03  0.47000000000E+01 0. -1.
         -5    1    4    4    0  502  0.11408208231E+02  0.25778521491E+02  0.44470253361E+02  0.52861827620E+02  0.47000000000E+01 0.  1.
<mgrwt>
<rscale>  0 0.13141509E+03</rscale>
<asrwt>0</asrwt>
<pdfrwt beam="1">  1        1 0.10555578E+00 0.13192010E+03</pdfrwt>
<pdfrwt beam="2">  1       -1 0.47267979E-02 0.13192010E+03</pdfrwt>
<totfact> 0.53736295E+03</totfact>
</mgrwt>
</event>
<event>
 8    1  0.7366917E-004  0.1204668E+03  0.7546771E-02  0.1242583E+00
          3   -1    0    0  501    0  0.00000000000E+00  0.00000000000E+00  0.88080795468E+02  0.88080795468E+02  0.00000000000E+00 0. -1.
         -3   -1    0    0    0  501 -0.00000000000E+00 -0.00000000000E+00 -0.21735957056E+03  0.21735957056E+03  0.00000000000E+00 0.  1.
         23    2    1    2    0    0 -0.50295948041E+01  0.77856032494E+02 -0.14024086096E+03  0.18447583913E+03  0.90977895770E+02 0.  0.
         23    2    1    2    0    0  0.50295948041E+01 -0.77856032494E+02  0.10962085874E+02  0.12096452690E+03  0.91789927666E+02 0.  0.
          5    1    3    3  502    0 -0.41588833709E+02  0.12557593462E+02 -0.39589693825E+02  0.58964040737E+02  0.47000000000E+01 0. -1.
         -5    1    4    4    0  503 -0.27495868107E+02 -0.33758250407E+02 -0.29400776651E+02  0.52745975213E+02  0.47000000000E+01 0.  1.
          5    1    4    4  503    0  0.32525462911E+02 -0.44097782087E+02  0.40362862525E+02  0.68218551683E+02  0.47000000000E+01 0. -1.
         -5    1    3    3    0  502  0.36559238905E+02  0.65298439032E+02 -0.10065116714E+03  0.12551179839E+03  0.47000000000E+01 0.  1.
<mgrwt>
<rscale>  0 0.12031211E+03</rscale>
<asrwt>0</asrwt>
<pdfrwt beam="1">  1        3 0.13550892E-01 0.12046680E+03</pdfrwt>
<pdfrwt beam="2">  1       -3 0.33439934E-01 0.12046680E+03</pdfrwt>
<totfact> 0.87618335E+02</totfact>
</mgrwt>
</event>
<event>
 7    1  0.7366917E-004  0.1783454E+03  0.7546771E-02  0.1196503E+00
         -2   -1    0    0    0  501 -0.00000000000E+00  0.00000000000E+00  0.65916804562E+02  0.65916804562E+02  0.00000000000E+00 0.  1.
          2   -1    0    0  501    0  0.00000000000E+00 -0.00000000000E+00 -0.42496825517E+03  0.42496825517E+03  0.00000000000E+00 0. -1.
         23    2    1    2    0    0 -0.29429745931E+02 -0.14720540718E+02 -0.27884454527E+03  0.29533397597E+03  0.91570042418E+02 0.  0.
          5    1    3    3  502    0 -0.40320138972E+02  0.20555970670E+02 -0.22699248848E+03  0.23150797257E+03  0.47000000000E+01 0. -1.
         -5    1    3    3    0  502  0.10890393041E+02 -0.35276511388E+02 -0.51852056794E+02  0.63826003400E+02  0.47000000000E+01 0.  1.
          5    1    1    2  503    0  0.22457357556E+02 -0.29923188654E+02 -0.12571552123E+03  0.13124866630E+03  0.47000000000E+01 0. -1.
         -5    1    1    2    0  503  0.69723883746E+01  0.44643729372E+02  0.45508615890E+02  0.64302417467E+02  0.47000000000E+01 0.  1.
<mgrwt>
<rscale>  0 0.15327735E+03</rscale>
<asrwt>0</asrwt>
<pdfrwt beam="1">  1        2 0.65379732E-01 0.17834539E+03</pdfrwt>
<pdfrwt beam="2">  1       -2 0.10141047E-01 0.17834539E+03</pdfrwt>
<totfact> 0.47316607E+03</totfact>
</mgrwt>
</event>
<event>
 8    1  0.7366917E-004  0.9355905E+02  0.7546771E-02  0.1294602E+00
          2   -1    0    0  501    0  0.00000000000E+00  0.00000000000E+00  0.17038737657E+02  0.17038737657E+02  0.00000000000E+00 0. -1.
         -2   -1    0    0    0  501 -0.00000000000E+00 -0.00000000000E+00 -0.51918937798E+03  0.51918937798E+03  0.00000000000E+00 0.  1.
         23    2    1    2    0    0 -0.20395990144E+02 -0.11526473599E+02 -0.21990526366E+03  0.23888025686E+03  0.90313875581E+02 0.  0.
         23    2    1    2    0    0  0.20395990144E+02  0.11526473599E+02 -0.28224537667E+03  0.29734785879E+03  0.90578366441E+02 0.  0.
          5    1    4    4  502    0 -0.30322587147E+02 -0.15907752189E+02 -0.83991716077E+02  0.90825185056E+02  0.47000000000E+01 0. -1.
         -5    1    3    3    0  503 -0.30293856338E+02  0.32986579794E+02 -0.81949911789E+02  0.93507808340E+02  0.47000000000E+01 0.  1.
          5    1    3    3  503    0  0.98978661936E+01 -0.44513053393E+02 -0.13795535187E+03  0.14537244852E+03  0.47000000000E+01 0. -1.
         -5    1    4    4    0  502  0.50718577291E+02  0.27434225788E+02 -0.19825366059E+03  0.20652267373E+03  0.47000000000E+01 0.  1.
<mgrwt>
<rscale>  0 0.93494977E+02</rscale>
<asrwt>0</asrwt>
<pdfrwt beam="1">  1        2 0.26213438E-02 0.93559053E+02</pdfrwt>
<pdfrwt beam="2">  1       -2 0.79875303E-01 0.93559053E+02</pdfrwt>
<totfact> 0.49204230E+03</totfact>
</mgrwt>
</event>
<event>
 8    1  0.7366917E-004  0.1131317E+03  0.7546771E-02  0.1256549E+00
          1   -1    0    0  501    0  0.00000000000E+00  0.00000000000E+00  0.55983259912E+02  0.55983259912E+02  0.00000000000E+00 0. -1.
         -1   -1    0    0    0  501 -0.00000000000E+00 -0.00000000000E+00 -0.29754847555E+03  0.29754847555E+03  0.00000000000E+00 0.  1.
         23    2    1    2    0    0  0.33934889804E+02 -0.53078170948E+02 -0.21177540974E+03  0.24009916691E+03  0.93967637013E+02 0.  0.
         23    2    1    2    0    0 -0.33934889804E+02  0.53078170948E+02 -0.29789805905E+02  0.11343256855E+03  0.89502212797E+02 0.  0.
          5    1    3    3  502    0 -0.76552425067E+01  0.22559052661E+02 -0.28371484949E+02  0.37343603910E+02  0.47000000000E+01 0. -1.
         -5    1    3    3    0  502  0.41590132310E+02 -0.75637223609E+02 -0.18340392479E+03  0.20275556300E+03  0.47000000000E+01 0.  1.
          5    1    4    4  503    0 -0.60911120682E+01  0.71264892940E+02 -0.53189992740E+01  0.71876062533E+02  0.47000000000E+01 0. -1.
         -5    1    4    4    0  503 -0.27843777736E+02 -0.18186721992E+02 -0.24470806631E+02  0.41556506020E+02  0.47000000000E+01 0.  1.
<mgrwt>
<rscale>  0 0.11220009E+03</rscale>
<asrwt>0</asrwt>
<pdfrwt beam="1">  1        1 0.86128092E-02 0.11313172E+03</pdfrwt>
<pdfrwt beam="2">  1       -1 0.45776689E-01 0.11313172E+03</pdfrwt>
<totfact> 0.36098193E+03</totfact>
</mgrwt>
</event>
<event>
 8    1  0.7366917E-004  0.1099650E+03  0.7546771E-02  0.1262579E+00
         -2   -1    0    0    0  501 -0.00000000000E+00  0.00000000000E+00  0.14610961935E+02  0.14610961935E+02  0.00000000000E+00 0.  1.
          2   -1    0    0  501    0  0.00000000000E+00 -0.00000000000E+00 -0.98654115056E+03  0.98654115056E+03  0.00000000000E+00 0. -1.
         23    2    1    2    0    0  0.25160971351E+02  0.55176437638E+02 -0.69789207983E+03  0.70587395329E+03  0.86759259361E+02 0.  0.
         23    2    1    2    0    0 -0.25160971351E+02 -0.55176437638E+02 -0.27403810879E+03  0.29527815920E+03  0.91732178023E+02 0.  0.
          5    1    3    3  502    0  0.36986748435E+02  0.74117114936E+02 -0.55743107493E+03  0.56357152127E+03  0.47000000000E+01 0. -1.
         -5    1    3    3    0  502 -0.11825777084E+02 -0.18940677298E+02 -0.14046100490E+03  0.14230243202E+03  0.47000000000E+01 0.  1.
          5    1    4    4  503    0 -0.44999062683E+02  0.58287127453E+01 -0.11057575700E+03  0.11961595868E+03  0.47000000000E+01 0. -1.
         -5    1    4    4    0  503  0.19838091333E+02 -0.61005150384E+02 -0.16346235178E+03  0.17566220052E+03  0.47000000000E+01 0.  1.
<mgrwt>
<rscale>  0 0.10892207E+03</rscale>
<asrwt>0</asrwt>
<pdfrwt beam="1">  1        2 0.15177557E+00 0.10996502E+03</pdfrwt>
<pdfrwt beam="2">  1       -2 0.22478402E-02 0.10996502E+03</pdfrwt>
<totfact> 0.16399973E+04</totfact>
</mgrwt>
</event>
<event>
 8    1  0.7366917E-004  0.1266505E+03  0.7546771E-02  0.1232858E+00
         -1   -1    0    0    0  501 -0.00000000000E+00  0.00000000000E+00  0.15676691635E+03  0.15676691635E+03  0.00000000000E+00 0.  1.
          1   -1    0    0  501    0  0.00000000000E+00 -0.00000000000E+00 -0.11289272961E+03  0.11289272961E+03  0.00000000000E+00 0. -1.
         23    2    1    2    0    0  0.81235962897E+02  0.28177135575E+02 -0.20784125092E+02  0.12745887561E+03  0.91763568364E+02 0.  0.
         23    2    1    2    0    0 -0.81235962897E+02 -0.28177135575E+02  0.64658311826E+02  0.14220077035E+03  0.92989941195E+02 0.  0.
          5    1    4    4  502    0  0.19373414080E+02 -0.15077325670E+02  0.10683116252E+02  0.27182234922E+02  0.47000000000E+01 0. -1.
         -5    1    3    3    0  503  0.20049428703E+02  0.44887047783E+02  0.18462171941E+02  0.52723509394E+02  0.47000000000E+01 0.  1.
          5    1    3    3  503    0  0.61186534194E+02 -0.16709912208E+02 -0.39246297033E+02  0.74735366216E+02  0.47000000000E+01 0. -1.
         -5    1    4    4    0  502 -0.10060937698E+03 -0.13099809905E+02  0.53975195574E+02  0.11501853543E+03  0.47000000000E+01 0.  1.
<mgrwt>
<rscale>  0 0.12642553E+03</rscale>
<asrwt>0</asrwt>
<pdfrwt beam="1">  1        1 0.17368112E-01 0.12665055E+03</pdfrwt>
<pdfrwt beam="2">  1       -1 0.24117987E-01 0.12665055E+03</pdfrwt>
<totfact> 0.43302997E+03</totfact>
</mgrwt>
</event>
<event>
 8    1  0.7366917E-004  0.1081527E+03  0.7546771E-02  0.1264421E+00
         -2   -1    0    0    0  501 -0.00000000000E+00  0.00000000000E+00  0.26539958661E+02  0.26539958661E+02  0.00000000000E+00 0.  1.
          2   -1    0    0  501    0  0.00000000000E+00 -0.00000000000E+00 -0.50026625035E+03  0.50026625035E+03  0.00000000000E+00 0. -1.
         23    2    1    2    0    0 -0.49229516367E+02  0.24951682129E+02 -0.14268830184E+03  0.17854890583E+03  0.92052314298E+02 0.  0.
         23    2    1    2    0    0  0.49229516367E+02 -0.24951682129E+02 -0.33103798985E+03  0.34825730319E+03  0.93010035878E+02 0.  0.
          5    1    4    4  502    0  0.28809561986E+02 -0.34895746327E+02 -0.31880587066E+03  0.32203567681E+03  0.47000000000E+01 0. -1.
         -5    1    4    4    0  502  0.20419954381E+02  0.99440641979E+01 -0.12232119194E+02  0.26221626374E+02  0.47000000000E+01 0.  1.
          5    1    3    3  503    0  0.59660084298E+01 -0.28702845848E+02 -0.47842113869E+02  0.56306344898E+02  0.47000000000E+01 0. -1.
         -5    1    3    3    0  503 -0.55195524797E+02  0.53654527977E+02 -0.94846187969E+02  0.12224256093E+03  0.47000000000E+01 0.  1.
<mgrwt>
<rscale>  0 0.10794644E+03</rscale>
<asrwt>0</asrwt>
<pdfrwt beam="1">  1        2 0.76964037E-01 0.10815266E+03</pdfrwt>
<pdfrwt beam="2">  1       -2 0.40830706E-02 0.10815266E+03</pdfrwt>
<totfact> 0.15367797E+04</totfact>
</mgrwt>
</event>
<event>
 8    1  0.7366917E-004  0.1012081E+03  0.7546771E-02  0.1282459E+00
          1   -1    0    0  501    0  0.00000000000E+00  0.00000000000E+00  0.98994717482E+02  0.98994717482E+02  0.00000000000E+00 0. -1.
         -1   -1    0    0    0  501 -0.00000000000E+00 -0.00000000000E+00 -0.95127194344E+02  0.95127194344E+02  0.00000000000E+00 0.  1.
         23    2    1    2    0    0 -0.14709801311E+02  0.44645217645E+02  0.73671713818E+01  0.10147583477E+03  0.89629772481E+02 0.  0.
         23    2    1    2    0    0  0.14709801311E+02 -0.44645217645E+02 -0.34996482437E+01  0.92646077056E+02  0.79758851188E+02 0.  0.
          5    1    3    3  502    0 -0.24629952051E+02 -0.10308152795E+02 -0.24900648743E+02  0.36810662313E+02  0.47000000000E+01 0. -1.
         -5    1    3    3    0  502  0.99201507402E+01  0.54953370440E+02  0.32267820125E+02  0.64665172458E+02  0.47000000000E+01 0.  1.
          5    1    4    4  503    0  0.46760779640E+02 -0.19497363486E+02 -0.75488447522E+01  0.51437270073E+02  0.47000000000E+01 0. -1.
         -5    1    4    4    0  503 -0.32050978329E+02 -0.25147854159E+02  0.40491965085E+01  0.41208806984E+02  0.47000000000E+01 0.  1.
<mgrwt>
<rscale>  0 0.98978426E+02</rscale>
<asrwt>0</asrwt>
<pdfrwt beam="1">  1        1 0.15229956E-01 0.10120805E+03</pdfrwt>
<pdfrwt beam="2">  1       -1 0.14634953E-01 0.10120805E+03</pdfrwt>
<totfact> 0.11143870E+04</totfact>
</mgrwt>
</event>
<event>
 8    1  0.7366917E-004  0.2958157E+03  0.7546771E-02  0.1087398E+00
         -1   -1    0    0    0  501 -0.00000000000E+00  0.00000000000E+00  0.63673637384E+02  0.63673637384E+02  0.00000000000E+00 0.  1.
          1   -1    0    0  501    0  0.00000000000E+00 -0.00000000000E+00 -0.13741727903E+04  0.13741727903E+04  0.00000000000E+00 0. -1.
         23    2    1    2    0    0 -0.27429996642E+03 -0.63077100760E+02 -0.67919904154E+03  0.74067590628E+03  0.89834669833E+02 0.  0.
         23    2    1    2    0    0  0.27429996642E+03  0.63077100760E+02 -0.63130011142E+03  0.69717052144E+03  0.91036877536E+02 0.  0.
          5    1    4    4  502    0  0.22571194705E+03  0.25980739713E+02 -0.55188818712E+03  0.59684465563E+03  0.47000000000E+01 0. -1.
         -5    1    4    4    0  502  0.48588019366E+02  0.37096361047E+02 -0.79411924300E+02  0.10032586581E+03  0.47000000000E+01 0.  1.
          5    1    3    3  503    0 -0.14595734590E+03  0.11136023151E+02 -0.36222710555E+03  0.39071488816E+03  0.47000000000E+01 0. -1.
         -5    1    3    3    0  503 -0.12834262052E+03 -0.74213123911E+02 -0.31697193598E+03  0.34996101812E+03  0.47000000000E+01 0.  1.
<mgrwt>
<rscale>  0 0.29572368E+03</rscale>
<asrwt>0</asrwt>
<pdfrwt beam="1">  1        1 0.21141120E+00 0.29581566E+03</pdfrwt>
<pdfrwt beam="2">  1       -1 0.97959442E-02 0.29581566E+03</pdfrwt>
<totfact> 0.54679409E+02</totfact>
</mgrwt>
</event>
<event>
 8    1  0.7366917E-004  0.1237215E+03  0.7546771E-02  0.1240107E+00
         -1   -1    0    0    0  501 -0.00000000000E+00  0.00000000000E+00  0.23009778750E+03  0.23009778750E+03  0.00000000000E+00 0.  1.
          1   -1    0    0  501    0  0.00000000000E+00 -0.00000000000E+00 -0.96002669890E+02  0.96002669890E+02  0.00000000000E+00 0. -1.
         23    2    1    2    0    0  0.28124100318E+02 -0.77781574423E+02  0.16183472225E+03  0.19930733341E+03  0.81804629986E+02 0.  0.
         23    2    1    2    0    0 -0.28124100318E+02  0.77781574423E+02 -0.27739604630E+02  0.12679312399E+03  0.92011261740E+02 0.  0.
          5    1    3    3  502    0  0.22098601913E+02  0.41384715270E+01  0.70703020171E+01  0.24032359928E+02  0.47000000000E+01 0. -1.
         -5    1    4    4    0  503  0.27286409409E+01  0.32571282834E+02  0.31756159389E+02  0.45813508990E+02  0.47000000000E+01 0.  1.
          5    1    4    4  503    0 -0.30852741259E+02  0.45210291589E+02 -0.59495764020E+02  0.80979614997E+02  0.47000000000E+01 0. -1.
         -5    1    3    3    0  502  0.60254984053E+01 -0.81920045950E+02  0.15476442023E+03  0.17527497348E+03  0.47000000000E+01 0.  1.
<mgrwt>
<rscale>  0 0.12183102E+03</rscale>
<asrwt>0</asrwt>
<pdfrwt beam="1">  1        1 0.14769642E-01 0.12372150E+03</pdfrwt>
<pdfrwt beam="2">  1       -1 0.35399659E-01 0.12372150E+03</pdfrwt>
<totfact> 0.28045000E+03</totfact>
</mgrwt>
</event>
<event>
 7    1  0.7366917E-004  0.1831746E+03  0.7546771E-02  0.1181905E+00
         -1   -1    0    0    0  501 -0.00000000000E+00  0.00000000000E+00  0.37890678595E+02  0.37890678595E+02  0.00000000000E+00 0.  1.
          1   -1    0    0  501    0  0.00000000000E+00 -0.00000000000E+00 -0.68464866693E+03  0.68464866693E+03  0.00000000000E+00 0. -1.
         23    2    1    2    0    0 -0.11026772275E+02 -0.81208528491E+02 -0.37355380024E+03  0.39361158688E+03  0.93119411779E+02 0.  0.
          5    1    3    3  502    0  0.19998233991E+02 -0.76495041531E+02 -0.33205981868E+03  0.34137550281E+03  0.47000000000E+01 0. -1.
         -5    1    1    2    0  503 -0.49846940428E+02  0.10568809283E+03 -0.18569689686E+03  0.21945413630E+03  0.47000000000E+01 0.  1.
          5    1    1    2  503    0  0.60873712703E+02 -0.24479564340E+02 -0.87507291237E+02  0.10947362234E+03  0.47000000000E+01 0. -1.
         -5    1    3    3    0  502 -0.31025006266E+02 -0.47134869605E+01 -0.41493981561E+02  0.52236084070E+02  0.47000000000E+01 0.  1.
<mgrwt>
<rscale>  0 0.16616727E+03</rscale>
<asrwt>0</asrwt>
<pdfrwt beam="1">  1        1 0.10533056E+00 0.18317462E+03</pdfrwt>
<pdfrwt beam="2">  1       -1 0.58293352E-02 0.18317462E+03</pdfrwt>
<totfact> 0.40015966E+03</totfact>
</mgrwt>
</event>
<event>
 8    1  0.7366917E-004  0.1578314E+03  0.7546771E-02  0.1191342E+00
         -2   -1    0    0    0  501 -0.00000000000E+00  0.00000000000E+00  0.72981581731E+02  0.72981581731E+02  0.00000000000E+00 0.  1.
          2   -1    0    0  501    0  0.00000000000E+00 -0.00000000000E+00 -0.40542679056E+03  0.40542679056E+03  0.00000000000E+00 0. -1.
         23    2    1    2    0    0 -0.29657228039E+01  0.13094021109E+03 -0.69870715931E+02  0.17204891531E+03  0.86975731804E+02 0.  0.
         23    2    1    2    0    0  0.29657228039E+01 -0.13094021109E+03 -0.26257449290E+03  0.30635945698E+03  0.88071664939E+02 0.  0.
          5    1    4    4  502    0 -0.26145038534E+02 -0.33988464014E+02 -0.14429812309E+03  0.15060815733E+03  0.47000000000E+01 0. -1.
         -5    1    3    3    0  503  0.32136510155E+02  0.66428681509E+02 -0.52813296954E+01  0.74131689953E+02  0.47000000000E+01 0.  1.
          5    1    3    3  503    0 -0.35102232959E+02  0.64511529586E+02 -0.64589386235E+02  0.97917225361E+02  0.47000000000E+01 0. -1.
         -5    1    4    4    0  502  0.29110761338E+02 -0.96951747080E+02 -0.11827636981E+03  0.15575129965E+03  0.47000000000E+01 0.  1.
<mgrwt>
<rscale>  0 0.15767896E+03</rscale>
<asrwt>0</asrwt>
<pdfrwt beam="1">  1        2 0.62373354E-01 0.15783141E+03</pdfrwt>
<pdfrwt beam="2">  1       -2 0.11227935E-01 0.15783141E+03</pdfrwt>
<totfact> 0.42113637E+03</totfact>
</mgrwt>
</event>
<event>
 8    1  0.7366917E-004  0.1079977E+03  0.7546771E-02  0.1264729E+00
         -2   -1    0    0    0  501 -0.00000000000E+00  0.00000000000E+00  0.21615849454E+03  0.21615849454E+03  0.00000000000E+00 0.  1.
          2   -1    0    0  501    0  0.00000000000E+00 -0.00000000000E+00 -0.61529159714E+02  0.61529159714E+02  0.00000000000E+00 0. -1.
         23    2    1    2    0    0 -0.51998281503E+02  0.22535078189E+02  0.12763223616E+03  0.16719296414E+03  0.91933935645E+02 0.  0.
         23    2    1    2    0    0  0.51998281503E+02 -0.22535078189E+02  0.26997098667E+02  0.11049469011E+03  0.90931744612E+02 0.  0.
          5    1    3    3  502    0 -0.21200358366E+01  0.46359799066E+02  0.31773847171E+02  0.56439284948E+02  0.47000000000E+01 0. -1.
         -5    1    4    4    0  503 -0.38029731905E+01 -0.35443087223E+02  0.37636699570E+02  0.52050803947E+02  0.47000000000E+01 0.  1.
          5    1    4    4  503    0  0.55801254694E+02  0.12908009035E+02 -0.10639600903E+02  0.58443886164E+02  0.47000000000E+01 0. -1.
         -5    1    3    3    0  502 -0.49878245666E+02 -0.23824720877E+02  0.95858388984E+02  0.11075367919E+03  0.47000000000E+01 0.  1.
<mgrwt>
<rscale>  0 0.10778409E+03</rscale>
<asrwt>0</asrwt>
<pdfrwt beam="1">  1        2 0.94660246E-02 0.10799768E+03</pdfrwt>
<pdfrwt beam="2">  1       -2 0.33255153E-01 0.10799768E+03</pdfrwt>
<totfact> 0.54135748E+03</totfact>
</mgrwt>
</event>
<event>
 8    1  0.7366917E-004  0.1094869E+03  0.7546771E-02  0.1270290E+00
         -2   -1    0    0    0  501 -0.00000000000E+00  0.00000000000E+00  0.39856319622E+02  0.39856319622E+02  0.00000000000E+00 0.  1.
          2   -1    0    0  501    0  0.00000000000E+00 -0.00000000000E+00 -0.26471282865E+03  0.26471282865E+03  0.00000000000E+00 0. -1.
         23    2    1    2    0    0  0.59776321708E+01  0.26806853376E+01 -0.15009142913E+03  0.18578161868E+03  0.10929068844E+03 0.  0.
         23    2    1    2    0    0 -0.59776321708E+01 -0.26806853376E+01 -0.74765079900E+02  0.11878752960E+03  0.92074653705E+02 0.  0.
          5    1    4    4  502    0  0.42057049101E+02 -0.99937805695E+01 -0.34369919802E+02  0.55426098693E+02  0.47000000000E+01 0. -1.
         -5    1    4    4    0  502 -0.48034681272E+02  0.73130952319E+01 -0.40395160097E+02  0.63361430903E+02  0.47000000000E+01 0.  1.
          5    1    3    3  503    0  0.29019138812E+02  0.20851951909E+02 -0.15179409796E+03  0.15601427015E+03  0.47000000000E+01 0. -1.
         -5    1    3    3    0  503 -0.23041506641E+02 -0.18171266572E+02  0.17026688295E+01  0.29767348525E+02  0.47000000000E+01 0.  1.
<mgrwt>
<rscale>  0 0.10491333E+03</rscale>
<asrwt>0</asrwt>
<pdfrwt beam="1">  1        2 0.40725050E-01 0.10948686E+03</pdfrwt>
<pdfrwt beam="2">  1       -2 0.61317416E-02 0.10948686E+03</pdfrwt>
<totfact> 0.16462914E+04</totfact>
</mgrwt>
</event>
<event>
 8    1  0.7366917E-004  0.1661793E+03  0.7546771E-02  0.1183179E+00
          3   -1    0    0  501    0  0.00000000000E+00  0.00000000000E+00  0.35452892110E+03  0.35452892110E+03  0.00000000000E+00 0. -1.
         -3   -1    0    0    0  501 -0.00000000000E+00 -0.00000000000E+00 -0.78168400713E+02  0.78168400713E+02  0.00000000000E+00 0.  1.
         23    2    1    2    0    0  0.81023005291E+02  0.94817877145E+02  0.17857283800E+03  0.24393402315E+03  0.10981981590E+03 0.  0.
         23    2    1    2    0    0 -0.81023005291E+02 -0.94817877145E+02  0.97787682385E+02  0.18876329867E+03  0.10253777296E+03 0.  0.
          5    1    4    4  502    0 -0.12162030789E+02 -0.32634184336E+02  0.88712172927E+02  0.95419309396E+02  0.47000000000E+01 0. -1.
         -5    1    4    4    0  502 -0.68860974502E+02 -0.62183692808E+02  0.90755094580E+01  0.93343989269E+02  0.47000000000E+01 0.  1.
          5    1    3    3  503    0  0.57559418797E+02  0.10774083663E+03  0.91447634942E+02  0.15266281311E+03  0.47000000000E+01 0. -1.
         -5    1    3    3    0  503  0.23463586494E+02 -0.12922959489E+02  0.87125203059E+02  0.91271210035E+02  0.47000000000E+01 0.  1.
<mgrwt>
<rscale>  0 0.16498653E+03</rscale>
<asrwt>0</asrwt>
<pdfrwt beam="1">  1        3 0.54542910E-01 0.16617927E+03</pdfrwt>
<pdfrwt beam="2">  1       -3 0.12025908E-01 0.16617927E+03</pdfrwt>
<totfact> 0.43299587E+02</totfact>
</mgrwt>
</event>
<event>
 8    1  0.7366917E-004  0.1121511E+03  0.7546771E-02  0.1256820E+00
         -1   -1    0    0    0  501 -0.00000000000E+00  0.00000000000E+00  0.69181679231E+03  0.69181679231E+03  0.00000000000E+00 0.  1.
          1   -1    0    0  501    0  0.00000000000E+00 -0.00000000000E+00 -0.39002140294E+02  0.39002140294E+02  0.00000000000E+00 0. -1.
         23    2    1    2    0    0 -0.27707118280E+02 -0.56003338101E+02  0.59353904654E+03  0.60396681905E+03  0.92645887481E+02 0.  0.
         23    2    1    2    0    0  0.27707118280E+02  0.56003338101E+02  0.59275605481E+02  0.12685211356E+03  0.93133254140E+02 0.  0.
          5    1    4    4  502    0  0.55177539447E+02  0.84737334583E+01  0.21298512777E+02  0.59933977548E+02  0.47000000000E+01 0. -1.
         -5    1    3    3    0  503 -0.33380402326E+02  0.97205310254E+01  0.99151484421E+02  0.10517531481E+03  0.47000000000E+01 0.  1.
          5    1    3    3  503    0  0.56732840466E+01 -0.65723869127E+02  0.49438756212E+03  0.49879150424E+03  0.47000000000E+01 0. -1.
         -5    1    4    4    0  502 -0.27470421167E+02  0.47529604643E+02  0.37977092704E+02  0.66918136009E+02  0.47000000000E+01 0.  1.
<mgrwt>
<rscale>  0 0.11204983E+03</rscale>
<asrwt>0</asrwt>
<pdfrwt beam="1">  1        1 0.60003298E-02 0.11215106E+03</pdfrwt>
<pdfrwt beam="2">  1       -1 0.10643334E+00 0.11215106E+03</pdfrwt>
<totfact> 0.11032638E+03</totfact>
</mgrwt>
</event>
<event>
 8    1  0.7366917E-004  0.1432662E+03  0.7546771E-02  0.1209339E+00
          1   -1    0    0  501    0  0.00000000000E+00  0.00000000000E+00  0.76964543462E+02  0.76964543462E+02  0.00000000000E+00 0. -1.
         -1   -1    0    0    0  501 -0.00000000000E+00 -0.00000000000E+00 -0.26792422303E+03  0.26792422303E+03  0.00000000000E+00 0.  1.
         23    2    1    2    0    0  0.10040085968E+03 -0.42816771707E+02 -0.77098693894E+02  0.16269420081E+03  0.92798630448E+02 0.  0.
         23    2    1    2    0    0 -0.10040085968E+03  0.42816771707E+02 -0.11386098568E+03  0.18219456568E+03  0.91197188235E+02 0.  0.
          5    1    4    4  502    0 -0.43776472890E+02  0.39676666784E+02 -0.51514770881E+01  0.59491555552E+02  0.47000000000E+01 0. -1.
         -5    1    4    4    0  502 -0.56624386789E+02  0.31401049234E+01 -0.10870950859E+03  0.12270301013E+03  0.47000000000E+01 0.  1.
          5    1    3    3  503    0  0.10214302840E+03 -0.84207565320E+01 -0.35683711885E+02  0.10862561708E+03  0.47000000000E+01 0. -1.
         -5    1    3    3    0  503 -0.17421687237E+01 -0.34396015175E+02 -0.41414982009E+02  0.54068583730E+02  0.47000000000E+01 0.  1.
<mgrwt>
<rscale>  0 0.14300745E+03</rscale>
<asrwt>0</asrwt>
<pdfrwt beam="1">  1        1 0.11840699E-01 0.14326617E+03</pdfrwt>
<pdfrwt beam="2">  1       -1 0.41219112E-01 0.14326617E+03</pdfrwt>
<totfact> 0.28926107E+03</totfact>
</mgrwt>
</event>
<event>
 8    1  0.7366917E-004  0.9773135E+02  0.7546771E-02  0.1287457E+00
          1   -1    0    0  501    0  0.00000000000E+00  0.00000000000E+00  0.23851588731E+02  0.23851588731E+02  0.00000000000E+00 0. -1.
         -1   -1    0    0    0  501 -0.00000000000E+00 -0.00000000000E+00 -0.39729283988E+03  0.39729283988E+03  0.00000000000E+00 0.  1.
         23    2    1    2    0    0 -0.17840318046E+02 -0.11397382937E+02 -0.14360581410E+03  0.17139306367E+03  0.91130539025E+02 0.  0.
         23    2    1    2    0    0  0.17840318046E+02  0.11397382937E+02 -0.22983543705E+03  0.24975136494E+03  0.95410894993E+02 0.  0.
          5    1    4    4  502    0  0.50050366601E+02 -0.50925899763E+01 -0.73357554126E+02  0.89075217748E+02  0.47000000000E+01 0. -1.
         -5    1    3    3    0  503 -0.38677844490E+02 -0.23902345164E+02 -0.13886026136E+03  0.14619014996E+03  0.47000000000E+01 0.  1.
          5    1    3    3  503    0  0.20837526444E+02  0.12504962227E+02 -0.47455527386E+01  0.25202913708E+02  0.47000000000E+01 0. -1.
         -5    1    4    4    0  502 -0.32210048554E+02  0.16489972913E+02 -0.15647788292E+03  0.16067614720E+03  0.47000000000E+01 0.  1.
<mgrwt>
<rscale>  0 0.96670671E+02</rscale>
<asrwt>0</asrwt>
<pdfrwt beam="1">  1        1 0.36694751E-02 0.97731347E+02</pdfrwt>
<pdfrwt beam="2">  1       -1 0.61121977E-01 0.97731347E+02</pdfrwt>
<totfact> 0.66425843E+03</totfact>
</mgrwt>
</event>
<event>
 8    1  0.7366917E-004  0.1537305E+03  0.7546771E-02  0.1196257E+00
          2   -1    0    0  501    0  0.00000000000E+00  0.00000000000E+00  0.24623048094E+04  0.24623048094E+04  0.00000000000E+00 0. -1.
         -2   -1    0    0    0  501 -0.00000000000E+00 -0.00000000000E+00 -0.95671883982E+01  0.95671883982E+01  0.00000000000E+00 0.  1.
         23    2    1    2    0    0 -0.11538456456E+03 -0.44114671545E+02  0.13003823737E+04  0.13094378074E+04  0.91506018701E+02 0.  0.
         23    2    1    2    0    0  0.11538456456E+03  0.44114671545E+02  0.11523552473E+04  0.11624341904E+04  0.89838350344E+02 0.  0.
          5    1    4    4  502    0  0.93703769494E+02  0.70307601370E+02  0.94701766268E+03  0.95424739909E+03  0.47000000000E+01 0. -1.
         -5    1    3    3    0  503 -0.10597814743E+03  0.22528412197E+01  0.91718889599E+03  0.92330601858E+03  0.47000000000E+01 0.  1.
          5    1    3    3  503    0 -0.94064171378E+01 -0.46367512765E+02  0.38319347773E+03  0.38613178877E+03  0.47000000000E+01 0. -1.
         -5    1    4    4    0  502  0.21680795071E+02 -0.26192929825E+02  0.20533758459E+03  0.20818679135E+03  0.47000000000E+01 0.  1.
<mgrwt>
<rscale>  0 0.15348317E+03</rscale>
<asrwt>0</asrwt>
<pdfrwt beam="1">  1        2 0.37881562E+00 0.15373046E+03</pdfrwt>
<pdfrwt beam="2">  1       -2 0.14718771E-02 0.15373046E+03</pdfrwt>
<totfact> 0.51045261E+03</totfact>
</mgrwt>
</event>
<event>
 8    1  0.7366917E-004  0.9278353E+02  0.7546771E-02  0.1297834E+00
         -2   -1    0    0    0  501 -0.00000000000E+00  0.00000000000E+00  0.20124886936E+03  0.20124886936E+03  0.00000000000E+00 0.  1.
          2   -1    0    0  501    0  0.00000000000E+00 -0.00000000000E+00 -0.72278049699E+02  0.72278049699E+02  0.00000000000E+00 0. -1.
         23    2    1    2    0    0 -0.11676083403E+01 -0.31487525817E+00  0.15420216276E+03  0.17996413808E+03  0.92775651654E+02 0.  0.
         23    2    1    2    0    0  0.11676083403E+01  0.31487525817E+00 -0.25231343093E+02  0.93562780982E+02  0.90088350274E+02 0.  0.
          5    1    3    3  502    0  0.32926622073E+02  0.30861046511E+02  0.63225092439E+02  0.77820748820E+02  0.47000000000E+01 0. -1.
         -5    1    4    4    0  503 -0.29031675887E+02 -0.33436982065E+02 -0.13737484044E+02  0.46601270823E+02  0.47000000000E+01 0.  1.
          5    1    4    4  503    0  0.30199284227E+02  0.33751857323E+02 -0.11493859049E+02  0.46961510159E+02  0.47000000000E+01 0. -1.
         -5    1    3    3    0  502 -0.34094230414E+02 -0.31175921770E+02  0.90977070317E+02  0.10214338926E+03  0.47000000000E+01 0.  1.
<mgrwt>
<rscale>  0 0.92104345E+02</rscale>
<asrwt>0</asrwt>
<pdfrwt beam="1">  1        2 0.11119700E-01 0.92783533E+02</pdfrwt>
<pdfrwt beam="2">  1       -2 0.30961364E-01 0.92783533E+02</pdfrwt>
<totfact> 0.50068557E+03</totfact>
</mgrwt>
</event>
<event>
 8    1  0.7366917E-004  0.9521589E+02  0.7546771E-02  0.1290753E+00
          1   -1    0    0  501    0  0.00000000000E+00  0.00000000000E+00  0.38622976595E+02  0.38622976595E+02  0.00000000000E+00 0. -1.
         -1   -1    0    0    0  501 -0.00000000000E+00 -0.00000000000E+00 -0.71017041376E+03  0.71017041376E+03  0.00000000000E+00 0.  1.
         23    2    1    2    0    0  0.19653514303E+01  0.27912953094E+02 -0.64226251193E+03  0.64928206494E+03  0.91011373270E+02 0.  0.
         23    2    1    2    0    0 -0.19653514303E+01 -0.27912953094E+02 -0.29284925228E+02  0.99511325408E+02  0.90895002515E+02 0.  0.
          5    1    4    4  502    0  0.21349114107E+02  0.33817703688E+01  0.24426251121E+02  0.32953797775E+02  0.47000000000E+01 0. -1.
         -5    1    3    3    0  503  0.12678697433E+02  0.57814497115E+02 -0.49572096594E+03  0.49926408996E+03  0.47000000000E+01 0.  1.
          5    1    3    3  503    0 -0.10713346003E+02 -0.29901544022E+02 -0.14654154599E+03  0.15001797498E+03  0.47000000000E+01 0. -1.
         -5    1    4    4    0  502 -0.23314465537E+02 -0.31294723462E+02 -0.53711176349E+02  0.66557527633E+02  0.47000000000E+01 0.  1.
<mgrwt>
<rscale>  0 0.95188071E+02</rscale>
<asrwt>0</asrwt>
<pdfrwt beam="1">  1        1 0.59419968E-02 0.95215890E+02</pdfrwt>
<pdfrwt beam="2">  1       -1 0.10925698E+00 0.95215890E+02</pdfrwt>
<totfact> 0.10478776E+03</totfact>
</mgrwt>
</event>
<event>
 8    1  0.7366917E-004  0.9188290E+02  0.7546771E-02  0.1304640E+00
          1   -1    0    0  501    0  0.00000000000E+00  0.00000000000E+00  0.20980728975E+02  0.20980728975E+02  0.00000000000E+00 0. -1.
         -1   -1    0    0    0  501 -0.00000000000E+00 -0.00000000000E+00 -0.64671343551E+03  0.64671343551E+03  0.00000000000E+00 0.  1.
         23    2    1    2    0    0 -0.34332047012E+01 -0.26442049866E+01 -0.54512255725E+03  0.55281196649E+03  0.91780657877E+02 0.  0.
         23    2    1    2    0    0  0.34332047012E+01  0.26442049866E+01 -0.80610149281E+02  0.11488219799E+03  0.81738268472E+02 0.  0.
          5    1    3    3  502    0 -0.32520949249E+02  0.32322362186E+02 -0.28408028377E+03  0.28779514392E+03  0.47000000000E+01 0. -1.
         -5    1    3    3    0  502  0.29087744548E+02 -0.34966567173E+02 -0.26104227348E+03  0.26501682257E+03  0.47000000000E+01 0.  1.
          5    1    4    4  503    0 -0.14585479394E+02 -0.30178908509E+02 -0.66453857372E+02  0.74576858928E+02  0.47000000000E+01 0. -1.
         -5    1    4    4    0  503  0.18018684095E+02  0.32823113496E+02 -0.14156291909E+02  0.40305339060E+02  0.47000000000E+01 0.  1.
<mgrwt>
<rscale>  0 0.89265730E+02</rscale>
<asrwt>0</asrwt>
<pdfrwt beam="1">  1        1 0.32278042E-02 0.91882903E+02</pdfrwt>
<pdfrwt beam="2">  1       -1 0.99494381E-01 0.91882903E+02</pdfrwt>
<totfact> 0.29446932E+03</totfact>
</mgrwt>
</event>
<event>
 8    1  0.7366917E-004  0.9899229E+02  0.7546771E-02  0.1282645E+00
          3   -1    0    0  501    0  0.00000000000E+00  0.00000000000E+00  0.44024122602E+02  0.44024122602E+02  0.00000000000E+00 0. -1.
         -3   -1    0    0    0  501 -0.00000000000E+00 -0.00000000000E+00 -0.31479591134E+03  0.31479591134E+03  0.00000000000E+00 0.  1.
         23    2    1    2    0    0  0.11647619605E+02  0.37092265859E+02 -0.37617683940E+02  0.10552117780E+03  0.90598706343E+02 0.  0.
         23    2    1    2    0    0 -0.11647619605E+02 -0.37092265859E+02 -0.23315410480E+03  0.25329885614E+03  0.91038292537E+02 0.  0.
          5    1    4    4  502    0  0.29293426956E+02  0.14251548393E+02 -0.69550065576E+02  0.76944870628E+02  0.47000000000E+01 0. -1.
         -5    1    3    3    0  503 -0.19080191223E+02  0.14137194726E+02 -0.57264678632E+02  0.62171113796E+02  0.47000000000E+01 0.  1.
          5    1    3    3  503    0  0.30727810828E+02  0.22955071134E+02  0.19646994691E+02  0.43350064008E+02  0.47000000000E+01 0. -1.
         -5    1    4    4    0  502 -0.40941046562E+02 -0.51343814252E+02 -0.16360403922E+03  0.17635398551E+03  0.47000000000E+01 0.  1.
<mgrwt>
<rscale>  0 0.98891109E+02</rscale>
<asrwt>0</asrwt>
<pdfrwt beam="1">  1        3 0.67729420E-02 0.98992292E+02</pdfrwt>
<pdfrwt beam="2">  1       -3 0.48430140E-01 0.98992292E+02</pdfrwt>
<totfact> 0.12974445E+03</totfact>
</mgrwt>
</event>
<event>
 8    1  0.7366917E-004  0.1405087E+03  0.7546771E-02  0.1213237E+00
         -3   -1    0    0    0  501 -0.00000000000E+00  0.00000000000E+00  0.25253630099E+03  0.25253630099E+03  0.00000000000E+00 0.  1.
          3   -1    0    0  501    0  0.00000000000E+00 -0.00000000000E+00 -0.83853840176E+02  0.83853840176E+02  0.00000000000E+00 0. -1.
         23    2    1    2    0    0  0.45421508156E+02  0.97142129070E+02  0.13121563939E+03  0.19097187990E+03  0.88051168350E+02 0.  0.
         23    2    1    2    0    0 -0.45421508156E+02 -0.97142129070E+02  0.37466821430E+02  0.14541826127E+03  0.90790976205E+02 0.  0.
          5    1    3    3  502    0 -0.25191798630E+02  0.38885186661E+02  0.52180711298E+02  0.69939982066E+02  0.47000000000E+01 0. -1.
         -5    1    4    4    0  503 -0.71964785379E+02 -0.80489364557E+02  0.22559767870E+02  0.11040154559E+03  0.47000000000E+01 0. -1.
          5    1    4    4  503    0  0.26543277223E+02 -0.16652764513E+02  0.14907053560E+02  0.35016715687E+02  0.47000000000E+01 0.  1.
         -5    1    3    3    0  502  0.70613306787E+02  0.58256942409E+02  0.79034928090E+02  0.12103189783E+03  0.47000000000E+01 0.  1.
<mgrwt>
<rscale>  0 0.14006803E+03</rscale>
<asrwt>0</asrwt>
<pdfrwt beam="1">  1        3 0.12900591E-01 0.14050875E+03</pdfrwt>
<pdfrwt beam="2">  1       -3 0.38851738E-01 0.14050875E+03</pdfrwt>
<totfact> 0.73388647E+02</totfact>
</mgrwt>
</event>
<event>
 8    1  0.7366917E-004  0.1315447E+03  0.7546771E-02  0.1225326E+00
         -1   -1    0    0    0  501 -0.00000000000E+00  0.00000000000E+00  0.11714430847E+03  0.11714430847E+03  0.00000000000E+00 0.  1.
          1   -1    0    0  501    0  0.00000000000E+00 -0.00000000000E+00 -0.15806489705E+03  0.15806489705E+03  0.00000000000E+00 0. -1.
         23    2    1    2    0    0  0.95370613652E+02 -0.12279441080E+01 -0.56389653033E+02  0.14275806139E+03  0.90016716934E+02 0.  0.
         23    2    1    2    0    0 -0.95370613652E+02  0.12279441080E+01  0.15469064451E+02  0.13245114413E+03  0.90592228311E+02 0.  0.
          5    1    4    4  502    0 -0.27674399096E+02 -0.23867766307E+02  0.41558106155E+02  0.55540155032E+02  0.47000000000E+01 0. -1.
         -5    1    3    3    0  503  0.13517523549E+02 -0.20108403565E+02  0.17924700932E+02  0.30503380802E+02  0.47000000000E+01 0.  1.
          5    1    3    3  503    0  0.81853090103E+02  0.18880459457E+02 -0.74314353965E+02  0.11225468059E+03  0.47000000000E+01 0. -1.
         -5    1    4    4    0  502 -0.67696214556E+02  0.25095710415E+02 -0.26089041704E+02  0.76910989095E+02  0.47000000000E+01 0.  1.
<mgrwt>
<rscale>  0 0.13144569E+03</rscale>
<asrwt>0</asrwt>
<pdfrwt beam="1">  1        1 0.24317676E-01 0.13154472E+03</pdfrwt>
<pdfrwt beam="2">  1       -1 0.18022201E-01 0.13154472E+03</pdfrwt>
<totfact> 0.45294572E+03</totfact>
</mgrwt>
</event>
<event>
 8    1  0.7366917E-004  0.9964262E+02  0.7546771E-02  0.1283050E+00
          1   -1    0    0  501    0  0.00000000000E+00  0.00000000000E+00  0.46766562066E+03  0.46766562066E+03  0.00000000000E+00 0. -1.
         -1   -1    0    0    0  501 -0.00000000000E+00 -0.00000000000E+00 -0.21277190333E+02  0.21277190333E+02  0.00000000000E+00 0.  1.
         23    2    1    2    0    0 -0.21979049228E+02 -0.32328699625E+02  0.26740909863E+03  0.28409591128E+03  0.87605007564E+02 0.  0.
         23    2    1    2    0    0  0.21979049228E+02  0.32328699625E+02  0.17897933169E+03  0.20484689971E+03  0.91653847293E+02 0.  0.
          5    1    4    4  502    0 -0.32969771670E+01  0.56823574336E+02  0.14438899858E+03  0.15527414971E+03  0.47000000000E+01 0. -1.
         -5    1    4    4    0  502  0.25276026395E+02 -0.24494874711E+02  0.34590333117E+02  0.49572750000E+02  0.47000000000E+01 0.  1.
          5    1    3    3  503    0 -0.44262565236E+01  0.24656807848E+02  0.15185818416E+03  0.15398229774E+03  0.47000000000E+01 0. -1.
         -5    1    3    3    0  503 -0.17552792704E+02 -0.56985507473E+02  0.11555091447E+03  0.13011361354E+03  0.47000000000E+01 0.  1.
<mgrwt>
<rscale>  0 0.98701602E+02</rscale>
<asrwt>0</asrwt>
<pdfrwt beam="1">  1        1 0.71948549E-01 0.99642617E+02</pdfrwt>
<pdfrwt beam="2">  1       -1 0.32734142E-02 0.99642617E+02</pdfrwt>
<totfact> 0.15043298E+04</totfact>
</mgrwt>
</event>
<event>
 8    1  0.7366917E-004  0.1374597E+03  0.7546771E-02  0.1218805E+00
          1   -1    0    0  501    0  0.00000000000E+00  0.00000000000E+00  0.41228596546E+03  0.41228596546E+03  0.00000000000E+00 0. -1.
         -1   -1    0    0    0  501 -0.00000000000E+00 -0.00000000000E+00 -0.44319116842E+02  0.44319116842E+02  0.00000000000E+00 0.  1.
         23    2    1    2    0    0  0.40905289922E+01 -0.95641186601E+02  0.16683525037E+03  0.21616933502E+03  0.98646903823E+02 0.  0.
         23    2    1    2    0    0 -0.40905289922E+01  0.95641186601E+02  0.20113159824E+03  0.24043574728E+03  0.90506683494E+02 0.  0.
          5    1    3    3  502    0 -0.22663617564E+02 -0.30444388186E+02  0.13197706587E+03  0.13740646364E+03  0.47000000000E+01 0. -1.
         -5    1    4    4    0  503  0.13750525932E+02  0.68387274151E+02  0.19473939380E+03  0.20690920165E+03  0.47000000000E+01 0.  1.
          5    1    4    4  503    0 -0.17841054924E+02  0.27253912450E+02  0.63922044470E+01  0.33526545636E+02  0.47000000000E+01 0. -1.
         -5    1    3    3    0  502  0.26754146556E+02 -0.65196798415E+02  0.34858184498E+02  0.78762871380E+02  0.47000000000E+01 0.  1.
<mgrwt>
<rscale>  0 0.13600694E+03</rscale>
<asrwt>0</asrwt>
<pdfrwt beam="1">  1        1 0.63428607E-01 0.13745974E+03</pdfrwt>
<pdfrwt beam="2">  1       -1 0.68183260E-02 0.13745974E+03</pdfrwt>
<totfact> 0.61435993E+03</totfact>
</mgrwt>
</event>
<event>
 8    1  0.7366917E-004  0.1476894E+03  0.7546771E-02  0.1203499E+00
         -1   -1    0    0    0  501 -0.00000000000E+00  0.00000000000E+00  0.40615408641E+03  0.40615408641E+03  0.00000000000E+00 0.  1.
          1   -1    0    0  501    0  0.00000000000E+00 -0.00000000000E+00 -0.53522795040E+02  0.53522795040E+02  0.00000000000E+00 0. -1.
         23    2    1    2    0    0 -0.10263476483E+02  0.11597767598E+03  0.17740326983E+03  0.23083342296E+03  0.90862471537E+02 0.  0.
         23    2    1    2    0    0  0.10263476483E+02 -0.11597767598E+03  0.17522802154E+03  0.22884345849E+03  0.90046147531E+02 0.  0.
          5    1    3    3  502    0  0.20742606135E+02  0.34521051994E+02  0.11923875035E+03  0.12594414764E+03  0.47000000000E+01 0. -1.
         -5    1    3    3    0  502 -0.31006082618E+02  0.81456623987E+02  0.58164519480E+02  0.10488927532E+03  0.47000000000E+01 0.  1.
          5    1    4    4  503    0  0.48673994154E+02 -0.82741086170E+02  0.11117573953E+03  0.14696047124E+03  0.47000000000E+01 0. -1.
         -5    1    4    4    0  503 -0.38410517671E+02 -0.33236589811E+02  0.64052282008E+02  0.81882987247E+02  0.47000000000E+01 0.  1.
<mgrwt>
<rscale>  0 0.14756400E+03</rscale>
<asrwt>0</asrwt>
<pdfrwt beam="1">  1        1 0.82342764E-02 0.14768937E+03</pdfrwt>
<pdfrwt beam="2">  1       -1 0.62485242E-01 0.14768937E+03</pdfrwt>
<totfact> 0.21860848E+03</totfact>
</mgrwt>
</event>
<event>
 8    1  0.7366917E-004  0.1456122E+03  0.7546771E-02  0.1206497E+00
         -2   -1    0    0    0  501 -0.00000000000E+00  0.00000000000E+00  0.22427342674E+03  0.22427342674E+03  0.00000000000E+00 0.  1.
          2   -1    0    0  501    0  0.00000000000E+00 -0.00000000000E+00 -0.14027712045E+03  0.14027712045E+03  0.00000000000E+00 0. -1.
         23    2    1    2    0    0 -0.74913746009E+02 -0.82296590751E+02  0.14711832595E+03  0.20584546422E+03  0.91344157542E+02 0.  0.
         23    2    1    2    0    0  0.74913746009E+02  0.82296590751E+02 -0.63122019662E+02  0.15870508298E+03  0.93904823131E+02 0.  0.
          5    1    3    3  502    0 -0.42223354932E+02  0.76966435088E+01  0.22697133265E+02  0.48778067628E+02  0.47000000000E+01 0. -1.
         -5    1    4    4    0  503  0.33164076668E+02 -0.15203631022E+02 -0.35213108348E+01  0.36952618411E+02  0.47000000000E+01 0.  1.
          5    1    4    4  503    0  0.41749669341E+02  0.97500221773E+02 -0.59600708828E+02  0.12175246457E+03  0.47000000000E+01 0. -1.
         -5    1    3    3    0  502 -0.32690391076E+02 -0.89993234260E+02  0.12442119269E+03  0.15706739659E+03  0.47000000000E+01 0.  1.
<mgrwt>
<rscale>  0 0.14520095E+03</rscale>
<asrwt>0</asrwt>
<pdfrwt beam="1">  1        2 0.21581095E-01 0.14561220E+03</pdfrwt>
<pdfrwt beam="2">  1       -2 0.34503604E-01 0.14561220E+03</pdfrwt>
<totfact> 0.19565373E+03</totfact>
</mgrwt>
</event>
<event>
 8    1  0.7366917E-004  0.9253090E+02  0.7546771E-02  0.1315471E+00
          3   -1    0    0  501    0  0.00000000000E+00  0.00000000000E+00  0.88190459129E+02  0.88190459129E+02  0.00000000000E+00 0. -1.
         -3   -1    0    0    0  501 -0.00000000000E+00 -0.00000000000E+00 -0.81935658019E+02  0.81935658019E+02  0.00000000000E+00 0.  1.
         23    2    1    2    0    0 -0.98956508588E+01 -0.55703389191E+00  0.33215771829E+02  0.73747373798E+02  0.65093420953E+02 0.  0.
         23    2    1    2    0    0  0.98956508588E+01  0.55703389191E+00 -0.26960970719E+02  0.96378743350E+02  0.91998554526E+02 0.  0.
          5    1    4    4  502    0  0.48467326750E+02 -0.76271234512E+01 -0.27940799924E+02  0.56657153783E+02  0.47000000000E+01 0. -1.
         -5    1    4    4    0  502 -0.38571675891E+02  0.81841573431E+01  0.97982920522E+00  0.39721589567E+02  0.47000000000E+01 0.  1.
          5    1    3    3  503    0  0.11500815234E+02  0.24506777702E+02  0.29401318958E+02  0.40241501722E+02  0.47000000000E+01 0. -1.
         -5    1    3    3    0  503 -0.21396466093E+02 -0.25063811594E+02  0.38144528708E+01  0.33505872076E+02  0.47000000000E+01 0.  1.
<mgrwt>
<rscale>  0 0.84985258E+02</rscale>
<asrwt>0</asrwt>
<pdfrwt beam="1">  1        3 0.13567763E-01 0.92530904E+02</pdfrwt>
<pdfrwt beam="2">  1       -3 0.12605486E-01 0.92530904E+02</pdfrwt>
<totfact> 0.46318279E+03</totfact>
</mgrwt>
</event>
<event>
 8    1  0.7366917E-004  0.9812319E+02  0.7546771E-02  0.1284541E+00
         -4   -1    0    0    0  501 -0.00000000000E+00  0.00000000000E+00  0.33782878386E+03  0.33782878386E+03  0.00000000000E+00 0.  1.
          4   -1    0    0  501    0  0.00000000000E+00 -0.00000000000E+00 -0.37000826665E+02  0.37000826665E+02  0.00000000000E+00 0. -1.
         23    2    1    2    0    0 -0.12328113409E+02  0.33862185875E+02  0.24121665023E+03  0.26041050657E+03  0.91266256491E+02 0.  0.
         23    2    1    2    0    0  0.12328113409E+02 -0.33862185875E+02  0.59611306967E+02  0.11441910395E+03  0.90772206199E+02 0.  0.
          5    1    3    3  502    0  0.23546734438E+02 -0.66498185460E+01  0.16470622276E+03  0.16658000662E+03  0.47000000000E+01 0. -1.
         -5    1    4    4    0  503  0.21968380450E+02 -0.54917608071E+02  0.67156806494E+02  0.89614061811E+02  0.47000000000E+01 0.  1.
          5    1    4    4  503    0 -0.96402670406E+01  0.21055422196E+02 -0.75454995267E+01  0.24805042140E+02  0.47000000000E+01 0. -1.
         -5    1    3    3    0  502 -0.35874847847E+02  0.40512004421E+02  0.76510427469E+02  0.93830499955E+02  0.47000000000E+01 0.  1.
<mgrwt>
<rscale>  0 0.98008144E+02</rscale>
<asrwt>0</asrwt>
<pdfrwt beam="1">  1        4 0.56924351E-02 0.98123186E+02</pdfrwt>
<pdfrwt beam="2">  1       -4 0.51973657E-01 0.98123186E+02</pdfrwt>
<totfact> 0.10630538E+03</totfact>
</mgrwt>
</event>
<event>
 8    1  0.7366917E-004  0.1960867E+03  0.7546771E-02  0.1158071E+00
          2   -1    0    0  501    0  0.00000000000E+00  0.00000000000E+00  0.90503515239E+03  0.90503515239E+03  0.00000000000E+00 0. -1.
         -2   -1    0    0    0  501 -0.00000000000E+00 -0.00000000000E+00 -0.38292069604E+02  0.38292069604E+02  0.00000000000E+00 0.  1.
         23    2    1    2    0    0  0.97762893343E+02 -0.11262266579E+03  0.41219706035E+03  0.45646076190E+03  0.12731285259E+03 0.  0.
         23    2    1    2    0    0 -0.97762893343E+02  0.11262266579E+03  0.45454602244E+03  0.48686646009E+03  0.90473284902E+02 0.  0.
          5    1    3    3  502    0 -0.22630692257E+02 -0.23301979298E+02  0.15750706797E+03  0.16089032579E+03  0.47000000000E+01 0. -1.
         -5    1    4    4    0  503 -0.10047419323E+03  0.51438925195E+02  0.29909368688E+03  0.31971886097E+03  0.47000000000E+01 0.  1.
          5    1    4    4  503    0  0.27112998825E+01  0.61183740595E+02  0.15545233557E+03  0.16714759913E+03  0.47000000000E+01 0. -1.
         -5    1    3    3    0  502  0.12039358560E+03 -0.89320686492E+02  0.25468999237E+03  0.29557043611E+03  0.47000000000E+01 0.  1.
<mgrwt>
<rscale>  0 0.19043349E+03</rscale>
<asrwt>0</asrwt>
<pdfrwt beam="1">  1        2 0.13923616E+00 0.19608674E+03</pdfrwt>
<pdfrwt beam="2">  1       -2 0.58910883E-02 0.19608674E+03</pdfrwt>
<totfact> 0.45366286E+03</totfact>
</mgrwt>
</event>
<event>
 8    1  0.7366917E-004  0.1109821E+03  0.7546771E-02  0.1263265E+00
         -1   -1    0    0    0  501 -0.00000000000E+00  0.00000000000E+00  0.74337917362E+03  0.74337917362E+03  0.00000000000E+00 0.  1.
          1   -1    0    0  501    0  0.00000000000E+00 -0.00000000000E+00 -0.16537308990E+02  0.16537308990E+02  0.00000000000E+00 0. -1.
         23    2    1    2    0    0  0.38903694285E+02  0.27448667503E+02  0.48622920477E+03  0.49873427228E+03  0.10025022690E+03 0.  0.
         23    2    1    2    0    0 -0.38903694285E+02 -0.27448667503E+02  0.24061265986E+03  0.26118221034E+03  0.89748360061E+02 0.  0.
          5    1    4    4  502    0 -0.65529662419E+02 -0.81485212061E+01  0.13310523741E+03  0.14865944061E+03  0.47000000000E+01 0. -1.
         -5    1    3    3    0  503  0.49969482464E+02 -0.21564218184E+02  0.33184485224E+03  0.33631095825E+03  0.47000000000E+01 0.  1.
          5    1    3    3  503    0 -0.11065788179E+02  0.49012885687E+02  0.15438435253E+03  0.16242331403E+03  0.47000000000E+01 0. -1.
         -5    1    4    4    0  502  0.26625968134E+02 -0.19300146297E+02  0.10750742245E+03  0.11252276973E+03  0.47000000000E+01 0.  1.
<mgrwt>
<rscale>  0 0.10855721E+03</rscale>
<asrwt>0</asrwt>
<pdfrwt beam="1">  1        1 0.25442019E-02 0.11098214E+03</pdfrwt>
<pdfrwt beam="2">  1       -1 0.11436600E+00 0.11098214E+03</pdfrwt>
<totfact> 0.30304310E+03</totfact>
</mgrwt>
</event>
<event>
 8    1  0.7366917E-004  0.9740150E+02  0.7546771E-02  0.1286368E+00
         -2   -1    0    0    0  501 -0.00000000000E+00  0.00000000000E+00  0.18120898485E+03  0.18120898485E+03  0.00000000000E+00 0.  1.
          2   -1    0    0  501    0  0.00000000000E+00 -0.00000000000E+00 -0.58207426023E+02  0.58207426023E+02  0.00000000000E+00 0. -1.
         23    2    1    2    0    0 -0.14965665055E+02 -0.25339425436E+02  0.21688418850E+02  0.98876722637E+02  0.91870349707E+02 0.  0.
         23    2    1    2    0    0  0.14965665055E+02  0.25339425436E+02  0.10131313998E+03  0.14053968824E+03  0.92849308158E+02 0.  0.
          5    1    3    3  502    0  0.23603886487E+02  0.98954060145E+00 -0.23551477536E+02  0.33688050433E+02  0.47000000000E+01 0. -1.
         -5    1    3    3    0  502 -0.38569551541E+02 -0.26328966038E+02  0.45239896386E+02  0.65188672204E+02  0.47000000000E+01 0.  1.
          5    1    4    4  503    0  0.40512786096E+02  0.76223154782E+01  0.82427557798E+01  0.42301519516E+02  0.47000000000E+01 0. -1.
         -5    1    4    4    0  503 -0.25547121041E+02  0.17717109958E+02  0.93070384197E+02  0.98238168720E+02  0.47000000000E+01 0.  1.
<mgrwt>
<rscale>  0 0.97167467E+02</rscale>
<asrwt>0</asrwt>
<pdfrwt beam="1">  1        2 0.89549887E-02 0.97401497E+02</pdfrwt>
<pdfrwt beam="2">  1       -2 0.27878305E-01 0.97401497E+02</pdfrwt>
<totfact> 0.78788674E+03</totfact>
</mgrwt>
</event>
<event>
 8    1  0.7366917E-004  0.9559210E+02  0.7546771E-02  0.1290553E+00
         -1   -1    0    0    0  501 -0.00000000000E+00  0.00000000000E+00  0.16167154483E+02  0.16167154483E+02  0.00000000000E+00 0.  1.
          1   -1    0    0  501    0  0.00000000000E+00 -0.00000000000E+00 -0.56551288640E+03  0.56551288640E+03  0.00000000000E+00 0. -1.
         23    2    1    2    0    0  0.11908450257E+02  0.21007135989E+02 -0.30680473744E+03  0.32098101040E+03  0.91195126922E+02 0.  0.
         23    2    1    2    0    0 -0.11908450257E+02 -0.21007135989E+02 -0.24254099448E+03  0.26069903048E+03  0.92491834993E+02 0.  0.
          5    1    4    4  502    0 -0.16979906101E+02 -0.53787341780E+02 -0.19114268841E+03  0.19934646393E+03  0.47000000000E+01 0. -1.
         -5    1    4    4    0  502  0.50714558446E+01  0.32780205791E+02 -0.51398306068E+02  0.61352566553E+02  0.47000000000E+01 0.  1.
          5    1    3    3  503    0 -0.63225571192E+00 -0.33672126734E+02 -0.73569255844E+02  0.81047746863E+02  0.47000000000E+01 0. -1.
         -5    1    3    3    0  503  0.12540705969E+02  0.54679262724E+02 -0.23323548159E+03  0.23993326354E+03  0.47000000000E+01 0.  1.
<mgrwt>
<rscale>  0 0.95277029E+02</rscale>
<asrwt>0</asrwt>
<pdfrwt beam="1">  1        1 0.87001995E-01 0.95592105E+02</pdfrwt>
<pdfrwt beam="2">  1       -1 0.24872542E-02 0.95592105E+02</pdfrwt>
<totfact> 0.17404962E+04</totfact>
</mgrwt>
</event>
<event>
 8    1  0.7366917E-004  0.9713616E+02  0.7546771E-02  0.1287553E+00
          1   -1    0    0  501    0  0.00000000000E+00  0.00000000000E+00  0.20063775614E+03  0.20063775614E+03  0.00000000000E+00 0. -1.
         -1   -1    0    0    0  501 -0.00000000000E+00 -0.00000000000E+00 -0.50536836278E+02  0.50536836278E+02  0.00000000000E+00 0.  1.
         23    2    1    2    0    0  0.21251210119E+02  0.20126553008E+02  0.38366903569E+02  0.10443875592E+03  0.92621500640E+02 0.  0.
         23    2    1    2    0    0 -0.21251210119E+02 -0.20126553008E+02  0.11173401629E+03  0.14673583650E+03  0.90499852203E+02 0.  0.
          5    1    3    3  502    0  0.28744627139E+02  0.47628183466E+02 -0.72211762106E+00  0.55832865801E+02  0.47000000000E+01 0. -1.
         -5    1    4    4    0  503 -0.40374886928E+02 -0.29614598953E+01  0.10362038248E+02  0.42051915246E+02  0.47000000000E+01 0.  1.
          5    1    4    4  503    0  0.19123676809E+02 -0.17165093113E+02  0.10137197805E+03  0.10468392125E+03  0.47000000000E+01 0. -1.
         -5    1    3    3    0  502 -0.74934170201E+01 -0.27501630458E+02  0.39089021190E+02  0.48605890117E+02  0.47000000000E+01 0.  1.
<mgrwt>
<rscale>  0 0.96626952E+02</rscale>
<asrwt>0</asrwt>
<pdfrwt beam="1">  1        1 0.30867347E-01 0.97136164E+02</pdfrwt>
<pdfrwt beam="2">  1       -1 0.77748980E-02 0.97136164E+02</pdfrwt>
<totfact> 0.11975930E+04</totfact>
</mgrwt>
</event>
<event>
 8    1  0.7366917E-004  0.1041778E+03  0.7546771E-02  0.1271913E+00
          3   -1    0    0  501    0  0.00000000000E+00  0.00000000000E+00  0.19675513946E+03  0.19675513946E+03  0.00000000000E+00 0. -1.
         -3   -1    0    0    0  501 -0.00000000000E+00 -0.00000000000E+00 -0.20611442461E+03  0.20611442461E+03  0.00000000000E+00 0.  1.
         23    2    1    2    0    0 -0.14964549221E+01 -0.48636759635E+02 -0.17716409699E+03  0.20535633146E+03  0.91740568140E+02 0.  0.
         23    2    1    2    0    0  0.14964549221E+01  0.48636759635E+02  0.16780481184E+03  0.19751323262E+03  0.92115408146E+02 0.  0.
          5    1    3    3  502    0 -0.70445847690E+01  0.19734186742E+02 -0.82853899373E+01  0.23017427905E+02  0.47000000000E+01 0. -1.
         -5    1    4    4    0  503  0.43585154323E+02  0.37661824796E+02  0.11679472234E+03  0.13031184095E+03  0.47000000000E+01 0.  1.
          5    1    4    4  503    0 -0.42088699401E+02  0.10974934839E+02  0.51010089497E+02  0.67201391670E+02  0.47000000000E+01 0. -1.
         -5    1    3    3    0  502  0.55481298469E+01 -0.68370946377E+02 -0.16887870705E+03  0.18233890355E+03  0.47000000000E+01 0.  1.
<mgrwt>
<rscale>  0 0.10409492E+03</rscale>
<asrwt>0</asrwt>
<pdfrwt beam="1">  1        3 0.30270021E-01 0.10417784E+03</pdfrwt>
<pdfrwt beam="2">  1       -3 0.31709912E-01 0.10417784E+03</pdfrwt>
<totfact> 0.23025293E+02</totfact>
</mgrwt>
</event>
<event>
 8    1  0.7366917E-004  0.9261713E+02  0.7546771E-02  0.1297417E+00
          2   -1    0    0  501    0  0.00000000000E+00  0.00000000000E+00  0.12684432533E+03  0.12684432533E+03  0.00000000000E+00 0. -1.
         -2   -1    0    0    0  501 -0.00000000000E+00 -0.00000000000E+00 -0.14847742335E+03  0.14847742335E+03  0.00000000000E+00 0.  1.
         23    2    1    2    0    0 -0.11007480000E+02 -0.47784413980E+01  0.91408315218E+02  0.12918381955E+03  0.90492988812E+02 0.  0.
         23    2    1    2    0    0  0.11007480000E+02  0.47784413980E+01 -0.11304141324E+03  0.14613792913E+03  0.91836458485E+02 0.  0.
          5    1    3    3  502    0  0.65561179568E+01 -0.29222582403E+02  0.93846903919E+02  0.98621870699E+02  0.47000000000E+01 0. -1.
         -5    1    4    4    0  503  0.31434609638E+02  0.40033763162E+02 -0.55232763610E+02  0.75256794059E+02  0.47000000000E+01 0.  1.
          5    1    4    4  503    0 -0.20427129637E+02 -0.35255321764E+02 -0.57808649627E+02  0.70881135076E+02  0.47000000000E+01 0. -1.
         -5    1    3    3    0  502 -0.17563597957E+02  0.24444141005E+02 -0.24385887010E+01  0.30561948850E+02  0.47000000000E+01 0.  1.
<mgrwt>
<rscale>  0 0.92282326E+02</rscale>
<asrwt>0</asrwt>
<pdfrwt beam="1">  1        2 0.19514512E-01 0.92617132E+02</pdfrwt>
<pdfrwt beam="2">  1       -2 0.22842680E-01 0.92617132E+02</pdfrwt>
<totfact> 0.44379783E+03</totfact>
</mgrwt>
</event>
<event>
 8    1  0.7366917E-004  0.9841754E+02  0.7546771E-02  0.1287851E+00
         -3   -1    0    0    0  501 -0.00000000000E+00  0.00000000000E+00  0.17882126765E+03  0.17882126765E+03  0.00000000000E+00 0.  1.
          3   -1    0    0  501    0  0.00000000000E+00 -0.00000000000E+00 -0.61926124825E+02  0.61926124825E+02  0.00000000000E+00 0. -1.
         23    2    1    2    0    0 -0.19310595370E+02  0.38526384084E+02  0.78070686784E+01  0.98726705003E+02  0.88480679220E+02 0.  0.
         23    2    1    2    0    0  0.19310595370E+02 -0.38526384084E+02  0.10908807415E+03  0.14202068748E+03  0.80078001881E+02 0.  0.
          5    1    3    3  502    0 -0.38998757121E+02  0.11242849668E+02 -0.27873226430E+02  0.49460200942E+02  0.47000000000E+01 0.  1.
         -5    1    4    4    0  503 -0.11122697021E+01  0.23883208062E+02  0.37902380014E+02  0.45059129840E+02  0.47000000000E+01 0.  1.
          5    1    4    4  503    0  0.20422865072E+02 -0.62409592145E+02  0.71185694136E+02  0.96961557636E+02  0.47000000000E+01 0. -1.
         -5    1    3    3    0  502  0.19688161751E+02  0.27283534416E+02  0.35680295108E+02  0.49266504061E+02  0.47000000000E+01 0. -1.
<mgrwt>
<rscale>  0 0.96491794E+02</rscale>
<asrwt>0</asrwt>
<pdfrwt beam="1">  1        3 0.95270962E-02 0.98417539E+02</pdfrwt>
<pdfrwt beam="2">  1       -3 0.27510964E-01 0.98417539E+02</pdfrwt>
<totfact> 0.21735891E+03</totfact>
</mgrwt>
</event>
<event>
 8    1  0.7366917E-004  0.9154526E+02  0.7546771E-02  0.1300167E+00
         -3   -1    0    0    0  501 -0.00000000000E+00  0.00000000000E+00  0.49840736365E+02  0.49840736365E+02  0.00000000000E+00 0.  1.
          3   -1    0    0  501    0  0.00000000000E+00 -0.00000000000E+00 -0.16627112099E+03  0.16627112099E+03  0.00000000000E+00 0. -1.
         23    2    1    2    0    0 -0.79677555100E+01  0.18783219941E+01 -0.48380848569E+02  0.10204488609E+03  0.89473119133E+02 0.  0.
         23    2    1    2    0    0  0.79677555100E+01 -0.18783219941E+01 -0.68049536056E+02  0.11406697127E+03  0.91178513669E+02 0.  0.
          5    1    3    3  502    0 -0.40601467342E+02 -0.45108298311E+01  0.23692623048E+01  0.41188956529E+02  0.47000000000E+01 0. -1.
         -5    1    3    3    0  502  0.32633711832E+02  0.63891518252E+01 -0.50750110873E+02  0.60855929560E+02  0.47000000000E+01 0.  1.
          5    1    4    4  503    0 -0.24913196008E+02 -0.29621705756E+02 -0.57583697900E+02  0.69541966115E+02  0.47000000000E+01 0. -1.
         -5    1    4    4    0  503  0.32880951518E+02  0.27743383762E+02 -0.10465838156E+02  0.44525005150E+02  0.47000000000E+01 0.  1.
<mgrwt>
<rscale>  0 0.91117665E+02</rscale>
<asrwt>0</asrwt>
<pdfrwt beam="1">  1        3 0.25580173E-01 0.91545260E+02</pdfrwt>
<pdfrwt beam="2">  1       -3 0.76678056E-02 0.91545260E+02</pdfrwt>
<totfact> 0.34723629E+03</totfact>
</mgrwt>
</event>
<event>
 8    1  0.7366917E-004  0.1080737E+03  0.7546771E-02  0.1265610E+00
         -1   -1    0    0    0  501 -0.00000000000E+00  0.00000000000E+00  0.14030826902E+02  0.14030826902E+02  0.00000000000E+00 0.  1.
          1   -1    0    0  501    0  0.00000000000E+00 -0.00000000000E+00 -0.95037252298E+03  0.95037252298E+03  0.00000000000E+00 0. -1.
         23    2    1    2    0    0  0.46434328654E+02 -0.12329282599E+02 -0.27710877080E+03  0.29637043985E+03  0.93477316342E+02 0.  0.
         23    2    1    2    0    0 -0.46434328654E+02  0.12329282599E+02 -0.65923292528E+03  0.66803291004E+03  0.96807856293E+02 0.  0.
          5    1    3    3  502    0 -0.16375084890E+01  0.28045838522E+02 -0.16804279443E+03  0.17043978776E+03  0.47000000000E+01 0. -1.
         -5    1    4    4    0  503  0.23394497125E+02 -0.43676480070E+01 -0.63588366151E+02  0.68058424567E+02  0.47000000000E+01 0.  1.
          5    1    4    4  503    0 -0.69828825779E+02  0.16696930606E+02 -0.59564455913E+03  0.59997448547E+03  0.47000000000E+01 0. -1.
         -5    1    3    3    0  502  0.48071837143E+02 -0.40375121121E+02 -0.10906597638E+03  0.12593065209E+03  0.47000000000E+01 0.  1.
<mgrwt>
<rscale>  0 0.10732265E+03</rscale>
<asrwt>0</asrwt>
<pdfrwt beam="1">  1        1 0.14621116E+00 0.10807367E+03</pdfrwt>
<pdfrwt beam="2">  1       -1 0.21585888E-02 0.10807367E+03</pdfrwt>
<totfact> 0.10153837E+04</totfact>
</mgrwt>
</event>
<event>
 8    1  0.7366917E-004  0.2073045E+03  0.7546771E-02  0.1144403E+00
          2   -1    0    0  501    0  0.00000000000E+00  0.00000000000E+00  0.12480450451E+04  0.12480450451E+04  0.00000000000E+00 0. -1.
         -2   -1    0    0    0  501 -0.00000000000E+00 -0.00000000000E+00 -0.36158750713E+02  0.36158750713E+02  0.00000000000E+00 0.  1.
         23    2    1    2    0    0 -0.18219777106E+03 -0.25965601177E+02  0.43996149436E+03  0.48492721344E+03  0.87852407994E+02 0.  0.
         23    2    1    2    0    0  0.18219777106E+03  0.25965601177E+02  0.77192480004E+03  0.79927658239E+03  0.95419694070E+02 0.  0.
          5    1    3    3  502    0 -0.65636161086E+02 -0.24270676098E+02  0.26869670215E+03  0.27769980034E+03  0.47000000000E+01 0. -1.
         -5    1    4    4    0  503  0.11659554927E+03  0.60095863013E+02  0.43881377402E+03  0.45802363817E+03  0.47000000000E+01 0.  1.
          5    1    4    4  503    0  0.65602221791E+02 -0.34130261836E+02  0.33311102602E+03  0.34125294421E+03  0.47000000000E+01 0. -1.
         -5    1    3    3    0  502 -0.11656160997E+03 -0.16949250792E+01  0.17126479221E+03  0.20722741310E+03  0.47000000000E+01 0.  1.
<mgrwt>
<rscale>  0 0.20645620E+03</rscale>
<asrwt>0</asrwt>
<pdfrwt beam="1">  1        2 0.19200690E+00 0.20730451E+03</pdfrwt>
<pdfrwt beam="2">  1       -2 0.55628857E-02 0.20730451E+03</pdfrwt>
<totfact> 0.31087542E+03</totfact>
</mgrwt>
</event>
<event>
 8    1  0.7366917E-004  0.1011097E+03  0.7546771E-02  0.1278065E+00
         -1   -1    0    0    0  501 -0.00000000000E+00  0.00000000000E+00  0.88374676859E+02  0.88374676859E+02  0.00000000000E+00 0.  1.
          1   -1    0    0  501    0  0.00000000000E+00 -0.00000000000E+00 -0.13485351474E+03  0.13485351474E+03  0.00000000000E+00 0. -1.
         23    2    1    2    0    0  0.43732792440E+02  0.98640179335E+01 -0.65548803003E+02  0.12049818903E+03  0.90627324793E+02 0.  0.
         23    2    1    2    0    0 -0.43732792440E+02 -0.98640179335E+01  0.19069965127E+02  0.10273000257E+03  0.90442986867E+02 0.  0.
          5    1    4    4  502    0 -0.71013107402E+02 -0.51424642506E-01  0.17656799499E+02  0.73326097919E+02  0.47000000000E+01 0. -1.
         -5    1    4    4    0  502  0.27280314963E+02 -0.98125932910E+01  0.14131656279E+01  0.29403904650E+02  0.47000000000E+01 0.  1.
          5    1    3    3  503    0  0.17763214930E+02 -0.10772978516E+02 -0.80892364200E+02  0.83649587307E+02  0.47000000000E+01 0. -1.
         -5    1    3    3    0  503  0.25969577510E+02  0.20636996449E+02  0.15343561197E+02  0.36848601720E+02  0.47000000000E+01 0.  1.
<mgrwt>
<rscale>  0 0.10106836E+03</rscale>
<asrwt>0</asrwt>
<pdfrwt beam="1">  1        1 0.20746695E-01 0.10110968E+03</pdfrwt>
<pdfrwt beam="2">  1       -1 0.13596104E-01 0.10110968E+03</pdfrwt>
<totfact> 0.84351663E+03</totfact>
</mgrwt>
</event>
<event>
 8    1  0.7366917E-004  0.9160885E+02  0.7546771E-02  0.1299359E+00
          1   -1    0    0  501    0  0.00000000000E+00  0.00000000000E+00  0.29167968663E+03  0.29167968663E+03  0.00000000000E+00 0. -1.
         -1   -1    0    0    0  501 -0.00000000000E+00 -0.00000000000E+00 -0.29965143770E+02  0.29965143770E+02  0.00000000000E+00 0.  1.
         23    2    1    2    0    0 -0.13815791416E+02  0.86156361925E+01  0.96729123663E+02  0.13322426471E+03  0.90150297077E+02 0.  0.
         23    2    1    2    0    0  0.13815791416E+02 -0.86156361925E+01  0.16498541920E+03  0.18842056569E+03  0.89537789499E+02 0.  0.
          5    1    3    3  502    0 -0.40919749099E+02 -0.12506569813E+02  0.87217034214E+02  0.97261200958E+02  0.47000000000E+01 0. -1.
         -5    1    4    4    0  503 -0.70984239356E+01  0.18956450349E+02  0.10506285939E+01  0.20806932802E+02  0.47000000000E+01 0.  1.
          5    1    4    4  503    0  0.20914215352E+02 -0.27572086541E+02  0.16393479061E+03  0.16761363289E+03  0.47000000000E+01 0. -1.
         -5    1    3    3    0  502  0.27103957683E+02  0.21122206005E+02  0.95120894485E+01  0.35963063750E+02  0.47000000000E+01 0.  1.
<mgrwt>
<rscale>  0 0.91457804E+02</rscale>
<asrwt>0</asrwt>
<pdfrwt beam="1">  1        1 0.44873796E-01 0.91608850E+02</pdfrwt>
<pdfrwt beam="2">  1       -1 0.46100223E-02 0.91608850E+02</pdfrwt>
<totfact> 0.16293656E+04</totfact>
</mgrwt>
</event>
<event>
 8    1  0.7366917E-004  0.9100128E+02  0.7546771E-02  0.1301275E+00
          1   -1    0    0  501    0  0.00000000000E+00  0.00000000000E+00  0.56552138818E+03  0.56552138818E+03  0.00000000000E+00 0. -1.
         -1   -1    0    0    0  501 -0.00000000000E+00 -0.00000000000E+00 -0.15814667637E+02  0.15814667637E+02  0.00000000000E+00 0.  1.
         23    2    1    2    0    0 -0.47535513661E+01  0.45714820567E+01  0.35918305379E+03  0.37019510745E+03  0.89378167101E+02 0.  0.
         23    2    1    2    0    0  0.47535513661E+01 -0.45714820567E+01  0.19052366676E+03  0.21114094837E+03  0.90761984243E+02 0.  0.
          5    1    3    3  502    0  0.12260600332E+02  0.40238169606E+02  0.25832970009E+03  0.26177424733E+03  0.47000000000E+01 0. -1.
         -5    1    3    3    0  502 -0.17014151699E+02 -0.35666687549E+02  0.10085335370E+03  0.10842086013E+03  0.47000000000E+01 0.  1.
          5    1    4    4  503    0 -0.22570501690E+02  0.10362725747E+02  0.88851652828E+01  0.26792719040E+02  0.47000000000E+01 0. -1.
         -5    1    4    4    0  503  0.27324053056E+02 -0.14934207804E+02  0.18163850147E+03  0.18434822933E+03  0.47000000000E+01 0.  1.
<mgrwt>
<rscale>  0 0.90654267E+02</rscale>
<asrwt>0</asrwt>
<pdfrwt beam="1">  1        1 0.87003275E-01 0.91001277E+02</pdfrwt>
<pdfrwt beam="2">  1       -1 0.24330262E-02 0.91001277E+02</pdfrwt>
<totfact> 0.17880912E+04</totfact>
</mgrwt>
</event>
<event>
 8    1  0.7366917E-004  0.1047817E+03  0.7546771E-02  0.1272441E+00
          1   -1    0    0  501    0  0.00000000000E+00  0.00000000000E+00  0.34216420712E+03  0.34216420712E+03  0.00000000000E+00 0. -1.
         -1   -1    0    0    0  501 -0.00000000000E+00 -0.00000000000E+00 -0.33091870592E+02  0.33091870592E+02  0.00000000000E+00 0.  1.
         23    2    1    2    0    0 -0.24928033153E+02  0.43032039371E+02  0.20491295071E+03  0.23014891913E+03  0.92228218888E+02 0.  0.
         23    2    1    2    0    0  0.24928033153E+02 -0.43032039371E+02  0.10415938581E+03  0.14510715858E+03  0.87941722567E+02 0.  0.
          5    1    4    4  502    0  0.98417188728E+00 -0.23831874437E+02  0.11073265382E+03  0.11336991424E+03  0.47000000000E+01 0. -1.
         -5    1    4    4    0  502  0.23943861266E+02 -0.19200164934E+02 -0.65732680038E+01  0.31737244337E+02  0.47000000000E+01 0.  1.
          5    1    3    3  503    0 -0.17390893620E+02  0.14586625331E+02  0.19826626073E+03  0.19961666504E+03  0.47000000000E+01 0. -1.
         -5    1    3    3    0  503 -0.75371395336E+01  0.28445414040E+02  0.66466899872E+01  0.30532254094E+02  0.47000000000E+01 0.  1.
<mgrwt>
<rscale>  0 0.10383073E+03</rscale>
<asrwt>0</asrwt>
<pdfrwt beam="1">  1        1 0.52640645E-01 0.10478171E+03</pdfrwt>
<pdfrwt beam="2">  1       -1 0.50910572E-02 0.10478171E+03</pdfrwt>
<totfact> 0.11728336E+04</totfact>
</mgrwt>
</event>
<event>
 8    1  0.7366917E-004  0.1387280E+03  0.7546771E-02  0.1215051E+00
          2   -1    0    0  501    0  0.00000000000E+00  0.00000000000E+00  0.28484413256E+03  0.28484413256E+03  0.00000000000E+00 0. -1.
         -2   -1    0    0    0  501 -0.00000000000E+00 -0.00000000000E+00 -0.76126775525E+02  0.76126775525E+02  0.00000000000E+00 0.  1.
         23    2    1    2    0    0  0.86811194629E+02 -0.58151500848E+02  0.16488749499E+03  0.21548377562E+03  0.91255635361E+02 0.  0.
         23    2    1    2    0    0 -0.86811194629E+02  0.58151500848E+02  0.43829862041E+02  0.14548713247E+03  0.91256059211E+02 0.  0.
          5    1    4    4  502    0 -0.50127661622E+02  0.66705516627E+00  0.56809426307E+02  0.75911977577E+02  0.47000000000E+01 0. -1.
         -5    1    3    3    0  503  0.12415183838E+02  0.16593911345E+02  0.71329325761E+02  0.74427531176E+02  0.47000000000E+01 0.  1.
          5    1    3    3  503    0  0.74396010792E+02 -0.74745412193E+02  0.93558169231E+02  0.14105624444E+03  0.47000000000E+01 0. -1.
         -5    1    4    4    0  502 -0.36683533007E+02  0.57484445682E+02 -0.12979564267E+02  0.69575154889E+02  0.47000000000E+01 0.  1.
<mgrwt>
<rscale>  0 0.13872790E+03</rscale>
<asrwt>0</asrwt>
<pdfrwt beam="1">  1        2 0.43822174E-01 0.13872797E+03</pdfrwt>
<pdfrwt beam="2">  1       -2 0.11711812E-01 0.13872797E+03</pdfrwt>
<totfact> 0.56956149E+03</totfact>
</mgrwt>
</event>
<event>
 8    1  0.7366917E-004  0.9931603E+02  0.7546771E-02  0.1283184E+00
          2   -1    0    0  501    0  0.00000000000E+00  0.00000000000E+00  0.80228564895E+03  0.80228564895E+03  0.00000000000E+00 0. -1.
         -2   -1    0    0    0  501 -0.00000000000E+00 -0.00000000000E+00 -0.16645697500E+02  0.16645697500E+02  0.00000000000E+00 0.  1.
         23    2    1    2    0    0  0.22114897587E+02 -0.25890511573E+02  0.17183618106E+03  0.19714461217E+03  0.90437479524E+02 0.  0.
         23    2    1    2    0    0 -0.22114897587E+02  0.25890511573E+02  0.61380377039E+03  0.62178673428E+03  0.93296768937E+02 0.  0.
          5    1    4    4  502    0  0.18221227445E+02  0.48616114995E+02  0.28863288250E+03  0.29330286501E+03  0.47000000000E+01 0. -1.
         -5    1    3    3    0  503 -0.63212718638E+01 -0.41534437529E+02  0.30693406854E+02  0.52242159251E+02  0.47000000000E+01 0.  1.
          5    1    3    3  503    0  0.28436169451E+02  0.15643925956E+02  0.14114277421E+03  0.14490245292E+03  0.47000000000E+01 0. -1.
         -5    1    4    4    0  502 -0.40336125032E+02 -0.22725603421E+02  0.32517088789E+03  0.32848386926E+03  0.47000000000E+01 0.  1.
<mgrwt>
<rscale>  0 0.98638883E+02</rscale>
<asrwt>0</asrwt>
<pdfrwt beam="1">  1        2 0.12342853E+00 0.99316033E+02</pdfrwt>
<pdfrwt beam="2">  1       -2 0.25608772E-02 0.99316033E+02</pdfrwt>
<totfact> 0.17570194E+04</totfact>
</mgrwt>
</event>
<event>
 8    1  0.7366917E-004  0.9071993E+02  0.7546771E-02  0.1302315E+00
          2   -1    0    0  501    0  0.00000000000E+00  0.00000000000E+00  0.63959415145E+02  0.63959415145E+02  0.00000000000E+00 0. -1.
         -2   -1    0    0    0  501 -0.00000000000E+00 -0.00000000000E+00 -0.15537381561E+03  0.15537381561E+03  0.00000000000E+00 0.  1.
         23    2    1    2    0    0 -0.24536452039E+01  0.88253042591E+01 -0.93069838150E+02  0.12859819979E+03  0.88270016691E+02 0.  0.
         23    2    1    2    0    0  0.24536452039E+01 -0.88253042591E+01  0.16554376818E+01  0.90735030964E+02  0.90256296180E+02 0.  0.
          5    1    3    3  502    0 -0.20393579423E+02 -0.21762992298E+02 -0.14329158898E+01  0.30226960869E+02  0.47000000000E+01 0. -1.
         -5    1    3    3    0  502  0.17939934219E+02  0.30588296557E+02 -0.91636922260E+02  0.98371238924E+02  0.47000000000E+01 0.  1.
          5    1    4    4  503    0  0.32986278715E+02 -0.31560832717E+02  0.17658111243E+02  0.49173973176E+02  0.47000000000E+01 0. -1.
         -5    1    4    4    0  503 -0.30532633511E+02  0.22735528457E+02 -0.16002673562E+02  0.41561057788E+02  0.47000000000E+01 0.  1.
<mgrwt>
<rscale>  0 0.90221866E+02</rscale>
<asrwt>0</asrwt>
<pdfrwt beam="1">  1        2 0.98399101E-02 0.90719928E+02</pdfrwt>
<pdfrwt beam="2">  1       -2 0.23903664E-01 0.90719928E+02</pdfrwt>
<totfact> 0.91179271E+03</totfact>
</mgrwt>
</event>
<event>
 8    1  0.7366917E-004  0.9883389E+02  0.7546771E-02  0.1283747E+00
          1   -1    0    0  501    0  0.00000000000E+00  0.00000000000E+00  0.15391530139E+03  0.15391530139E+03  0.00000000000E+00 0. -1.
         -1   -1    0    0    0  501 -0.00000000000E+00 -0.00000000000E+00 -0.62305842167E+02  0.62305842167E+02  0.00000000000E+00 0.  1.
         23    2    1    2    0    0  0.97312275144E+01  0.29707766971E+02  0.45600230129E+02  0.10884630710E+03  0.93759742820E+02 0.  0.
         23    2    1    2    0    0 -0.97312275144E+01 -0.29707766971E+02  0.46009229094E+02  0.10737483646E+03  0.91843661378E+02 0.  0.
          5    1    4    4  502    0 -0.30118622145E+02 -0.15701791473E+02  0.66561180438E+02  0.74874283948E+02  0.47000000000E+01 0. -1.
         -5    1    3    3    0  503  0.50564763826E+02  0.26908083426E+02  0.29642673088E+02  0.64665434061E+02  0.47000000000E+01 0.  1.
          5    1    3    3  503    0 -0.40833536311E+02  0.27996835449E+01  0.15957557041E+02  0.44180873038E+02  0.47000000000E+01 0. -1.
         -5    1    4    4    0  502  0.20387394631E+02 -0.14005975498E+02 -0.20551951344E+02  0.32500552511E+02  0.47000000000E+01 0.  1.
<mgrwt>
<rscale>  0 0.98376773E+02</rscale>
<asrwt>0</asrwt>
<pdfrwt beam="1">  1        1 0.23679277E-01 0.98833889E+02</pdfrwt>
<pdfrwt beam="2">  1       -1 0.95855142E-02 0.98833889E+02</pdfrwt>
<totfact> 0.12161568E+04</totfact>
</mgrwt>
</event>
<event>
 8    1  0.7366917E-004  0.1186185E+03  0.7546771E-02  0.1246029E+00
          2   -1    0    0  501    0  0.00000000000E+00  0.00000000000E+00  0.79669267271E+03  0.79669267271E+03  0.00000000000E+00 0. -1.
         -2   -1    0    0    0  501 -0.00000000000E+00 -0.00000000000E+00 -0.17437994853E+02  0.17437994853E+02  0.00000000000E+00 0.  1.
         23    2    1    2    0    0 -0.54984021308E+02  0.49420801765E+02  0.38432978350E+03  0.40177642665E+03  0.90825416490E+02 0.  0.
         23    2    1    2    0    0  0.54984021308E+02 -0.49420801765E+02  0.39492489436E+03  0.41235424092E+03  0.92761465974E+02 0.  0.
          5    1    3    3  502    0 -0.56141932685E+02  0.66164396410E+01  0.31563939081E+03  0.32069613174E+03  0.47000000000E+01 0. -1.
         -5    1    4    4    0  503  0.78170393998E+02 -0.46518157016E+02  0.34799726756E+03  0.35972036036E+03  0.47000000000E+01 0.  1.
          5    1    4    4  503    0 -0.23186372690E+02 -0.29026447488E+01  0.46927626803E+02  0.52633880556E+02  0.47000000000E+01 0. -1.
         -5    1    3    3    0  502  0.11579113765E+01  0.42804362124E+02  0.68690392687E+02  0.81080294912E+02  0.47000000000E+01 0.  1.
<mgrwt>
<rscale>  0 0.11823974E+03</rscale>
<asrwt>0</asrwt>
<pdfrwt beam="1">  1        2 0.12256808E+00 0.11861850E+03</pdfrwt>
<pdfrwt beam="2">  1       -2 0.26827691E-02 0.11861850E+03</pdfrwt>
<totfact> 0.16802531E+04</totfact>
</mgrwt>
</event>
<event>
 8    1  0.7366917E-004  0.9695242E+02  0.7546771E-02  0.1287468E+00
          1   -1    0    0  501    0  0.00000000000E+00  0.00000000000E+00  0.45393807088E+02  0.45393807088E+02  0.00000000000E+00 0. -1.
         -1   -1    0    0    0  501 -0.00000000000E+00 -0.00000000000E+00 -0.22585929372E+03  0.22585929372E+03  0.00000000000E+00 0.  1.
         23    2    1    2    0    0  0.31742683994E+02  0.17363131006E+02 -0.48180013762E+02  0.10724329102E+03  0.88717154128E+02 0.  0.
         23    2    1    2    0    0 -0.31742683994E+02 -0.17363131006E+02 -0.13228547287E+03  0.16400980979E+03  0.89948291091E+02 0.  0.
          5    1    3    3  502    0 -0.13096534644E+02  0.22554086427E+02  0.14228063530E+02  0.30078793626E+02  0.47000000000E+01 0. -1.
         -5    1    4    4    0  503 -0.83146152997E+01 -0.39301561195E+02 -0.16355921809E+02  0.43627419339E+02  0.47000000000E+01 0.  1.
          5    1    4    4  503    0 -0.23428068694E+02  0.21938430190E+02 -0.11592955106E+03  0.12038239045E+03  0.47000000000E+01 0. -1.
         -5    1    3    3    0  502  0.44839218638E+02 -0.51909554209E+01 -0.62408077292E+02  0.77164497390E+02  0.47000000000E+01 0.  1.
<mgrwt>
<rscale>  0 0.96665877E+02</rscale>
<asrwt>0</asrwt>
<pdfrwt beam="1">  1        1 0.69836627E-02 0.96952418E+02</pdfrwt>
<pdfrwt beam="2">  1       -1 0.34747583E-01 0.96952418E+02</pdfrwt>
<totfact> 0.76240951E+03</totfact>
</mgrwt>
</event>
<event>
 8    1  0.7366917E-004  0.9312845E+02  0.7546771E-02  0.1295897E+00
          3   -1    0    0  501    0  0.00000000000E+00  0.00000000000E+00  0.82688458379E+02  0.82688458379E+02  0.00000000000E+00 0. -1.
         -3   -1    0    0    0  501 -0.00000000000E+00 -0.00000000000E+00 -0.13657649008E+03  0.13657649008E+03  0.00000000000E+00 0.  1.
         23    2    1    2    0    0  0.15995618415E+02 -0.90694569282E+01 -0.80386750090E+02  0.12243989677E+03  0.90506264277E+02 0.  0.
         23    2    1    2    0    0 -0.15995618415E+02  0.90694569282E+01  0.26498718387E+02  0.96825051692E+02  0.91295091334E+02 0.  0.
          5    1    3    3  502    0 -0.37300792616E+02 -0.12222543629E+00 -0.26648372413E+02  0.46082424211E+02  0.47000000000E+01 0. -1.
         -5    1    3    3    0  502  0.53296411031E+02 -0.89472314919E+01 -0.53738377677E+02  0.76357472558E+02  0.47000000000E+01 0.  1.
          5    1    4    4  503    0 -0.17720390702E+02 -0.38079768687E+02  0.25580753831E+02  0.49401882519E+02  0.47000000000E+01 0. -1.
         -5    1    4    4    0  503  0.17247722867E+01  0.47149225615E+02  0.91796455565E+00  0.47423169173E+02  0.47000000000E+01 0.  1.
<mgrwt>
<rscale>  0 0.92934556E+02</rscale>
<asrwt>0</asrwt>
<pdfrwt beam="1">  1        3 0.12721301E-01 0.93128452E+02</pdfrwt>
<pdfrwt beam="2">  1       -3 0.21011768E-01 0.93128452E+02</pdfrwt>
<totfact> 0.21569826E+03</totfact>
</mgrwt>
</event>
<event>
 8    1  0.7366917E-004  0.1150651E+03  0.7546771E-02  0.1255510E+00
         -1   -1    0    0    0  501 -0.00000000000E+00  0.00000000000E+00  0.24350529464E+02  0.24350529464E+02  0.00000000000E+00 0.  1.
          1   -1    0    0  501    0  0.00000000000E+00 -0.00000000000E+00 -0.50998447986E+03  0.50998447986E+03  0.00000000000E+00 0. -1.
         23    2    1    2    0    0 -0.43618771754E+02  0.29603462630E+02 -0.20104048855E+03  0.22736040750E+03  0.92176540483E+02 0.  0.
         23    2    1    2    0    0  0.43618771754E+02 -0.29603462630E+02 -0.28459346185E+03  0.30697460182E+03  0.10227905645E+03 0.  0.
          5    1    4    4  502    0  0.74067547759E+02 -0.29197028934E+01 -0.18723844357E+03  0.20143200105E+03  0.47000000000E+01 0. -1.
         -5    1    3    3    0  503  0.20833150604E+02 -0.31817268289E+00 -0.10207783424E+02  0.23672985456E+02  0.47000000000E+01 0.  1.
          5    1    3    3  503    0 -0.64451922358E+02  0.29921635313E+02 -0.19083270513E+03  0.20368742205E+03  0.47000000000E+01 0. -1.
         -5    1    4    4    0  502 -0.30448776005E+02 -0.26683759736E+02 -0.97355018276E+02  0.10554260077E+03  0.47000000000E+01 0.  1.
<mgrwt>
<rscale>  0 0.11277802E+03</rscale>
<asrwt>0</asrwt>
<pdfrwt beam="1">  1        1 0.78459148E-01 0.11506506E+03</pdfrwt>
<pdfrwt beam="2">  1       -1 0.37462354E-02 0.11506506E+03</pdfrwt>
<totfact> 0.11195199E+04</totfact>
</mgrwt>
</event>
<event>
 8    1  0.7366917E-004  0.9562322E+02  0.7546771E-02  0.1289855E+00
          1   -1    0    0  501    0  0.00000000000E+00  0.00000000000E+00  0.21721319271E+03  0.21721319271E+03  0.00000000000E+00 0. -1.
         -1   -1    0    0    0  501 -0.00000000000E+00 -0.00000000000E+00 -0.42642743550E+02  0.42642743550E+02  0.00000000000E+00 0.  1.
         23    2    1    2    0    0  0.23487722335E+02 -0.20097080974E+02  0.10272670884E+03  0.14025107135E+03  0.90343901529E+02 0.  0.
         23    2    1    2    0    0 -0.23487722335E+02  0.20097080974E+02  0.71843740320E+02  0.11960486490E+03  0.90488866282E+02 0.  0.
          5    1    4    4  502    0  0.10463541185E+02 -0.18139395866E+02 -0.94509351743E+01  0.23450662084E+02  0.47000000000E+01 0. -1.
         -5    1    3    3    0  503 -0.45757947741E+01  0.23966281369E+02 -0.67625126329E-01  0.24847839214E+02  0.47000000000E+01 0.  1.
          5    1    3    3  503    0  0.28063517109E+02 -0.44063362343E+02  0.10279433396E+03  0.11540323214E+03  0.47000000000E+01 0. -1.
         -5    1    4    4    0  502 -0.33951263521E+02  0.38236476840E+02  0.81294675494E+02  0.96154202818E+02  0.47000000000E+01 0.  1.
<mgrwt>
<rscale>  0 0.95588912E+02</rscale>
<asrwt>0</asrwt>
<pdfrwt beam="1">  1        1 0.33417414E-01 0.95623223E+02</pdfrwt>
<pdfrwt beam="2">  1       -1 0.65604222E-02 0.95623223E+02</pdfrwt>
<totfact> 0.13964739E+04</totfact>
</mgrwt>
</event>
<event>
 8    1  0.7366917E-004  0.1124440E+03  0.7546771E-02  0.1256787E+00
         -2   -1    0    0    0  501 -0.00000000000E+00  0.00000000000E+00  0.58338041623E+02  0.58338041623E+02  0.00000000000E+00 0.  1.
          2   -1    0    0  501    0  0.00000000000E+00 -0.00000000000E+00 -0.25666983389E+03  0.25666983389E+03  0.00000000000E+00 0. -1.
         23    2    1    2    0    0  0.64750102703E+02  0.14607055833E+02 -0.35394775283E+02  0.11788314311E+03  0.90761795008E+02 0.  0.
         23    2    1    2    0    0 -0.64750102703E+02 -0.14607055833E+02 -0.16293701698E+03  0.19712473239E+03  0.88903018727E+02 0.  0.
          5    1    4    4  502    0 -0.70804937303E+02  0.20699392526E+02 -0.12078361282E+03  0.14160711537E+03  0.47000000000E+01 0. -1.
         -5    1    4    4    0  502  0.60548346001E+01 -0.35306448359E+02 -0.42153404158E+02  0.55517617023E+02  0.47000000000E+01 0.  1.
          5    1    3    3  503    0  0.14727995685E+02  0.25883381974E+02 -0.55051586920E+02  0.62766476257E+02  0.47000000000E+01 0. -1.
         -5    1    3    3    0  503  0.50022107018E+02 -0.11276326142E+02  0.19656811637E+02  0.55116666858E+02  0.47000000000E+01 0.  1.
<mgrwt>
<rscale>  0 0.11206836E+03</rscale>
<asrwt>0</asrwt>
<pdfrwt beam="1">  1        2 0.39487667E-01 0.11244397E+03</pdfrwt>
<pdfrwt beam="2">  1       -2 0.89750833E-02 0.11244397E+03</pdfrwt>
<totfact> 0.95206488E+03</totfact>
</mgrwt>
</event>
<event>
 8    1  0.7366917E-004  0.9563399E+02  0.7546771E-02  0.1290328E+00
         -4   -1    0    0    0  501 -0.00000000000E+00  0.00000000000E+00  0.85789334848E+02  0.85789334848E+02  0.00000000000E+00 0.  1.
          4   -1    0    0  501    0  0.00000000000E+00 -0.00000000000E+00 -0.11248882806E+03  0.11248882806E+03  0.00000000000E+00 0. -1.
         23    2    1    2    0    0 -0.10775892313E+02  0.24335414565E+02 -0.38176475148E+02  0.10297234093E+03  0.91856014966E+02 0.  0.
         23    2    1    2    0    0  0.10775892313E+02 -0.24335414565E+02  0.11476981935E+02  0.95305821975E+02  0.90791774577E+02 0.  0.
          5    1    4    4  502    0  0.32912525207E+02  0.78745489219E+01 -0.24447907227E+02  0.42012295867E+02  0.47000000000E+01 0. -1.
         -5    1    3    3    0  503 -0.46220155928E+02 -0.72596157886E+01 -0.11913945489E+02  0.48508112028E+02  0.47000000000E+01 0.  1.
          5    1    3    3  503    0  0.35444263614E+02  0.31595030353E+02 -0.26262529660E+02  0.54464228906E+02  0.47000000000E+01 0. -1.
         -5    1    4    4    0  502 -0.22136632894E+02 -0.32209963486E+02  0.35924889162E+02  0.53293526108E+02  0.47000000000E+01 0.  1.
<mgrwt>
<rscale>  0 0.95377525E+02</rscale>
<asrwt>0</asrwt>
<pdfrwt beam="1">  1        4 0.17305973E-01 0.95633988E+02</pdfrwt>
<pdfrwt beam="2">  1       -4 0.13198359E-01 0.95633988E+02</pdfrwt>
<totfact> 0.20800830E+03</totfact>
</mgrwt>
</event>
<event>
 8    1  0.7366917E-004  0.1101583E+03  0.7546771E-02  0.1263615E+00
          2   -1    0    0  501    0  0.00000000000E+00  0.00000000000E+00  0.57542804177E+03  0.57542804177E+03  0.00000000000E+00 0. -1.
         -2   -1    0    0    0  501 -0.00000000000E+00 -0.00000000000E+00 -0.20256161505E+02  0.20256161505E+02  0.00000000000E+00 0.  1.
         23    2    1    2    0    0 -0.33581214778E+02  0.36885041523E+02  0.22281302536E+03  0.24554528928E+03  0.90325193305E+02 0.  0.
         23    2    1    2    0    0  0.33581214778E+02 -0.36885041523E+02  0.33235885491E+03  0.35013891400E+03  0.98217342579E+02 0.  0.
          5    1    4    4  502    0  0.12628093052E+02 -0.53187860210E+02  0.31083344590E+03  0.31563893660E+03  0.47000000000E+01 0. -1.
         -5    1    3    3    0  503 -0.33006932730E+02  0.65860996560E+02  0.15837684622E+03  0.17473535388E+03  0.47000000000E+01 0.  1.
          5    1    3    3  503    0 -0.57428204822E+00 -0.28975955037E+02  0.64436179141E+02  0.70809935408E+02  0.47000000000E+01 0. -1.
         -5    1    4    4    0  502  0.20953121727E+02  0.16302818687E+02  0.21525409007E+02  0.34499977394E+02  0.47000000000E+01 0.  1.
<mgrwt>
<rscale>  0 0.10837161E+03</rscale>
<asrwt>0</asrwt>
<pdfrwt beam="1">  1        2 0.88527378E-01 0.11015830E+03</pdfrwt>
<pdfrwt beam="2">  1       -2 0.31163330E-02 0.11015830E+03</pdfrwt>
<totfact> 0.19629835E+04</totfact>
</mgrwt>
</event>
<event>
 8    1  0.7366917E-004  0.9881248E+02  0.7546771E-02  0.1282817E+00
         -3   -1    0    0    0  501 -0.00000000000E+00  0.00000000000E+00  0.39029564175E+03  0.39029564175E+03  0.00000000000E+00 0.  1.
          3   -1    0    0  501    0  0.00000000000E+00 -0.00000000000E+00 -0.32388176230E+02  0.32388176230E+02  0.00000000000E+00 0. -1.
         23    2    1    2    0    0  0.29084700762E+02 -0.23678603664E+02  0.78121775545E+02  0.12596395308E+03  0.91418321863E+02 0.  0.
         23    2    1    2    0    0 -0.29084700762E+02  0.23678603664E+02  0.27978568998E+03  0.29671986490E+03  0.91411431560E+02 0.  0.
          5    1    4    4  502    0 -0.78720612783E+01 -0.22924082526E+02  0.20182521677E+03  0.20332975934E+03  0.47000000000E+01 0. -1.
         -5    1    4    4    0  502 -0.21212639484E+02  0.46602686189E+02  0.77960473207E+02  0.93390105561E+02  0.47000000000E+01 0.  1.
          5    1    3    3  503    0  0.27333452713E+02 -0.57493142142E+02  0.43081707125E+02  0.77011054527E+02  0.47000000000E+01 0. -1.
         -5    1    3    3    0  503  0.17512480492E+01  0.33814538478E+02  0.35040068419E+02  0.48952898556E+02  0.47000000000E+01 0.  1.
<mgrwt>
<rscale>  0 0.98810884E+02</rscale>
<asrwt>0</asrwt>
<pdfrwt beam="1">  1        3 0.49827966E-02 0.98812477E+02</pdfrwt>
<pdfrwt beam="2">  1       -3 0.60045480E-01 0.98812477E+02</pdfrwt>
<totfact> 0.13696516E+03</totfact>
</mgrwt>
</event>
<event>
 8    1  0.7366917E-004  0.1114544E+03  0.7546771E-02  0.1258238E+00
          1   -1    0    0  501    0  0.00000000000E+00  0.00000000000E+00  0.10209014633E+03  0.10209014633E+03  0.00000000000E+00 0. -1.
         -1   -1    0    0    0  501 -0.00000000000E+00 -0.00000000000E+00 -0.18110225653E+03  0.18110225653E+03  0.00000000000E+00 0.  1.
         23    2    1    2    0    0 -0.61926348975E+02  0.10712810969E+02  0.42240089276E+02  0.11849823419E+03  0.91148062776E+02 0.  0.
         23    2    1    2    0    0  0.61926348975E+02 -0.10712810969E+02 -0.12125219949E+03  0.16469416867E+03  0.92045838025E+02 0.  0.
          5    1    3    3  502    0 -0.74492844174E+02 -0.13289467353E+02  0.10556390360E+02  0.76546202734E+02  0.47000000000E+01 0. -1.
         -5    1    3    3    0  502  0.12566495199E+02  0.24002278322E+02  0.31683698916E+02  0.41952031455E+02  0.47000000000E+01 0.  1.
          5    1    4    4  503    0 -0.18486610762E+02 -0.23095964419E+02 -0.32017181387E+02  0.43844820148E+02  0.47000000000E+01 0. -1.
         -5    1    4    4    0  503  0.80412959737E+02  0.12383153450E+02 -0.89235018099E+02  0.12084934852E+03  0.47000000000E+01 0.  1.
<mgrwt>
<rscale>  0 0.11126882E+03</rscale>
<asrwt>0</asrwt>
<pdfrwt beam="1">  1        1 0.15706177E-01 0.11145436E+03</pdfrwt>
<pdfrwt beam="2">  1       -1 0.27861885E-01 0.11145436E+03</pdfrwt>
<totfact> 0.38554535E+03</totfact>
</mgrwt>
</event>
<event>
 8    1  0.7366917E-004  0.1052660E+03  0.7546771E-02  0.1272625E+00
         -3   -1    0    0    0  501 -0.00000000000E+00  0.00000000000E+00  0.10607169197E+03  0.10607169197E+03  0.00000000000E+00 0.  1.
          3   -1    0    0  501    0  0.00000000000E+00 -0.00000000000E+00 -0.15795735362E+03  0.15795735362E+03  0.00000000000E+00 0. -1.
         23    2    1    2    0    0  0.17071549181E+01  0.36596441181E+02  0.54475616015E+02  0.11852647915E+03  0.98684951410E+02 0.  0.
         23    2    1    2    0    0 -0.17071549181E+01 -0.36596441181E+02 -0.10636127767E+03  0.14550256644E+03  0.92282509543E+02 0.  0.
          5    1    3    3  502    0  0.39788136647E+02  0.60839723295E+00 -0.35234126439E+01  0.40224002805E+02  0.47000000000E+01 0. -1.
         -5    1    3    3    0  502 -0.38080981729E+02  0.35988043948E+02  0.57999028659E+02  0.78302476346E+02  0.47000000000E+01 0.  1.
          5    1    4    4  503    0  0.35827556443E+02 -0.28872711622E+02 -0.94336057590E+02  0.10506488014E+03  0.47000000000E+01 0. -1.
         -5    1    4    4    0  503 -0.37534711361E+02 -0.77237295590E+01 -0.12025220080E+02  0.40437686299E+02  0.47000000000E+01 0.  1.
<mgrwt>
<rscale>  0 0.10373881E+03</rscale>
<asrwt>0</asrwt>
<pdfrwt beam="1">  1        3 0.24301131E-01 0.10526601E+03</pdfrwt>
<pdfrwt beam="2">  1       -3 0.16318722E-01 0.10526601E+03</pdfrwt>
<totfact> 0.11195010E+03</totfact>
</mgrwt>
</event>
<event>
 7    1  0.7366917E-004  0.1714408E+03  0.7546771E-02  0.1195834E+00
          2   -1    0    0  501    0  0.00000000000E+00  0.00000000000E+00  0.20522519724E+03  0.20522519724E+03  0.00000000000E+00 0. -1.
         -2   -1    0    0    0  501 -0.00000000000E+00 -0.00000000000E+00 -0.25375209267E+03  0.25375209267E+03  0.00000000000E+00 0.  1.
         23    2    1    2    0    0 -0.24824963640E+02  0.59140234695E+02  0.15634894803E+03  0.19183304045E+03  0.90780370575E+02 0.  0.
          5    1    1    2  502    0 -0.49916689630E+02 -0.16924826022E+02 -0.95975942728E+01  0.53780381696E+02  0.47000000000E+01 0. -1.
         -5    1    1    2    0  502  0.74741653270E+02 -0.42215408673E+02 -0.19527824918E+03  0.21336386776E+03  0.47000000000E+01 0.  1.
          5    1    3    3  503    0 -0.11406020555E+02  0.82694524022E+02  0.11568988916E+03  0.14274005066E+03  0.47000000000E+01 0. -1.
         -5    1    3    3    0  503 -0.13418943085E+02 -0.23554289327E+02  0.40659058862E+02  0.49092989793E+02  0.47000000000E+01 0.  1.
<mgrwt>
<rscale>  0 0.15383870E+03</rscale>
<asrwt>0</asrwt>
<pdfrwt beam="1">  1        2 0.31573107E-01 0.17144077E+03</pdfrwt>
<pdfrwt beam="2">  1       -2 0.39038784E-01 0.17144077E+03</pdfrwt>
<totfact> 0.10261965E+03</totfact>
</mgrwt>
</event>
<event>
 7    1  0.7366917E-004  0.3126731E+03  0.7546771E-02  0.1079072E+00
          1   -1    0    0  501    0  0.00000000000E+00  0.00000000000E+00  0.26953236623E+03  0.26953236623E+03  0.00000000000E+00 0. -1.
         -1   -1    0    0    0  501 -0.00000000000E+00 -0.00000000000E+00 -0.90679688417E+02  0.90679688417E+02  0.00000000000E+00 0.  1.
         23    2    1    2    0    0  0.65358443463E+02 -0.10722255000E+02  0.58028417579E+02  0.12760904566E+03  0.92358423560E+02 0.  0.
          5    1    3    3  502    0  0.28468275160E+02 -0.41429232855E+02  0.61128709156E+02  0.79281984767E+02  0.47000000000E+01 0. -1.
         -5    1    3    3    0  502  0.36890168303E+02  0.30706977855E+02 -0.31002915770E+01  0.48327060890E+02  0.47000000000E+01 0.  1.
          5    1    1    2  503    0 -0.13159202788E+03  0.59198322490E+01  0.86972613499E+02  0.15791716726E+03  0.47000000000E+01 0. -1.
         -5    1    1    2    0  503  0.66233584415E+02  0.48024227513E+01  0.33851646732E+02  0.74685841732E+02  0.47000000000E+01 0.  1.
<mgrwt>
<rscale>  0 0.31267306E+03</rscale>
<asrwt>0</asrwt>
<pdfrwt beam="1">  1        1 0.41466517E-01 0.31267306E+03</pdfrwt>
<pdfrwt beam="2">  1       -1 0.13950721E-01 0.31267306E+03</pdfrwt>
<totfact> 0.36203406E+03</totfact>
</mgrwt>
</event>
<event>
 8    1  0.7366917E-004  0.1063769E+03  0.7546771E-02  0.1267988E+00
          2   -1    0    0  501    0  0.00000000000E+00  0.00000000000E+00  0.12227568528E+04  0.12227568528E+04  0.00000000000E+00 0. -1.
         -2   -1    0    0    0  501 -0.00000000000E+00 -0.00000000000E+00 -0.11346323853E+02  0.11346323853E+02  0.00000000000E+00 0.  1.
         23    2    1    2    0    0  0.34602858851E+02 -0.39524491006E+02  0.33190449230E+03  0.34818731231E+03  0.91182614680E+02 0.  0.
         23    2    1    2    0    0 -0.34602858851E+02  0.39524491006E+02  0.87950603667E+03  0.88591586436E+03  0.92501388928E+02 0.  0.
          5    1    3    3  502    0  0.23087700823E+01  0.27559945148E+02  0.59994620695E+02  0.66229340237E+02  0.47000000000E+01 0. -1.
         -5    1    4    4    0  503  0.28420718249E+02  0.31443053420E+02  0.36107708413E+03  0.36358651449E+03  0.47000000000E+01 0.  1.
          5    1    4    4  503    0 -0.63023577101E+02  0.80814375859E+01  0.51842895254E+03  0.52232934987E+03  0.47000000000E+01 0. -1.
         -5    1    3    3    0  502  0.32294088769E+02 -0.67084436155E+02  0.27190987160E+03  0.28195797208E+03  0.47000000000E+01 0.  1.
<mgrwt>
<rscale>  0 0.10608958E+03</rscale>
<asrwt>0</asrwt>
<pdfrwt beam="1">  1        2 0.18811633E+00 0.10637693E+03</pdfrwt>
<pdfrwt beam="2">  1       -2 0.17455893E-02 0.10637693E+03</pdfrwt>
<totfact> 0.17313511E+04</totfact>
</mgrwt>
</event>
<event>
 8    1  0.7366917E-004  0.9347136E+02  0.7546771E-02  0.1294710E+00
          1   -1    0    0  501    0  0.00000000000E+00  0.00000000000E+00  0.11230777663E+02  0.11230777663E+02  0.00000000000E+00 0.  1.
         -1   -1    0    0    0  501 -0.00000000000E+00 -0.00000000000E+00 -0.77751490916E+03  0.77751490916E+03  0.00000000000E+00 0. -1.
         23    2    1    2    0    0  0.14845494090E+02 -0.52403441790E+01 -0.37495389558E+03  0.38642893171E+03  0.92136016576E+02 0.  0.
         23    2    1    2    0    0 -0.14845494090E+02  0.52403441790E+01 -0.39133023591E+03  0.40231675511E+03  0.92041121238E+02 0.  0.
          5    1    4    4  502    0  0.31501180499E+02 -0.16811763047E+00 -0.27576684858E+03  0.27760006739E+03  0.47000000000E+01 0. -1.
         -5    1    4    4    0  502 -0.46346674589E+02  0.54084618095E+01 -0.11556338733E+03  0.12471668772E+03  0.47000000000E+01 0.  1.
          5    1    3    3  503    0 -0.38852327138E+01 -0.46503523487E+02 -0.21848239491E+03  0.22345988368E+03  0.47000000000E+01 0. -1.
         -5    1    3    3    0  503  0.18730726804E+02  0.41263179308E+02 -0.15647150068E+03  0.16296904803E+03  0.47000000000E+01 0.  1.
<mgrwt>
<rscale>  0 0.93447968E+02</rscale>
<asrwt>0</asrwt>
<pdfrwt beam="1">  1        1 0.17278119E-02 0.93471362E+02</pdfrwt>
<pdfrwt beam="2">  1       -1 0.11961768E+00 0.93471362E+02</pdfrwt>
<totfact> 0.46040578E+03</totfact>
</mgrwt>
</event>
<event>
 8    1  0.7366917E-004  0.1168845E+03  0.7546771E-02  0.1248935E+00
          2   -1    0    0  501    0  0.00000000000E+00  0.00000000000E+00  0.10122760534E+04  0.10122760534E+04  0.00000000000E+00 0. -1.
         -2   -1    0    0    0  501 -0.00000000000E+00 -0.00000000000E+00 -0.13358049711E+02  0.13358049711E+02  0.00000000000E+00 0.  1.
         23    2    1    2    0    0 -0.27684771863E+02  0.67367904842E+02  0.52450284635E+03  0.53736879877E+03  0.91417224110E+02 0.  0.
         23    2    1    2    0    0  0.27684771863E+02 -0.67367904842E+02  0.47441515732E+03  0.48826530433E+03  0.89601253984E+02 0.  0.
          5    1    4    4  502    0  0.41965820790E+02 -0.83090498134E+02  0.40135036642E+03  0.41203078479E+03  0.47000000000E+01 0. -1.
         -5    1    3    3    0  503  0.23380063306E+02  0.55248654206E+01  0.45420932946E+02  0.51597506217E+02  0.47000000000E+01 0.  1.
          5    1    3    3  503    0 -0.51064835169E+02  0.61843039421E+02  0.47908191340E+03  0.48577129255E+03  0.47000000000E+01 0. -1.
         -5    1    4    4    0  502 -0.14281048926E+02  0.15722593292E+02  0.73064790906E+02  0.76234519533E+02  0.47000000000E+01 0.  1.
<mgrwt>
<rscale>  0 0.11652921E+03</rscale>
<asrwt>0</asrwt>
<pdfrwt beam="1">  1        2 0.15573472E+00 0.11688452E+03</pdfrwt>
<pdfrwt beam="2">  1       -2 0.20550854E-02 0.11688452E+03</pdfrwt>
<totfact> 0.18109807E+04</totfact>
</mgrwt>
</event>
<event>
 8    1  0.7366917E-004  0.3215214E+03  0.7546771E-02  0.1075053E+00
         -2   -1    0    0    0  501 -0.00000000000E+00  0.00000000000E+00  0.70351853621E+02  0.70351853621E+02  0.00000000000E+00 0.  1.
          2   -1    0    0  501    0  0.00000000000E+00 -0.00000000000E+00 -0.16739345379E+04  0.16739345379E+04  0.00000000000E+00 0. -1.
         23    2    1    2    0    0 -0.12891233129E+03  0.27951716361E+03 -0.49489364885E+03  0.59016586914E+03  0.92885927466E+02 0.  0.
         23    2    1    2    0    0  0.12891233129E+03 -0.27951716361E+03 -0.11086890354E+04  0.11541205224E+04  0.89747250564E+02 0.  0.
          5    1    4    4  502    0 -0.46240538956E+01 -0.70786470607E+02 -0.20087257046E+03  0.21308211060E+03  0.47000000000E+01 0.  1.
         -5    1    4    4    0  502  0.13353638518E+03 -0.20873069300E+03 -0.90781646498E+03  0.94103841179E+03  0.47000000000E+01 0. -1.
          5    1    3    3  503    0 -0.11108223901E+03  0.13215719997E+03 -0.27892019971E+03  0.32805999014E+03  0.47000000000E+01 0. -1.
         -5    1    3    3    0  503 -0.17830092283E+02  0.14735996363E+03 -0.21597344914E+03  0.26210587900E+03  0.47000000000E+01 0.  1.
<mgrwt>
<rscale>  0 0.32129803E+03</rscale>
<asrwt>0</asrwt>
<pdfrwt beam="1">  1        2 0.25752839E+00 0.32152143E+03</pdfrwt>
<pdfrwt beam="2">  1       -2 0.10823362E-01 0.32152143E+03</pdfrwt>
<totfact> 0.64198769E+02</totfact>
</mgrwt>
</event>
<event>
 8    1  0.7366917E-004  0.1043464E+03  0.7546771E-02  0.1272959E+00
         -1   -1    0    0    0  501 -0.00000000000E+00  0.00000000000E+00  0.74240430303E+02  0.74240430303E+02  0.00000000000E+00 0.  1.
          1   -1    0    0  501    0  0.00000000000E+00 -0.00000000000E+00 -0.51737401830E+03  0.51737401830E+03  0.00000000000E+00 0. -1.
         23    2    1    2    0    0 -0.11170539987E+02  0.50388822154E+02  0.31168918933E+02  0.10596946730E+03  0.87144776839E+02 0.  0.
         23    2    1    2    0    0  0.11170539987E+02 -0.50388822154E+02 -0.47430250693E+03  0.48564498131E+03  0.90688287146E+02 0.  0.
          5    1    4    4  502    0  0.48320186155E+02 -0.24218745813E+02 -0.18620708539E+03  0.19394988190E+03  0.47000000000E+01 0. -1.
         -5    1    3    3    0  503 -0.22936093690E+02  0.71882315563E+02  0.28832235087E+02  0.80910564604E+02  0.47000000000E+01 0.  1.
          5    1    3    3  503    0  0.11765553703E+02 -0.21493493409E+02  0.23366838469E+01  0.25058902694E+02  0.47000000000E+01 0. -1.
         -5    1    4    4    0  502 -0.37149646168E+02 -0.26170076341E+02 -0.28809542154E+03  0.29169509941E+03  0.47000000000E+01 0.  1.
<mgrwt>
<rscale>  0 0.10357172E+03</rscale>
<asrwt>0</asrwt>
<pdfrwt beam="1">  1        1 0.79596003E-01 0.10434644E+03</pdfrwt>
<pdfrwt beam="2">  1       -1 0.11421605E-01 0.10434644E+03</pdfrwt>
<totfact> 0.20788809E+03</totfact>
</mgrwt>
</event>
<event>
 8    1  0.7366917E-004  0.1958328E+03  0.7546771E-02  0.1153751E+00
         -1   -1    0    0    0  501 -0.00000000000E+00  0.00000000000E+00  0.30726658400E+03  0.30726658400E+03  0.00000000000E+00 0.  1.
          1   -1    0    0  501    0  0.00000000000E+00 -0.00000000000E+00 -0.12447819430E+03  0.12447819430E+03  0.00000000000E+00 0. -1.
         23    2    1    2    0    0 -0.92690131883E+02  0.14565072759E+03  0.72806806445E+02  0.20892899561E+03  0.92438623672E+02 0.  0.
         23    2    1    2    0    0  0.92690131883E+02 -0.14565072759E+03  0.10998158325E+03  0.22281578269E+03  0.88007552879E+02 0.  0.
          5    1    3    3  502    0 -0.22751569569E+02 -0.17885934602E+01 -0.10604804037E+02  0.25600485407E+02  0.47000000000E+01 0. -1.
         -5    1    3    3    0  502 -0.69938562314E+02  0.14743932105E+03  0.83411610482E+02  0.18332851021E+03  0.47000000000E+01 0.  1.
          5    1    4    4  503    0  0.30877070742E+01 -0.38950039920E+02 -0.80265365526E+01  0.40164098817E+02  0.47000000000E+01 0. -1.
         -5    1    4    4    0  503  0.89602424809E+02 -0.10670068767E+03  0.11800811980E+03  0.18265168387E+03  0.47000000000E+01 0.  1.
<mgrwt>
<rscale>  0 0.19531774E+03</rscale>
<asrwt>0</asrwt>
<pdfrwt beam="1">  1        1 0.19150491E-01 0.19583282E+03</pdfrwt>
<pdfrwt beam="2">  1       -1 0.47271782E-01 0.19583282E+03</pdfrwt>
<totfact> 0.12235353E+03</totfact>
</mgrwt>
</event>
<event>
 8    1  0.7366917E-004  0.9973955E+02  0.7546771E-02  0.1280877E+00
          1   -1    0    0  501    0  0.00000000000E+00  0.00000000000E+00  0.40205260658E+02  0.40205260658E+02  0.00000000000E+00 0. -1.
         -1   -1    0    0    0  501 -0.00000000000E+00 -0.00000000000E+00 -0.24857812667E+03  0.24857812667E+03  0.00000000000E+00 0.  1.
         23    2    1    2    0    0 -0.41439665300E+02  0.35733424328E+01 -0.93771984698E+02  0.13689836615E+03  0.90652980665E+02 0.  0.
         23    2    1    2    0    0  0.41439665300E+02 -0.35733424328E+01 -0.11460088132E+03  0.15188502118E+03  0.90585225203E+02 0.  0.
          5    1    3    3  502    0  0.11497997066E+02 -0.32752301700E+02 -0.27766999750E+02  0.44699144044E+02  0.47000000000E+01 0. -1.
         -5    1    4    4    0  503 -0.10132124949E+02  0.24552780450E+02 -0.77954213441E+02  0.82489080350E+02  0.47000000000E+01 0.  1.
          5    1    4    4  503    0  0.51571790248E+02 -0.28126122883E+02 -0.36646667877E+02  0.69395940834E+02  0.47000000000E+01 0. -1.
         -5    1    3    3    0  502 -0.52937662365E+02  0.36325644133E+02 -0.66004984948E+02  0.92199222103E+02  0.47000000000E+01 0.  1.
<mgrwt>
<rscale>  0 0.99724150E+02</rscale>
<asrwt>0</asrwt>
<pdfrwt beam="1">  1        1 0.61854248E-02 0.99739549E+02</pdfrwt>
<pdfrwt beam="2">  1       -1 0.38242788E-01 0.99739549E+02</pdfrwt>
<totfact> 0.76320205E+03</totfact>
</mgrwt>
</event>
<event>
 8    1  0.7366917E-004  0.9999508E+02  0.7546771E-02  0.1281508E+00
         -3   -1    0    0    0  501 -0.00000000000E+00  0.00000000000E+00  0.33471892486E+02  0.33471892486E+02  0.00000000000E+00 0.  1.
          3   -1    0    0  501    0  0.00000000000E+00 -0.00000000000E+00 -0.29301681317E+03  0.29301681317E+03  0.00000000000E+00 0. -1.
         23    2    1    2    0    0 -0.26380781474E+02  0.25319146558E+02 -0.12172976630E+03  0.15753460698E+03  0.93069928436E+02 0.  0.
         23    2    1    2    0    0  0.26380781474E+02 -0.25319146558E+02 -0.13781515439E+03  0.16895409868E+03  0.90639207126E+02 0.  0.
          5    1    4    4  502    0 -0.16691525660E+02 -0.40929009123E+02 -0.99747024712E+02  0.10920324975E+03  0.47000000000E+01 0. -1.
         -5    1    3    3    0  503  0.16774644070E+02 -0.14918185344E+02 -0.84619496686E+02  0.87672630604E+02  0.47000000000E+01 0.  1.
          5    1    3    3  503    0 -0.43155425544E+02  0.40237331902E+02 -0.37110269618E+02  0.69861976379E+02  0.47000000000E+01 0. -1.
         -5    1    4    4    0  502  0.43072307134E+02  0.15609862564E+02 -0.38068129673E+02  0.59750848930E+02  0.47000000000E+01 0.  1.
<mgrwt>
<rscale>  0 0.99425651E+02</rscale>
<asrwt>0</asrwt>
<pdfrwt beam="1">  1        3 0.45079510E-01 0.99995082E+02</pdfrwt>
<pdfrwt beam="2">  1       -3 0.51495219E-02 0.99995082E+02</pdfrwt>
<totfact> 0.23108359E+03</totfact>
</mgrwt>
</event>
<event>
 8    1  0.7366917E-004  0.1014856E+03  0.7546771E-02  0.1278924E+00
          2   -1    0    0  501    0  0.00000000000E+00  0.00000000000E+00  0.61674398884E+03  0.61674398884E+03  0.00000000000E+00 0. -1.
         -2   -1    0    0    0  501 -0.00000000000E+00 -0.00000000000E+00 -0.16296386213E+02  0.16296386213E+02  0.00000000000E+00 0.  1.
         23    2    1    2    0    0  0.28532503859E+02  0.35116558739E+02  0.27659986817E+03  0.29462996958E+03  0.90840824686E+02 0.  0.
         23    2    1    2    0    0 -0.28532503859E+02 -0.35116558739E+02  0.32384773446E+03  0.33841040547E+03  0.87160604317E+02 0.  0.
          5    1    4    4  502    0 -0.45384332671E+02 -0.54531028125E+02  0.21425501489E+03  0.22574470556E+03  0.47000000000E+01 0. -1.
         -5    1    3    3    0  503  0.48735729052E+02  0.37312924446E+02  0.10460044291E+03  0.12137037643E+03  0.47000000000E+01 0.  1.
          5    1    3    3  503    0 -0.20203225193E+02 -0.21963657073E+01  0.17199942525E+03  0.17325959315E+03  0.47000000000E+01 0. -1.
         -5    1    4    4    0  502  0.16851828812E+02  0.19414469387E+02  0.10959271956E+03  0.11266569991E+03  0.47000000000E+01 0.  1.
<mgrwt>
<rscale>  0 0.10065537E+03</rscale>
<asrwt>0</asrwt>
<pdfrwt beam="1">  1        2 0.94883673E-01 0.10148562E+03</pdfrwt>
<pdfrwt beam="2">  1       -2 0.25071368E-02 0.10148562E+03</pdfrwt>
<totfact> 0.24733271E+04</totfact>
</mgrwt>
</event>
<event>
 8    1  0.7366917E-004  0.1150125E+03  0.7546771E-02  0.1252148E+00
          1   -1    0    0  501    0  0.00000000000E+00  0.00000000000E+00  0.11244903291E+03  0.11244903291E+03  0.00000000000E+00 0. -1.
         -1   -1    0    0    0  501 -0.00000000000E+00 -0.00000000000E+00 -0.21379871558E+03  0.21379871558E+03  0.00000000000E+00 0.  1.
         23    2    1    2    0    0  0.46670041342E+02 -0.49478411838E+02 -0.16101100893E+03  0.19786972562E+03  0.92745228021E+02 0.  0.
         23    2    1    2    0    0 -0.46670041342E+02  0.49478411838E+02  0.59661326261E+02  0.12837802288E+03  0.91078191191E+02 0.  0.
          5    1    4    4  502    0 -0.23989767193E+02  0.44305730023E+02  0.81627557146E+02  0.96039860102E+02  0.47000000000E+01 0. -1.
         -5    1    3    3    0  503  0.52996531224E+01 -0.66307439234E+02 -0.11880482257E+03  0.13624037099E+03  0.47000000000E+01 0.  1.
          5    1    3    3  503    0  0.41370388220E+02  0.16829027396E+02 -0.42206186366E+02  0.61629354630E+02  0.47000000000E+01 0. -1.
         -5    1    4    4    0  502 -0.22680274149E+02  0.51726818152E+01 -0.21966230884E+02  0.32338162779E+02  0.47000000000E+01 0.  1.
<mgrwt>
<rscale>  0 0.11467606E+03</rscale>
<asrwt>0</asrwt>
<pdfrwt beam="1">  1        1 0.17299851E-01 0.11501254E+03</pdfrwt>
<pdfrwt beam="2">  1       -1 0.32892110E-01 0.11501254E+03</pdfrwt>
<totfact> 0.25848136E+03</totfact>
</mgrwt>
</event>
<event>
 8    1  0.7366917E-004  0.9384134E+02  0.7546771E-02  0.1296200E+00
         -2   -1    0    0    0  501 -0.00000000000E+00  0.00000000000E+00  0.35679179657E+02  0.35679179657E+02  0.00000000000E+00 0.  1.
          2   -1    0    0  501    0  0.00000000000E+00 -0.00000000000E+00 -0.31634690746E+03  0.31634690746E+03  0.00000000000E+00 0. -1.
         23    2    1    2    0    0  0.59720937725E+01 -0.20538826644E+02 -0.22658347593E+03  0.24371494763E+03  0.87174507914E+02 0.  0.
         23    2    1    2    0    0 -0.59720937725E+01  0.20538826644E+02 -0.54084251872E+02  0.10831113949E+03  0.91371151533E+02 0.  0.
          5    1    4    4  502    0 -0.25065949026E+02 -0.39976579416E+00 -0.70677173971E+02  0.75138635427E+02  0.47000000000E+01 0. -1.
         -5    1    3    3    0  503 -0.35022790670E+02 -0.18939237614E+02 -0.16330504898E+03  0.16815445165E+03  0.47000000000E+01 0. -1.
          5    1    3    3  503    0  0.40994884442E+02 -0.15995890303E+01 -0.63278426957E+02  0.75560495986E+02  0.47000000000E+01 0.  1.
         -5    1    4    4    0  502  0.19093855253E+02  0.20938592439E+02  0.16592922100E+02  0.33172504059E+02  0.47000000000E+01 0.  1.
<mgrwt>
<rscale>  0 0.92803994E+02</rscale>
<asrwt>0</asrwt>
<pdfrwt beam="1">  1        2 0.48668757E-01 0.93841338E+02</pdfrwt>
<pdfrwt beam="2">  1       -2 0.54891044E-02 0.93841338E+02</pdfrwt>
<totfact> 0.15887848E+04</totfact>
</mgrwt>
</event>
<event>
 8    1  0.7366917E-004  0.1100775E+03  0.7546771E-02  0.1261480E+00
         -1   -1    0    0    0  501 -0.00000000000E+00  0.00000000000E+00  0.16674512778E+03  0.16674512778E+03  0.00000000000E+00 0.  1.
          1   -1    0    0  501    0  0.00000000000E+00 -0.00000000000E+00 -0.72203376677E+02  0.72203376677E+02  0.00000000000E+00 0. -1.
         23    2    1    2    0    0  0.52719954530E+02  0.31091667133E+02  0.61913877445E+02  0.12629482674E+03  0.91493003396E+02 0.  0.
         23    2    1    2    0    0 -0.52719954530E+02 -0.31091667133E+02  0.32627873654E+02  0.11265367771E+03  0.88770420706E+02 0.  0.
          5    1    3    3  502    0  0.48666180779E+02 -0.23478220868E+02  0.22627077502E+02  0.58768177129E+02  0.47000000000E+01 0. -1.
         -5    1    4    4    0  503 -0.23950874077E+02 -0.30109137818E+02 -0.26342912271E+02  0.46864096877E+02  0.47000000000E+01 0.  1.
          5    1    4    4  503    0 -0.28769080454E+02 -0.98252931530E+00  0.58970785925E+02  0.65789580836E+02  0.47000000000E+01 0. -1.
         -5    1    3    3    0  502  0.40537737512E+01  0.54569888001E+02  0.39286799943E+02  0.67526649612E+02  0.47000000000E+01 0.  1.
<mgrwt>
<rscale>  0 0.10951005E+03</rscale>
<asrwt>0</asrwt>
<pdfrwt beam="1">  1        1 0.11108212E-01 0.11007750E+03</pdfrwt>
<pdfrwt beam="2">  1       -1 0.25653097E-01 0.11007750E+03</pdfrwt>
<totfact> 0.69155099E+03</totfact>
</mgrwt>
</event>
<event>
 8    1  0.7366917E-004  0.9357746E+02  0.7546771E-02  0.1297815E+00
         -2   -1    0    0    0  501 -0.00000000000E+00  0.00000000000E+00  0.47755571334E+02  0.47755571334E+02  0.00000000000E+00 0.  1.
          2   -1    0    0  501    0  0.00000000000E+00 -0.00000000000E+00 -0.17608230582E+03  0.17608230582E+03  0.00000000000E+00 0. -1.
         23    2    1    2    0    0 -0.16447302802E+02  0.12846415932E+02 -0.45833063007E+02  0.99090342799E+02  0.85338632516E+02 0.  0.
         23    2    1    2    0    0  0.16447302802E+02 -0.12846415932E+02 -0.82493671479E+02  0.12474753436E+03  0.91220597027E+02 0.  0.
          5    1    4    4  502    0 -0.26613003176E+02 -0.30642373133E+02 -0.60517278539E+02  0.73018066059E+02  0.47000000000E+01 0. -1.
         -5    1    3    3    0  503  0.31314937750E+02 -0.69412289740E+01 -0.44904219664E+01  0.32727051126E+02  0.47000000000E+01 0.  1.
          5    1    3    3  503    0 -0.47762240552E+02  0.19787644906E+02 -0.41342641040E+02  0.66363291673E+02  0.47000000000E+01 0. -1.
         -5    1    4    4    0  502  0.43060305978E+02  0.17795957201E+02 -0.21976392940E+02  0.51729468297E+02  0.47000000000E+01 0.  1.
<mgrwt>
<rscale>  0 0.92112408E+02</rscale>
<asrwt>0</asrwt>
<pdfrwt beam="1">  1        2 0.27089585E-01 0.93577463E+02</pdfrwt>
<pdfrwt beam="2">  1       -2 0.73470111E-02 0.93577463E+02</pdfrwt>
<totfact> 0.19025545E+04</totfact>
</mgrwt>
</event>
<event>
 8    1  0.7366917E-004  0.1137548E+03  0.7546771E-02  0.1255560E+00
          4   -1    0    0  501    0  0.00000000000E+00  0.00000000000E+00  0.90701127321E+02  0.90701127321E+02  0.00000000000E+00 0. -1.
         -4   -1    0    0    0  501 -0.00000000000E+00 -0.00000000000E+00 -0.13831773725E+03  0.13831773725E+03  0.00000000000E+00 0.  1.
         23    2    1    2    0    0  0.47874130274E+02 -0.45841346475E+02 -0.30801066181E+02  0.11402788450E+03  0.87523090495E+02 0.  0.
         23    2    1    2    0    0 -0.47874130274E+02  0.45841346475E+02 -0.16815543752E+02  0.11499098007E+03  0.92448913408E+02 0.  0.
          5    1    4    4  502    0 -0.63034742514E+02  0.31223576203E+02  0.19144170472E+02  0.73053950871E+02  0.47000000000E+01 0. -1.
         -5    1    3    3    0  503  0.19197004022E+02 -0.67758159631E+02 -0.78947185963E+01  0.71021896213E+02  0.47000000000E+01 0.  1.
          5    1    3    3  503    0  0.28677126252E+02  0.21916813156E+02 -0.22906347584E+02  0.43005988288E+02  0.47000000000E+01 0. -1.
         -5    1    4    4    0  502  0.15160612240E+02  0.14617770272E+02 -0.35959714225E+02  0.41937029203E+02  0.47000000000E+01 0.  1.
<mgrwt>
<rscale>  0 0.11275018E+03</rscale>
<asrwt>0</asrwt>
<pdfrwt beam="1">  1        4 0.13954020E-01 0.11375484E+03</pdfrwt>
<pdfrwt beam="2">  1       -4 0.21279652E-01 0.11375484E+03</pdfrwt>
<totfact> 0.13649116E+03</totfact>
</mgrwt>
</event>
<event>
 7    1  0.7366917E-004  0.1616966E+03  0.7546771E-02  0.1205178E+00
         -1   -1    0    0    0  501 -0.00000000000E+00  0.00000000000E+00  0.20279420227E+03  0.20279420227E+03  0.00000000000E+00 0.  1.
          1   -1    0    0  501    0  0.00000000000E+00 -0.00000000000E+00 -0.27471891605E+03  0.27471891605E+03  0.00000000000E+00 0. -1.
         23    2    1    2    0    0 -0.40957138144E+02  0.37565329407E+02  0.16100193283E+03  0.19396312319E+03  0.92797789012E+02 0.  0.
          5    1    1    2  502    0  0.63620819833E+02 -0.85410029811E+02 -0.13382464174E+03  0.17109531450E+03  0.47000000000E+01 0. -1.
         -5    1    3    3    0  503 -0.15563943417E+02 -0.26208024950E+02  0.89805026977E+02  0.94953303138E+02  0.47000000000E+01 0.  1.
          5    1    3    3  503    0 -0.25393194727E+02  0.63773354357E+02  0.71196905854E+02  0.99009820056E+02  0.47000000000E+01 0. -1.
         -5    1    1    2    0  502 -0.22663681689E+02  0.47844700404E+02 -0.99102004869E+02  0.11245468062E+03  0.47000000000E+01 0.  1.
<mgrwt>
<rscale>  0 0.14623426E+03</rscale>
<asrwt>0</asrwt>
<pdfrwt beam="1">  1        1 0.42264449E-01 0.16169656E+03</pdfrwt>
<pdfrwt beam="2">  1       -1 0.31199108E-01 0.16169656E+03</pdfrwt>
<totfact> 0.93280009E+02</totfact>
</mgrwt>
</event>
<event>
 8    1  0.7366917E-004  0.9554315E+02  0.7546771E-02  0.1291115E+00
          2   -1    0    0  501    0  0.00000000000E+00  0.00000000000E+00  0.11327938305E+04  0.11327938305E+04  0.00000000000E+00 0. -1.
         -2   -1    0    0    0  501 -0.00000000000E+00 -0.00000000000E+00 -0.10165805079E+02  0.10165805079E+02  0.00000000000E+00 0.  1.
         23    2    1    2    0    0 -0.11295942688E+02  0.35441022006E+02  0.83660899808E+03  0.84204697551E+03  0.88004709718E+02 0.  0.
         23    2    1    2    0    0  0.11295942688E+02 -0.35441022006E+02  0.28601902731E+03  0.30091266004E+03  0.85778089431E+02 0.  0.
          5    1    3    3  502    0 -0.32616387060E+02  0.56368870957E+02  0.56740948813E+03  0.57115400335E+03  0.47000000000E+01 0. -1.
         -5    1    4    4    0  503  0.22987398982E+02 -0.59870637759E+02  0.17200973531E+03  0.18363646920E+03  0.47000000000E+01 0.  1.
          5    1    4    4  503    0 -0.11691456295E+02  0.24429615753E+02  0.11400929200E+03  0.11727619084E+03  0.47000000000E+01 0. -1.
         -5    1    3    3    0  502  0.21320444372E+02 -0.20927848951E+02  0.26919950995E+03  0.27089297216E+03  0.47000000000E+01 0.  1.
<mgrwt>
<rscale>  0 0.95027256E+02</rscale>
<asrwt>0</asrwt>
<pdfrwt beam="1">  1        2 0.17427587E+00 0.95543149E+02</pdfrwt>
<pdfrwt beam="2">  1       -2 0.15639709E-02 0.95543149E+02</pdfrwt>
<totfact> 0.22525198E+04</totfact>
</mgrwt>
</event>
<event>
 8    1  0.7366917E-004  0.1779552E+03  0.7546771E-02  0.1169840E+00
         -1   -1    0    0    0  501 -0.00000000000E+00  0.00000000000E+00  0.30336071893E+02  0.30336071893E+02  0.00000000000E+00 0.  1.
          1   -1    0    0  501    0  0.00000000000E+00 -0.00000000000E+00 -0.11038489870E+04  0.11038489870E+04  0.00000000000E+00 0. -1.
         23    2    1    2    0    0  0.12773764795E+02  0.15226777779E+03 -0.40372575435E+03  0.44120579081E+03  0.91210854033E+02 0.  0.
         23    2    1    2    0    0 -0.12773764795E+02 -0.15226777779E+03 -0.66978716076E+03  0.69297926810E+03  0.90866825987E+02 0.  0.
          5    1    4    4  502    0 -0.33660721135E+02 -0.14297248033E+03 -0.62944036443E+03  0.64636788027E+03  0.47000000000E+01 0. -1.
         -5    1    4    4    0  502  0.20886956340E+02 -0.92952974683E+01 -0.40346796337E+02  0.46611387823E+02  0.47000000000E+01 0.  1.
          5    1    3    3  503    0 -0.38761446591E+02  0.70949273440E+02 -0.20222977318E+03  0.21784219129E+03  0.47000000000E+01 0. -1.
         -5    1    3    3    0  503  0.51535211386E+02  0.81318504354E+02 -0.20149598117E+03  0.22336359952E+03  0.47000000000E+01 0.  1.
<mgrwt>
<rscale>  0 0.17791120E+03</rscale>
<asrwt>0</asrwt>
<pdfrwt beam="1">  1        1 0.16982294E+00 0.17795523E+03</pdfrwt>
<pdfrwt beam="2">  1       -1 0.46670874E-02 0.17795523E+03</pdfrwt>
<totfact> 0.26011266E+03</totfact>
</mgrwt>
</event>
<event>
 8    1  0.7366917E-004  0.9268064E+02  0.7546771E-02  0.1297055E+00
          1   -1    0    0  501    0  0.00000000000E+00  0.00000000000E+00  0.44844742193E+03  0.44844742193E+03  0.00000000000E+00 0. -1.
         -1   -1    0    0    0  501 -0.00000000000E+00 -0.00000000000E+00 -0.30825580612E+02  0.30825580612E+02  0.00000000000E+00 0.  1.
         23    2    1    2    0    0  0.68912660076E+01 -0.14819450349E+02  0.35684593650E+03  0.36844244999E+03  0.90242511619E+02 0.  0.
         23    2    1    2    0    0 -0.68912660076E+01  0.14819450349E+02  0.60775904819E+02  0.11083055255E+03  0.91228258321E+02 0.  0.
          5    1    3    3  502    0  0.14075339809E+02 -0.51725124591E+02  0.20702330161E+03  0.21390264401E+03  0.47000000000E+01 0. -1.
         -5    1    3    3    0  502 -0.71840738015E+01  0.36905674241E+02  0.14982263489E+03  0.15453980598E+03  0.47000000000E+01 0.  1.
          5    1    4    4  503    0  0.33035793838E+02 -0.34355458453E+01  0.57482814564E+02  0.66554718991E+02  0.47000000000E+01 0. -1.
         -5    1    4    4    0  503 -0.39927059846E+02  0.18254996195E+02  0.32930902552E+01  0.44275833560E+02  0.47000000000E+01 0.  1.
<mgrwt>
<rscale>  0 0.92437147E+02</rscale>
<asrwt>0</asrwt>
<pdfrwt beam="1">  1        1 0.68991906E-01 0.92680639E+02</pdfrwt>
<pdfrwt beam="2">  1       -1 0.47423973E-02 0.92680639E+02</pdfrwt>
<totfact> 0.91976740E+03</totfact>
</mgrwt>
</event>
<event>
 8    1  0.7366917E-004  0.1185383E+03  0.7546771E-02  0.1251026E+00
          1   -1    0    0  501    0  0.00000000000E+00  0.00000000000E+00  0.45170641293E+03  0.45170641293E+03  0.00000000000E+00 0. -1.
         -1   -1    0    0    0  501 -0.00000000000E+00 -0.00000000000E+00 -0.29724723605E+02  0.29724723605E+02  0.00000000000E+00 0.  1.
         23    2    1    2    0    0 -0.45193866263E+02  0.34813065802E+02  0.14129491105E+03  0.17674046204E+03  0.89546099495E+02 0.  0.
         23    2    1    2    0    0  0.45193866263E+02 -0.34813065802E+02  0.28068677827E+03  0.30469067449E+03  0.10390815429E+03 0.  0.
          5    1    4    4  502    0  0.17683674216E+02 -0.30722100180E+02  0.27316837835E+03  0.27549884338E+03  0.47000000000E+01 0. -1.
         -5    1    4    4    0  502  0.27510192047E+02 -0.40909656222E+01  0.75183999166E+01  0.29191831109E+02  0.47000000000E+01 0.  1.
          5    1    3    3  503    0 -0.28480526497E+02 -0.12701707864E+02  0.57412669775E+01  0.32055045137E+02  0.47000000000E+01 0. -1.
         -5    1    3    3    0  503 -0.16713339766E+02  0.47514773666E+02  0.13555364408E+03  0.14468541691E+03  0.47000000000E+01 0.  1.
<mgrwt>
<rscale>  0 0.11531845E+03</rscale>
<asrwt>0</asrwt>
<pdfrwt beam="1">  1        1 0.69493289E-01 0.11853835E+03</pdfrwt>
<pdfrwt beam="2">  1       -1 0.45730347E-02 0.11853835E+03</pdfrwt>
<totfact> 0.97960710E+03</totfact>
</mgrwt>
</event>
<event>
 8    1  0.7366917E-004  0.9323907E+02  0.7546771E-02  0.1295555E+00
          2   -1    0    0  501    0  0.00000000000E+00  0.00000000000E+00  0.73443689457E+03  0.73443689457E+03  0.00000000000E+00 0. -1.
         -2   -1    0    0    0  501 -0.00000000000E+00 -0.00000000000E+00 -0.11765051753E+02  0.11765051753E+02  0.00000000000E+00 0.  1.
         23    2    1    2    0    0 -0.52485774243E+01  0.15739087727E+02  0.36945458094E+03  0.38088570327E+03  0.91115120212E+02 0.  0.
         23    2    1    2    0    0  0.52485774243E+01 -0.15739087727E+02  0.35321726188E+03  0.36531624305E+03  0.91751059408E+02 0.  0.
          5    1    3    3  502    0  0.17887139335E+02  0.34688714838E+02  0.32334934389E+03  0.32573017189E+03  0.47000000000E+01 0. -1.
         -5    1    3    3    0  502 -0.23135716759E+02 -0.18949627111E+02  0.46105237051E+02  0.55155531374E+02  0.47000000000E+01 0.  1.
          5    1    4    4  503    0  0.42915613118E+02  0.10921121011E+02  0.13269153898E+03  0.13996483576E+03  0.47000000000E+01 0. -1.
         -5    1    4    4    0  503 -0.37667035693E+02 -0.26660208737E+02  0.22052572290E+03  0.22535140729E+03  0.47000000000E+01 0.  1.
<mgrwt>
<rscale>  0 0.93082240E+02</rscale>
<asrwt>0</asrwt>
<pdfrwt beam="1">  1        2 0.11299026E+00 0.93239066E+02</pdfrwt>
<pdfrwt beam="2">  1       -2 0.18100085E-02 0.93239066E+02</pdfrwt>
<totfact> 0.32045130E+04</totfact>
</mgrwt>
</event>
<event>
 8    1  0.7366917E-004  0.9986058E+02  0.7546771E-02  0.1280984E+00
         -1   -1    0    0    0  501 -0.00000000000E+00  0.00000000000E+00  0.22691152735E+02  0.22691152735E+02  0.00000000000E+00 0.  1.
          1   -1    0    0  501    0  0.00000000000E+00 -0.00000000000E+00 -0.64584419497E+03  0.64584419497E+03  0.00000000000E+00 0. -1.
         23    2    1    2    0    0  0.35484981969E+02  0.92766774271E+01 -0.50281112975E+03  0.51263161016E+03  0.92881079019E+02 0.  0.
         23    2    1    2    0    0 -0.35484981969E+02 -0.92766774271E+01 -0.12034191248E+03  0.15590373755E+03  0.92079089874E+02 0.  0.
          5    1    4    4  502    0 -0.21959059298E+02  0.38324020493E+02 -0.81505682763E+02  0.92823473080E+02  0.47000000000E+01 0. -1.
         -5    1    4    4    0  502 -0.13525922671E+02 -0.47600697920E+02 -0.38836229721E+02  0.63080264469E+02  0.47000000000E+01 0.  1.
          5    1    3    3  503    0  0.61829150501E+02  0.82880270508E+01 -0.43891729990E+03  0.44335315652E+03  0.47000000000E+01 0. -1.
         -5    1    3    3    0  503 -0.26344168532E+02  0.98865037637E+00 -0.63893829850E+02  0.69278453635E+02  0.47000000000E+01 0.  1.
<mgrwt>
<rscale>  0 0.99673682E+02</rscale>
<asrwt>0</asrwt>
<pdfrwt beam="1">  1        1 0.99360654E-01 0.99860580E+02</pdfrwt>
<pdfrwt beam="2">  1       -1 0.34909463E-02 0.99860580E+02</pdfrwt>
<totfact> 0.89561700E+03</totfact>
</mgrwt>
</event>
<event>
 8    1  0.7366917E-004  0.9389919E+02  0.7546771E-02  0.1295007E+00
          4   -1    0    0  501    0  0.00000000000E+00  0.00000000000E+00  0.41569421031E+03  0.41569421031E+03  0.00000000000E+00 0. -1.
         -4   -1    0    0    0  501 -0.00000000000E+00 -0.00000000000E+00 -0.27844845931E+02  0.27844845931E+02  0.00000000000E+00 0.  1.
         23    2    1    2    0    0  0.13699751602E+01  0.58676722290E+01  0.30451404900E+03  0.31799291896E+03  0.91402319755E+02 0.  0.
         23    2    1    2    0    0 -0.13699751602E+01 -0.58676722290E+01  0.83335315373E+02  0.12554613728E+03  0.93705663589E+02 0.  0.
          5    1    3    3  502    0 -0.30564968825E+02 -0.15690156223E+02  0.24154520794E+03  0.24402167076E+03  0.47000000000E+01 0. -1.
         -5    1    3    3    0  502  0.31934943986E+02  0.21557828452E+02  0.62968841065E+02  0.73971248198E+02  0.47000000000E+01 0.  1.
          5    1    4    4  503    0  0.56240594630E+01 -0.44008557512E+02  0.15429291359E+02  0.47207374540E+02  0.47000000000E+01 0. -1.
         -5    1    4    4    0  503 -0.69940346231E+01  0.38140885283E+02  0.67906024014E+02  0.78338762742E+02  0.47000000000E+01 0.  1.
<mgrwt>
<rscale>  0 0.93319219E+02</rscale>
<asrwt>0</asrwt>
<pdfrwt beam="1">  1        4 0.63952951E-01 0.93899190E+02</pdfrwt>
<pdfrwt beam="2">  1       -4 0.42838227E-02 0.93899190E+02</pdfrwt>
<totfact> 0.10774333E+03</totfact>
</mgrwt>
</event>
<event>
 8    1  0.7366917E-004  0.1495932E+03  0.7546771E-02  0.1201252E+00
         -2   -1    0    0    0  501 -0.00000000000E+00  0.00000000000E+00  0.14602814554E+03  0.14602814554E+03  0.00000000000E+00 0.  1.
          2   -1    0    0  501    0  0.00000000000E+00 -0.00000000000E+00 -0.18252706974E+03  0.18252706974E+03  0.00000000000E+00 0. -1.
         23    2    1    2    0    0  0.44952619453E+02 -0.10800612300E+03 -0.85026024686E+02  0.17128792111E+03  0.91782713203E+02 0.  0.
         23    2    1    2    0    0 -0.44952619453E+02  0.10800612300E+03  0.48527100487E+02  0.15726729418E+03  0.93231227257E+02 0.  0.
          5    1    4    4  502    0 -0.22010270636E+02  0.33140690383E+01 -0.19730967478E+02  0.30113720206E+02  0.47000000000E+01 0. -1.
         -5    1    4    4    0  502 -0.22942348818E+02  0.10469205396E+03  0.68258067965E+02  0.12715357397E+03  0.47000000000E+01 0.  1.
          5    1    3    3  503    0  0.93094862155E+01 -0.42628954881E+02 -0.86133550922E+02  0.96669400134E+02  0.47000000000E+01 0. -1.
         -5    1    3    3    0  503  0.35643133238E+02 -0.65377168118E+02  0.11075262357E+01  0.74618520975E+02  0.47000000000E+01 0.  1.
<mgrwt>
<rscale>  0 0.14936807E+03</rscale>
<asrwt>0</asrwt>
<pdfrwt beam="1">  1        2 0.28081088E-01 0.14959319E+03</pdfrwt>
<pdfrwt beam="2">  1       -2 0.22465869E-01 0.14959319E+03</pdfrwt>
<totfact> 0.31418977E+03</totfact>
</mgrwt>
</event>
<event>
 8    1  0.7366917E-004  0.1296515E+03  0.7546771E-02  0.1228717E+00
          1   -1    0    0  501    0  0.00000000000E+00  0.00000000000E+00  0.17763669459E+03  0.17763669459E+03  0.00000000000E+00 0. -1.
         -1   -1    0    0    0  501 -0.00000000000E+00 -0.00000000000E+00 -0.12815233687E+03  0.12815233687E+03  0.00000000000E+00 0.  1.
         23    2    1    2    0    0 -0.86096307604E+02 -0.27938859337E+02 -0.55256564602E+02  0.13911517588E+03  0.90036604695E+02 0.  0.
         23    2    1    2    0    0  0.86096307604E+02  0.27938859337E+02  0.10474092232E+03  0.16667385558E+03  0.92824346390E+02 0.  0.
          5    1    4    4  502    0  0.60523099969E+02  0.46370817975E+02  0.11045177426E+03  0.13429438867E+03  0.47000000000E+01 0. -1.
         -5    1    3    3    0  503 -0.83652154600E+02 -0.53112645530E+02 -0.54918745989E+02  0.11338780686E+03  0.47000000000E+01 0.  1.
          5    1    3    3  503    0 -0.24441530036E+01  0.25173786193E+02 -0.33781861307E+00  0.25727369018E+02  0.47000000000E+01 0. -1.
         -5    1    4    4    0  502  0.25573207635E+02 -0.18431958639E+02 -0.57108519420E+01  0.32379466918E+02  0.47000000000E+01 0.  1.
<mgrwt>
<rscale>  0 0.12915338E+03</rscale>
<asrwt>0</asrwt>
<pdfrwt beam="1">  1        1 0.27328722E-01 0.12965151E+03</pdfrwt>
<pdfrwt beam="2">  1       -1 0.19715744E-01 0.12965151E+03</pdfrwt>
<totfact> 0.33884458E+03</totfact>
</mgrwt>
</event>
<event>
 8    1  0.7366917E-004  0.1040871E+03  0.7546771E-02  0.1272085E+00
         -1   -1    0    0    0  501 -0.00000000000E+00  0.00000000000E+00  0.31999633104E+02  0.31999633104E+02  0.00000000000E+00 0.  1.
          1   -1    0    0  501    0  0.00000000000E+00 -0.00000000000E+00 -0.35177999901E+03  0.35177999901E+03  0.00000000000E+00 0. -1.
         23    2    1    2    0    0 -0.49781398983E+02 -0.75348039072E+01 -0.12153119484E+03  0.16001235339E+03  0.91099730869E+02 0.  0.
         23    2    1    2    0    0  0.49781398983E+02  0.75348039072E+01 -0.19824917107E+03  0.22376727873E+03  0.90741943135E+02 0.  0.
          5    1    4    4  502    0  0.58614824182E+02 -0.17093089586E+02 -0.18332340334E+03  0.19328070658E+03  0.47000000000E+01 0. -1.
         -5    1    3    3    0  503 -0.50136562689E+02  0.25345857645E+02 -0.32697040577E+02  0.65171112316E+02  0.47000000000E+01 0.  1.
          5    1    3    3  503    0  0.35516370621E+00 -0.32880661552E+02 -0.88834154261E+02  0.94841241075E+02  0.47000000000E+01 0. -1.
         -5    1    4    4    0  502 -0.88334251989E+01  0.24627893493E+02 -0.14925767731E+02  0.30486572143E+02  0.47000000000E+01 0.  1.
<mgrwt>
<rscale>  0 0.10400875E+03</rscale>
<asrwt>0</asrwt>
<pdfrwt beam="1">  1        1 0.54119996E-01 0.10408709E+03</pdfrwt>
<pdfrwt beam="2">  1       -1 0.49230209E-02 0.10408709E+03</pdfrwt>
<totfact> 0.11899457E+04</totfact>
</mgrwt>
</event>
<event>
 8    1  0.7366917E-004  0.9142645E+02  0.7546771E-02  0.1301838E+00
         -2   -1    0    0    0  501 -0.00000000000E+00  0.00000000000E+00  0.15864987016E+02  0.15864987016E+02  0.00000000000E+00 0.  1.
          2   -1    0    0  501    0  0.00000000000E+00 -0.00000000000E+00 -0.71917912515E+03  0.71917912515E+03  0.00000000000E+00 0. -1.
         23    2    1    2    0    0  0.39474271274E+01 -0.10885183550E+02 -0.55797415277E+03  0.56541484791E+03  0.90690273311E+02 0.  0.
         23    2    1    2    0    0 -0.39474271274E+01  0.10885183550E+02 -0.14533998536E+03  0.16962926425E+03  0.86696635141E+02 0.  0.
          5    1    3    3  502    0 -0.23523861143E+02  0.28469613468E+02 -0.14784375820E+03  0.15245903638E+03  0.47000000000E+01 0. -1.
         -5    1    4    4    0  503  0.14698937250E+02 -0.33890746857E+02 -0.78775432216E+02  0.87133806296E+02  0.47000000000E+01 0.  1.
          5    1    4    4  503    0 -0.18646364377E+02  0.44775930407E+02 -0.66564553143E+02  0.82495457957E+02  0.47000000000E+01 0. -1.
         -5    1    3    3    0  502  0.27471288270E+02 -0.39354797018E+02 -0.41013039457E+03  0.41295581153E+03  0.47000000000E+01 0.  1.
<mgrwt>
<rscale>  0 0.90419942E+02</rscale>
<asrwt>0</asrwt>
<pdfrwt beam="1">  1        2 0.11064295E+00 0.91426446E+02</pdfrwt>
<pdfrwt beam="2">  1       -2 0.24407671E-02 0.91426446E+02</pdfrwt>
<totfact> 0.21323158E+04</totfact>
</mgrwt>
</event>
<event>
 8    1  0.7366917E-004  0.9503322E+02  0.7546771E-02  0.1291198E+00
          2   -1    0    0  501    0  0.00000000000E+00  0.00000000000E+00  0.14711078522E+03  0.14711078522E+03  0.00000000000E+00 0. -1.
         -2   -1    0    0    0  501 -0.00000000000E+00 -0.00000000000E+00 -0.65101941493E+02  0.65101941493E+02  0.00000000000E+00 0.  1.
         23    2    1    2    0    0 -0.13875464848E+02  0.92061805941E+01  0.66746752013E+02  0.11613114402E+03  0.93562981043E+02 0.  0.
         23    2    1    2    0    0  0.13875464848E+02 -0.92061805941E+01  0.15262091713E+02  0.96081582689E+02  0.93388740235E+02 0.  0.
          5    1    3    3  502    0  0.19926226335E+02 -0.33825871981E+02  0.21724220255E+02  0.45114031707E+02  0.47000000000E+01 0. -1.
         -5    1    3    3    0  502 -0.33801691183E+02  0.43032052575E+02  0.45022531758E+02  0.71017112315E+02  0.47000000000E+01 0.  1.
          5    1    4    4  503    0  0.43246777879E+02  0.12170790364E+02 -0.16003214100E+02  0.47922904717E+02  0.47000000000E+01 0. -1.
         -5    1    4    4    0  503 -0.29371313030E+02 -0.21376970958E+02  0.31265305813E+02  0.48158677973E+02  0.47000000000E+01 0.  1.
<mgrwt>
<rscale>  0 0.94990310E+02</rscale>
<asrwt>0</asrwt>
<pdfrwt beam="1">  1        2 0.22632428E-01 0.95033224E+02</pdfrwt>
<pdfrwt beam="2">  1       -2 0.10015683E-01 0.95033224E+02</pdfrwt>
<totfact> 0.14397310E+04</totfact>
</mgrwt>
</event>
<event>
 8    1  0.7366917E-004  0.1355016E+03  0.7546771E-02  0.1219877E+00
          1   -1    0    0  501    0  0.00000000000E+00  0.00000000000E+00  0.78679402866E+03  0.78679402866E+03  0.00000000000E+00 0. -1.
         -1   -1    0    0    0  501 -0.00000000000E+00 -0.00000000000E+00 -0.23207045803E+02  0.23207045803E+02  0.00000000000E+00 0.  1.
         23    2    1    2    0    0  0.54520573381E+02 -0.83395045502E+02  0.40174886110E+03  0.42398447128E+03  0.91833860609E+02 0.  0.
         23    2    1    2    0    0 -0.54520573381E+02  0.83395045502E+02  0.36183812176E+03  0.38601660319E+03  0.90303737695E+02 0.  0.
          5    1    4    4  502    0 -0.31067549194E+02  0.36694359908E+02  0.30444414045E+03  0.30825313189E+03  0.47000000000E+01 0. -1.
         -5    1    4    4    0  502 -0.23453024186E+02  0.46700685594E+02  0.57393981305E+02  0.77763471299E+02  0.47000000000E+01 0.  1.
          5    1    3    3  503    0  0.77525421600E+02 -0.80006159463E+02  0.32048382211E+03  0.33932749193E+03  0.47000000000E+01 0. -1.
         -5    1    3    3    0  503 -0.23004848219E+02 -0.33888860396E+01  0.81265038992E+02  0.84656979349E+02  0.47000000000E+01 0.  1.
<mgrwt>
<rscale>  0 0.13524279E+03</rscale>
<asrwt>0</asrwt>
<pdfrwt beam="1">  1        1 0.12104521E+00 0.13550160E+03</pdfrwt>
<pdfrwt beam="2">  1       -1 0.35703153E-02 0.13550160E+03</pdfrwt>
<totfact> 0.66581331E+03</totfact>
</mgrwt>
</event>
<event>
 8    1  0.7366917E-004  0.1035620E+03  0.7546771E-02  0.1273505E+00
          3   -1    0    0  501    0  0.00000000000E+00  0.00000000000E+00  0.39919753621E+02  0.39919753621E+02  0.00000000000E+00 0. -1.
         -3   -1    0    0    0  501 -0.00000000000E+00 -0.00000000000E+00 -0.27384342367E+03  0.27384342367E+03  0.00000000000E+00 0.  1.
         23    2    1    2    0    0  0.84008292681E+01 -0.48467717146E+02 -0.14414195528E+03  0.17748802559E+03  0.91133980588E+02 0.  0.
         23    2    1    2    0    0 -0.84008292681E+01  0.48467717146E+02 -0.89781714769E+02  0.13627515170E+03  0.89947024001E+02 0.  0.
          5    1    3    3  502    0  0.22750285968E+02  0.20670976695E+02 -0.59697312642E+02  0.67310652395E+02  0.47000000000E+01 0. -1.
         -5    1    3    3    0  502 -0.14349456700E+02 -0.69138693841E+02 -0.84444642636E+02  0.11017737319E+03  0.47000000000E+01 0.  1.
          5    1    4    4  503    0 -0.18079255822E+01  0.74369461655E+02 -0.73202225495E+02  0.10447363897E+03  0.47000000000E+01 0. -1.
         -5    1    4    4    0  503 -0.65929036859E+01 -0.25901744508E+02 -0.16579489274E+02  0.31801512734E+02  0.47000000000E+01 0.  1.
<mgrwt>
<rscale>  0 0.10330031E+03</rscale>
<asrwt>0</asrwt>
<pdfrwt beam="1">  1        3 0.61415003E-02 0.10356204E+03</pdfrwt>
<pdfrwt beam="2">  1       -3 0.42129759E-01 0.10356204E+03</pdfrwt>
<totfact> 0.20072628E+03</totfact>
</mgrwt>
</event>
<event>
 8    1  0.7366917E-004  0.1188193E+03  0.7546771E-02  0.1247323E+00
          1   -1    0    0  501    0  0.00000000000E+00  0.00000000000E+00  0.68108701461E+03  0.68108701461E+03  0.00000000000E+00 0. -1.
         -1   -1    0    0    0  501 -0.00000000000E+00 -0.00000000000E+00 -0.21540741569E+02  0.21540741569E+02  0.00000000000E+00 0.  1.
         23    2    1    2    0    0  0.55740136831E+02  0.44461641298E+02  0.22347756561E+03  0.25066101461E+03  0.88345466847E+02 0.  0.
         23    2    1    2    0    0 -0.55740136831E+02 -0.44461641298E+02  0.43606870742E+03  0.45196674157E+03  0.95048500700E+02 0.  0.
          5    1    3    3  502    0  0.48563432288E+02  0.53564870589E+01  0.19612623859E+03  0.20217490046E+03  0.47000000000E+01 0.  1.
         -5    1    4    4    0  503 -0.17349391053E+02 -0.12971520844E+02  0.12452881050E+02  0.25424908444E+02  0.47000000000E+01 0.  1.
          5    1    4    4  503    0 -0.38390745778E+02 -0.31490120454E+02  0.42361582637E+03  0.42654183312E+03  0.47000000000E+01 0. -1.
         -5    1    3    3    0  502  0.71767045430E+01  0.39105154239E+02  0.27351327020E+02  0.48486114156E+02  0.47000000000E+01 0. -1.
<mgrwt>
<rscale>  0 0.11747390E+03</rscale>
<asrwt>0</asrwt>
<pdfrwt beam="1">  1        1 0.10478260E+00 0.11881927E+03</pdfrwt>
<pdfrwt beam="2">  1       -1 0.33139608E-02 0.11881927E+03</pdfrwt>
<totfact> 0.90789092E+03</totfact>
</mgrwt>
</event>
<event>
 8    1  0.7366917E-004  0.1132269E+03  0.7546771E-02  0.1255449E+00
          3   -1    0    0  501    0  0.00000000000E+00  0.00000000000E+00  0.26176306639E+03  0.26176306639E+03  0.00000000000E+00 0. -1.
         -3   -1    0    0    0  501 -0.00000000000E+00 -0.00000000000E+00 -0.23823761963E+03  0.23823761963E+03  0.00000000000E+00 0.  1.
         23    2    1    2    0    0 -0.38871429545E+02 -0.50985859689E+02 -0.21146242950E+03  0.23986805735E+03  0.93326201702E+02 0.  0.
         23    2    1    2    0    0  0.38871429545E+02  0.50985859689E+02  0.23498787626E+03  0.26013262868E+03  0.91318873136E+02 0.  0.
          5    1    3    3  502    0  0.23275021794E+02 -0.25122704100E+02 -0.28311141333E+02  0.44682072740E+02  0.47000000000E+01 0. -1.
         -5    1    4    4    0  503  0.17302033842E+02  0.53124535558E+02  0.54177627872E+02  0.77967185503E+02  0.47000000000E+01 0.  1.
          5    1    4    4  503    0  0.21569395703E+02 -0.21386758686E+01  0.18081024839E+03  0.18216544317E+03  0.47000000000E+01 0. -1.
         -5    1    3    3    0  502 -0.62146451339E+02 -0.25863155590E+02 -0.18315128816E+03  0.19518598461E+03  0.47000000000E+01 0.  1.
<mgrwt>
<rscale>  0 0.11281242E+03</rscale>
<asrwt>0</asrwt>
<pdfrwt beam="1">  1        3 0.40271241E-01 0.11322688E+03</pdfrwt>
<pdfrwt beam="2">  1       -3 0.36651942E-01 0.11322688E+03</pdfrwt>
<totfact> 0.10379480E+02</totfact>
</mgrwt>
</event>
<event>
 8    1  0.7366917E-004  0.1484393E+03  0.7546771E-02  0.1202463E+00
          1   -1    0    0  501    0  0.00000000000E+00  0.00000000000E+00  0.21210436044E+03  0.21210436044E+03  0.00000000000E+00 0. -1.
         -1   -1    0    0    0  501 -0.00000000000E+00 -0.00000000000E+00 -0.11007672016E+03  0.11007672016E+03  0.00000000000E+00 0.  1.
         23    2    1    2    0    0 -0.99561025633E+02  0.60883420688E+02  0.12364669578E+02  0.14876347412E+03  0.91424818503E+02 0.  0.
         23    2    1    2    0    0  0.99561025633E+02 -0.60883420688E+02  0.89662970705E+02  0.17341760648E+03  0.91733468173E+02 0.  0.
          5    1    4    4  502    0  0.62291707739E+02  0.88127031393E+01  0.64782490041E+02  0.90425558365E+02  0.47000000000E+01 0. -1.
         -5    1    4    4    0  502  0.37269317894E+02 -0.69696123827E+02  0.24880480664E+02  0.82992048118E+02  0.47000000000E+01 0.  1.
          5    1    3    3  503    0 -0.42668195530E+02  0.59051123424E+02  0.42200443551E+02  0.84324240426E+02  0.47000000000E+01 0. -1.
         -5    1    3    3    0  503 -0.56892830102E+02  0.18322972632E+01 -0.29835773973E+02  0.64439233693E+02  0.47000000000E+01 0.  1.
<mgrwt>
<rscale>  0 0.14839161E+03</rscale>
<asrwt>0</asrwt>
<pdfrwt beam="1">  1        1 0.32631440E-01 0.14843927E+03</pdfrwt>
<pdfrwt beam="2">  1       -1 0.16934880E-01 0.14843927E+03</pdfrwt>
<totfact> 0.34854756E+03</totfact>
</mgrwt>
</event>
<event>
 8    1  0.7366917E-004  0.1328081E+03  0.7546771E-02  0.1226095E+00
         -2   -1    0    0    0  501 -0.00000000000E+00  0.00000000000E+00  0.89490113898E+02  0.89490113898E+02  0.00000000000E+00 0.  1.
          2   -1    0    0  501    0  0.00000000000E+00 -0.00000000000E+00 -0.78578716728E+03  0.78578716728E+03  0.00000000000E+00 0. -1.
         23    2    1    2    0    0  0.80670704030E+02  0.28371977297E+02  0.36435796179E+02  0.13060593186E+03  0.91747537354E+02 0.  0.
         23    2    1    2    0    0 -0.80670704030E+02 -0.28371977297E+02 -0.73273284957E+03  0.74467134932E+03  0.10161327708E+03 0.  0.
          5    1    4    4  502    0 -0.22835272999E+02 -0.59722536770E+02 -0.43666124791E+03  0.44134268604E+03  0.47000000000E+01 0. -1.
         -5    1    3    3    0  503  0.44916069826E+02 -0.26246723238E+02  0.38871285965E+02  0.65110757037E+02  0.47000000000E+01 0.  1.
          5    1    3    3  503    0  0.35754634204E+02  0.54618700535E+02 -0.24354897863E+01  0.65495174828E+02  0.47000000000E+01 0. -1.
         -5    1    4    4    0  502 -0.57835431031E+02  0.31350559473E+02 -0.29607160165E+03  0.30332866328E+03  0.47000000000E+01 0.  1.
<mgrwt>
<rscale>  0 0.13092141E+03</rscale>
<asrwt>0</asrwt>
<pdfrwt beam="1">  1        2 0.12089033E+00 0.13280809E+03</pdfrwt>
<pdfrwt beam="2">  1       -2 0.13767710E-01 0.13280809E+03</pdfrwt>
<totfact> 0.14247454E+03</totfact>
</mgrwt>
</event>
<event>
 8    1  0.7366917E-004  0.1057897E+03  0.7546771E-02  0.1269190E+00
         -1   -1    0    0    0  501 -0.00000000000E+00  0.00000000000E+00  0.32274530651E+02  0.32274530651E+02  0.00000000000E+00 0.  1.
          1   -1    0    0  501    0  0.00000000000E+00 -0.00000000000E+00 -0.36480914821E+03  0.36480914821E+03  0.00000000000E+00 0. -1.
         23    2    1    2    0    0 -0.26006558410E+01  0.51518730844E+02 -0.21427115075E+03  0.23840885043E+03  0.90915955040E+02 0.  0.
         23    2    1    2    0    0  0.26006558410E+01 -0.51518730844E+02 -0.11826346681E+03  0.15867482844E+03  0.92360763087E+02 0.  0.
          5    1    3    3  502    0 -0.39516985112E+02  0.18626092663E+02 -0.48901567697E+02  0.65741742930E+02  0.47000000000E+01 0. -1.
         -5    1    4    4    0  503  0.53588019108E+00 -0.78055101856E+02 -0.80426908718E+02  0.11217603906E+03  0.47000000000E+01 0.  1.
          5    1    4    4  503    0  0.20647756500E+01  0.26536371012E+02 -0.37836558096E+02  0.46498789377E+02  0.47000000000E+01 0. -1.
         -5    1    3    3    0  502  0.36916329271E+02  0.32892638181E+02 -0.16536958305E+03  0.17266710750E+03  0.47000000000E+01 0.  1.
<mgrwt>
<rscale>  0 0.10547349E+03</rscale>
<asrwt>0</asrwt>
<pdfrwt beam="1">  1        1 0.56124484E-01 0.10578967E+03</pdfrwt>
<pdfrwt beam="2">  1       -1 0.49653124E-02 0.10578967E+03</pdfrwt>
<totfact> 0.11249023E+04</totfact>
</mgrwt>
</event>
<event>
 8    1  0.7366917E-004  0.1454907E+03  0.7546771E-02  0.1206551E+00
         -1   -1    0    0    0  501 -0.00000000000E+00  0.00000000000E+00  0.35675352615E+02  0.35675352615E+02  0.00000000000E+00 0.  1.
          1   -1    0    0  501    0  0.00000000000E+00 -0.00000000000E+00 -0.66007618354E+03  0.66007618354E+03  0.00000000000E+00 0. -1.
         23    2    1    2    0    0 -0.90381019888E+02 -0.65478501767E+02 -0.19848104309E+03  0.24609402874E+03  0.93334792913E+02 0.  0.
         23    2    1    2    0    0  0.90381019888E+02  0.65478501767E+02 -0.42591978784E+03  0.44965750741E+03  0.91258124845E+02 0.  0.
          5    1    4    4  502    0  0.66848878708E+02  0.63170253641E+01 -0.31093985238E+03  0.31814204248E+03  0.47000000000E+01 0. -1.
         -5    1    4    4    0  502  0.23532141180E+02  0.59161476403E+02 -0.11497993545E+03  0.13151546493E+03  0.47000000000E+01 0.  1.
          5    1    3    3  503    0 -0.46091487219E+02 -0.73794006614E+02 -0.17399539707E+03  0.19459308520E+03  0.47000000000E+01 0. -1.
         -5    1    3    3    0  503 -0.44289532669E+02  0.83155048467E+01 -0.24485646018E+02  0.51500943543E+02  0.47000000000E+01 0.  1.
<mgrwt>
<rscale>  0 0.14515872E+03</rscale>
<asrwt>0</asrwt>
<pdfrwt beam="1">  1        1 0.10155018E+00 0.14549071E+03</pdfrwt>
<pdfrwt beam="2">  1       -1 0.54885160E-02 0.14549071E+03</pdfrwt>
<totfact> 0.45692555E+03</totfact>
</mgrwt>
</event>
<event>
 8    1  0.7366917E-004  0.1651725E+03  0.7546771E-02  0.1187100E+00
         -1   -1    0    0    0  501 -0.00000000000E+00  0.00000000000E+00  0.21561457553E+02  0.21561457553E+02  0.00000000000E+00 0.  1.
          1   -1    0    0  501    0  0.00000000000E+00 -0.00000000000E+00 -0.11600438852E+04  0.11600438852E+04  0.00000000000E+00 0. -1.
         23    2    1    2    0    0  0.63257351953E+02 -0.99866545957E+02 -0.57488489035E+03  0.59430293059E+03  0.93426530395E+02 0.  0.
         23    2    1    2    0    0 -0.63257351953E+02  0.99866545957E+02 -0.56359753734E+03  0.58730241220E+03  0.11535648965E+03 0.  0.
          5    1    4    4  502    0 -0.34998382122E+02 -0.44975517056E+01 -0.30360074496E+03  0.30568058012E+03  0.47000000000E+01 0. -1.
         -5    1    4    4    0  502 -0.28258969831E+02  0.10436409766E+03 -0.25999679238E+03  0.28162183208E+03  0.47000000000E+01 0.  1.
          5    1    3    3  503    0 -0.12060647908E+02 -0.18573029521E+02 -0.26686725961E+02  0.34995542517E+02  0.47000000000E+01 0. -1.
         -5    1    3    3    0  503  0.75317999860E+02 -0.81293516436E+02 -0.54819816439E+03  0.55930738808E+03  0.47000000000E+01 0.  1.
<mgrwt>
<rscale>  0 0.16142263E+03</rscale>
<asrwt>0</asrwt>
<pdfrwt beam="1">  1        1 0.17846831E+00 0.16517245E+03</pdfrwt>
<pdfrwt beam="2">  1       -1 0.33171469E-02 0.16517245E+03</pdfrwt>
<totfact> 0.39250858E+03</totfact>
</mgrwt>
</event>
<event>
 8    1  0.7366917E-004  0.1773290E+03  0.7546771E-02  0.1170520E+00
          1   -1    0    0  501    0  0.00000000000E+00  0.00000000000E+00  0.63269380151E+03  0.63269380151E+03  0.00000000000E+00 0. -1.
         -1   -1    0    0    0  501 -0.00000000000E+00 -0.00000000000E+00 -0.65568622613E+02  0.65568622613E+02  0.00000000000E+00 0.  1.
         23    2    1    2    0    0  0.45493889618E+02 -0.14324589456E+03  0.45570416086E+03  0.48883414459E+03  0.93292327578E+02 0.  0.
         23    2    1    2    0    0 -0.45493889618E+02  0.14324589456E+03  0.11142101803E+03  0.20942827954E+03  0.94108876898E+02 0.  0.
          5    1    3    3  502    0  0.71926194930E+01 -0.10878600523E+03  0.39125925915E+03  0.40619210551E+03  0.47000000000E+01 0. -1.
         -5    1    4    4    0  503  0.86853957205E+01  0.68394198172E+02  0.62999511948E+01  0.69390070093E+02  0.47000000000E+01 0.  1.
          5    1    4    4  503    0 -0.54179285339E+02  0.74851696383E+02  0.10512106684E+03  0.14003820945E+03  0.47000000000E+01 0. -1.
         -5    1    3    3    0  502  0.38301270125E+02 -0.34459889324E+02  0.64444901713E+02  0.82642039074E+02  0.47000000000E+01 0.  1.
<mgrwt>
<rscale>  0 0.17722087E+03</rscale>
<asrwt>0</asrwt>
<pdfrwt beam="1">  1        1 0.97337504E-01 0.17732896E+03</pdfrwt>
<pdfrwt beam="2">  1       -1 0.10087481E-01 0.17732896E+03</pdfrwt>
<totfact> 0.19456300E+03</totfact>
</mgrwt>
</event>
<event>
 8    1  0.7366917E-004  0.9742102E+02  0.7546771E-02  0.1285839E+00
         -1   -1    0    0    0  501 -0.00000000000E+00  0.00000000000E+00  0.19434149374E+02  0.19434149374E+02  0.00000000000E+00 0.  1.
          1   -1    0    0  501    0  0.00000000000E+00 -0.00000000000E+00 -0.61836468780E+03  0.61836468780E+03  0.00000000000E+00 0. -1.
         23    2    1    2    0    0  0.32407431900E+02 -0.16676452664E+02 -0.44586892571E+03  0.45638794184E+03  0.90346603816E+02 0.  0.
         23    2    1    2    0    0 -0.32407431900E+02  0.16676452664E+02 -0.15306161272E+03  0.18141089534E+03  0.90297895575E+02 0.  0.
          5    1    4    4  502    0 -0.51603692522E+02 -0.74843565037E+01 -0.13623811990E+03  0.14595160838E+03  0.47000000000E+01 0. -1.
         -5    1    3    3    0  503  0.33104911709E+02 -0.50950945556E+02 -0.23914438537E+03  0.24678748162E+03  0.47000000000E+01 0.  1.
          5    1    3    3  503    0 -0.69747980969E+00  0.34274492892E+02 -0.20672454035E+03  0.20960046021E+03  0.47000000000E+01 0. -1.
         -5    1    4    4    0  502  0.19196260622E+02  0.24160809168E+02 -0.16823492821E+02  0.35459286967E+02  0.47000000000E+01 0.  1.
<mgrwt>
<rscale>  0 0.97409723E+02</rscale>
<asrwt>0</asrwt>
<pdfrwt beam="1">  1        1 0.95133020E-01 0.97421017E+02</pdfrwt>
<pdfrwt beam="2">  1       -1 0.29898694E-02 0.97421017E+02</pdfrwt>
<totfact> 0.11869167E+04</totfact>
</mgrwt>
</event>
<event>
 8    1  0.7366917E-004  0.1443132E+03  0.7546771E-02  0.1208545E+00
          2   -1    0    0  501    0  0.00000000000E+00  0.00000000000E+00  0.24368395215E+02  0.24368395215E+02  0.00000000000E+00 0. -1.
         -2   -1    0    0    0  501 -0.00000000000E+00 -0.00000000000E+00 -0.91813107948E+03  0.91813107948E+03  0.00000000000E+00 0.  1.
         23    2    1    2    0    0  0.11194439499E+03 -0.44395838996E+01 -0.30398261592E+03  0.33532007064E+03  0.86503534714E+02 0.  0.
         23    2    1    2    0    0 -0.11194439499E+03  0.44395838996E+01 -0.58978006834E+03  0.60717940405E+03  0.90967259045E+02 0.  0.
          5    1    4    4  502    0 -0.10206398901E+03 -0.22222270892E+02 -0.53659966313E+03  0.54669202998E+03  0.47000000000E+01 0. -1.
         -5    1    4    4    0  502 -0.98804059784E+01  0.26661854792E+02 -0.53180405206E+02  0.60487374064E+02  0.47000000000E+01 0.  1.
          5    1    3    3  503    0  0.89797858631E+02  0.86644634351E+01 -0.12383858894E+03  0.15328670671E+03  0.47000000000E+01 0. -1.
         -5    1    3    3    0  503  0.22146536354E+02 -0.13104047335E+02 -0.18014402698E+03  0.18203336394E+03  0.47000000000E+01 0.  1.
<mgrwt>
<rscale>  0 0.14361534E+03</rscale>
<asrwt>0</asrwt>
<pdfrwt beam="1">  1        2 0.37489836E-02 0.14431320E+03</pdfrwt>
<pdfrwt beam="2">  1       -2 0.14125095E+00 0.14431320E+03</pdfrwt>
<totfact> 0.83411233E+02</totfact>
</mgrwt>
</event>
<event>
 8    1  0.7366917E-004  0.1037896E+03  0.7546771E-02  0.1276878E+00
          2   -1    0    0  501    0  0.00000000000E+00  0.00000000000E+00  0.13126472484E+03  0.13126472484E+03  0.00000000000E+00 0. -1.
         -2   -1    0    0    0  501 -0.00000000000E+00 -0.00000000000E+00 -0.12613471579E+03  0.12613471579E+03  0.00000000000E+00 0.  1.
         23    2    1    2    0    0 -0.63034741140E+01 -0.38256963900E+02 -0.78777050585E+02  0.13030007665E+03  0.96275423675E+02 0.  0.
         23    2    1    2    0    0  0.63034741140E+01  0.38256963900E+02  0.83907059636E+02  0.12709936398E+03  0.87238320682E+02 0.  0.
          5    1    4    4  502    0  0.14563149656E+02  0.59133801939E+02  0.84366098630E+02  0.10415671106E+03  0.47000000000E+01 0. -1.
         -5    1    4    4    0  502 -0.82596755423E+01 -0.20876838039E+02 -0.45903899443E+00  0.22942652928E+02  0.47000000000E+01 0.  1.
          5    1    3    3  503    0  0.30884115598E+02 -0.23624582615E+00  0.43110626752E+01  0.31536640115E+02  0.47000000000E+01 0. -1.
         -5    1    3    3    0  503 -0.37187589712E+02 -0.38020718074E+02 -0.83088113260E+02  0.98763436537E+02  0.47000000000E+01 0.  1.
<mgrwt>
<rscale>  0 0.10164317E+03</rscale>
<asrwt>0</asrwt>
<pdfrwt beam="1">  1        2 0.20194573E-01 0.10378963E+03</pdfrwt>
<pdfrwt beam="2">  1       -2 0.19405341E-01 0.10378963E+03</pdfrwt>
<totfact> 0.56738972E+03</totfact>
</mgrwt>
</event>
<event>
 8    1  0.7366917E-004  0.1642588E+03  0.7546771E-02  0.1184033E+00
         -2   -1    0    0    0  501 -0.00000000000E+00  0.00000000000E+00  0.32362584994E+03  0.32362584994E+03  0.00000000000E+00 0.  1.
          2   -1    0    0  501    0  0.00000000000E+00 -0.00000000000E+00 -0.12074664138E+03  0.12074664138E+03  0.00000000000E+00 0. -1.
         23    2    1    2    0    0 -0.52862166955E+02 -0.12700848558E+03  0.22519773917E+03  0.27860439194E+03  0.89335443028E+02 0.  0.
         23    2    1    2    0    0  0.52862166955E+02  0.12700848558E+03 -0.22318530599E+02  0.16576809938E+03  0.89751779143E+02 0.  0.
          5    1    4    4  502    0  0.52974492974E+02  0.20296413436E+02 -0.14054748209E+02  0.58633328845E+02  0.47000000000E+01 0. -1.
         -5    1    3    3    0  503 -0.64120834609E+02 -0.85508127928E+02  0.20418543648E+03  0.23051443305E+03  0.47000000000E+01 0.  1.
          5    1    3    3  503    0  0.11258667654E+02 -0.41500357647E+02  0.21012302682E+02  0.48089958891E+02  0.47000000000E+01 0. -1.
         -5    1    4    4    0  502 -0.11232601862E+00  0.10671207214E+03 -0.82637823898E+01  0.10713477053E+03  0.47000000000E+01 0.  1.
<mgrwt>
<rscale>  0 0.16420197E+03</rscale>
<asrwt>0</asrwt>
<pdfrwt beam="1">  1        2 0.18576407E-01 0.16425878E+03</pdfrwt>
<pdfrwt beam="2">  1       -2 0.49788592E-01 0.16425878E+03</pdfrwt>
<totfact> 0.11557946E+03</totfact>
</mgrwt>
</event>
<event>
 8    1  0.7366917E-004  0.3282113E+03  0.7546771E-02  0.1072091E+00
         -3   -1    0    0    0  501 -0.00000000000E+00  0.00000000000E+00  0.16125236668E+03  0.16125236668E+03  0.00000000000E+00 0.  1.
          3   -1    0    0  501    0  0.00000000000E+00 -0.00000000000E+00 -0.80813766490E+03  0.80813766490E+03  0.00000000000E+00 0. -1.
         23    2    1    2    0    0 -0.27172485019E+03 -0.15641362499E+03 -0.52792317035E+03  0.62163134510E+03  0.97072339676E+02 0.  0.
         23    2    1    2    0    0  0.27172485019E+03  0.15641362499E+03 -0.11896212787E+03  0.34775868648E+03  0.92111344897E+02 0.  0.
          5    1    4    4  502    0  0.11679690969E+03  0.11945215613E+03 -0.68382952107E+02  0.18057866390E+03  0.47000000000E+01 0. -1.
         -5    1    3    3    0  503 -0.15980590899E+03 -0.10487978989E+03 -0.40323883505E+03  0.44627496789E+03  0.47000000000E+01 0.  1.
          5    1    3    3  503    0 -0.11191894120E+03 -0.51533835101E+02 -0.12468433530E+03  0.17535637721E+03  0.47000000000E+01 0. -1.
         -5    1    4    4    0  502  0.15492794050E+03  0.36961468867E+02 -0.50579175758E+02  0.16718002258E+03  0.47000000000E+01 0.  1.
<mgrwt>
<rscale>  0 0.32785248E+03</rscale>
<asrwt>0</asrwt>
<pdfrwt beam="1">  1        3 0.12432887E+00 0.32821130E+03</pdfrwt>
<pdfrwt beam="2">  1       -3 0.24808056E-01 0.32821130E+03</pdfrwt>
<totfact> 0.20748397E+01</totfact>
</mgrwt>
</event>
<event>
 8    1  0.7366917E-004  0.9139956E+02  0.7546771E-02  0.1299755E+00
          2   -1    0    0  501    0  0.00000000000E+00  0.00000000000E+00  0.77649501280E+03  0.77649501280E+03  0.00000000000E+00 0. -1.
         -2   -1    0    0    0  501 -0.00000000000E+00 -0.00000000000E+00 -0.10801063976E+02  0.10801063976E+02  0.00000000000E+00 0.  1.
         23    2    1    2    0    0 -0.48735147272E+01  0.35103022061E+01  0.42037916610E+03  0.43020056019E+03  0.91202002901E+02 0.  0.
         23    2    1    2    0    0  0.48735147272E+01 -0.35103022061E+01  0.34531478273E+03  0.35709551659E+03  0.90768030872E+02 0.  0.
          5    1    3    3  502    0 -0.45757994739E+02  0.14991686496E+02  0.20594233638E+03  0.21154876662E+03  0.47000000000E+01 0. -1.
         -5    1    4    4    0  503  0.34867562682E+02 -0.34554519869E+00  0.55736836015E+02  0.65913209737E+02  0.47000000000E+01 0.  1.
          5    1    4    4  503    0 -0.29994047955E+02 -0.31647570074E+01  0.28957794671E+03  0.29118230685E+03  0.47000000000E+01 0. -1.
         -5    1    3    3    0  502  0.40884480012E+02 -0.11481384290E+02  0.21443682972E+03  0.21865179357E+03  0.47000000000E+01 0.  1.
<mgrwt>
<rscale>  0 0.91291105E+02</rscale>
<asrwt>0</asrwt>
<pdfrwt beam="1">  1        2 0.11946073E+00 0.91399555E+02</pdfrwt>
<pdfrwt beam="2">  1       -2 0.16617028E-02 0.91399555E+02</pdfrwt>
<totfact> 0.33812080E+04</totfact>
</mgrwt>
</event>
<event>
 8    1  0.7366917E-004  0.9735888E+02  0.7546771E-02  0.1286459E+00
         -3   -1    0    0    0  501 -0.00000000000E+00  0.00000000000E+00  0.38397125945E+02  0.38397125945E+02  0.00000000000E+00 0.  1.
          3   -1    0    0  501    0  0.00000000000E+00 -0.00000000000E+00 -0.24540845152E+03  0.24540845152E+03  0.00000000000E+00 0. -1.
         23    2    1    2    0    0 -0.30303604427E+02  0.10343092786E+02 -0.94414492816E+02  0.13495398107E+03  0.90957091768E+02 0.  0.
         23    2    1    2    0    0  0.30303604427E+02 -0.10343092786E+02 -0.11259683276E+03  0.14885159639E+03  0.91942715822E+02 0.  0.
          5    1    3    3  502    0 -0.23275424009E+02 -0.93297497655E+01 -0.10707904362E+03  0.11007634249E+03  0.47000000000E+01 0. -1.
         -5    1    4    4    0  503  0.43053872031E+02  0.30698038560E+02 -0.72733183396E+02  0.90045607529E+02  0.47000000000E+01 0.  1.
          5    1    4    4  503    0 -0.12750267605E+02 -0.41041131346E+02 -0.39863649360E+02  0.58805988865E+02  0.47000000000E+01 0. -1.
         -5    1    3    3    0  502 -0.70281804175E+01  0.19672842551E+02  0.12664550805E+02  0.24877638576E+02  0.47000000000E+01 0.  1.
<mgrwt>
<rscale>  0 0.97125477E+02</rscale>
<asrwt>0</asrwt>
<pdfrwt beam="1">  1        3 0.37755147E-01 0.97358877E+02</pdfrwt>
<pdfrwt beam="2">  1       -3 0.59072501E-02 0.97358877E+02</pdfrwt>
<totfact> 0.26017069E+03</totfact>
</mgrwt>
</event>
<event>
 8    1  0.7366917E-004  0.1239461E+03  0.7546771E-02  0.1236993E+00
          2   -1    0    0  501    0  0.00000000000E+00  0.00000000000E+00  0.29416756321E+03  0.29416756321E+03  0.00000000000E+00 0. -1.
         -2   -1    0    0    0  501 -0.00000000000E+00 -0.00000000000E+00 -0.63327092344E+02  0.63327092344E+02  0.00000000000E+00 0.  1.
         23    2    1    2    0    0 -0.81977453458E+02 -0.21723897912E+02  0.39882869496E+02  0.13020474714E+03  0.90390277590E+02 0.  0.
         23    2    1    2    0    0  0.81977453458E+02  0.21723897912E+02  0.19095760137E+03  0.22728990841E+03  0.89463212158E+02 0.  0.
          5    1    3    3  502    0 -0.41657792175E+02  0.34710479763E+02  0.17910051012E+02  0.57297896833E+02  0.47000000000E+01 0. -1.
         -5    1    3    3    0  502 -0.40319661283E+02 -0.56434377675E+02  0.21972818483E+02  0.72906850307E+02  0.47000000000E+01 0.  1.
          5    1    4    4  503    0  0.60446772866E+02  0.55953407884E+02  0.13113527844E+03  0.15492949189E+03  0.47000000000E+01 0. -1.
         -5    1    4    4    0  503  0.21530680591E+02 -0.34229509971E+02  0.59822322927E+02  0.72360416528E+02  0.47000000000E+01 0.  1.
<mgrwt>
<rscale>  0 0.12377713E+03</rscale>
<asrwt>0</asrwt>
<pdfrwt beam="1">  1        2 0.45256547E-01 0.12394609E+03</pdfrwt>
<pdfrwt beam="2">  1       -2 0.97426298E-02 0.12394609E+03</pdfrwt>
<totfact> 0.73076157E+03</totfact>
</mgrwt>
</event>
<event>
 8    1  0.7366917E-004  0.9712513E+02  0.7546771E-02  0.1287885E+00
         -2   -1    0    0    0  501 -0.00000000000E+00  0.00000000000E+00  0.65933137334E+02  0.65933137334E+02  0.00000000000E+00 0.  1.
          2   -1    0    0  501    0  0.00000000000E+00 -0.00000000000E+00 -0.25941022354E+03  0.25941022354E+03  0.00000000000E+00 0. -1.
         23    2    1    2    0    0 -0.16367240356E+01  0.29319065147E+02  0.14635553015E+02  0.95682388417E+02  0.89881219364E+02 0.  0.
         23    2    1    2    0    0  0.16367240356E+01 -0.29319065147E+02 -0.20811263923E+03  0.22966097246E+03  0.92579723588E+02 0.  0.
          5    1    3    3  502    0  0.27845495314E+02  0.12041832828E+02 -0.27509194425E+02  0.41221634187E+02  0.47000000000E+01 0. -1.
         -5    1    4    4    0  503 -0.44014788562E+02 -0.51283940179E+01 -0.82688231409E+02  0.93931015383E+02  0.47000000000E+01 0.  1.
          5    1    4    4  503    0  0.45651512598E+02 -0.24190671129E+02 -0.12542440782E+03  0.13572995708E+03  0.47000000000E+01 0. -1.
         -5    1    3    3    0  502 -0.29482219350E+02  0.17277232319E+02  0.42144747440E+02  0.54460754229E+02  0.47000000000E+01 0.  1.
<mgrwt>
<rscale>  0 0.96476491E+02</rscale>
<asrwt>0</asrwt>
<pdfrwt beam="1">  1        2 0.39909265E-01 0.97125134E+02</pdfrwt>
<pdfrwt beam="2">  1       -2 0.10143560E-01 0.97125134E+02</pdfrwt>
<totfact> 0.76931692E+03</totfact>
</mgrwt>
</event>
<event>
 8    1  0.7366917E-004  0.9751860E+02  0.7546771E-02  0.1287288E+00
         -4   -1    0    0    0  501 -0.00000000000E+00  0.00000000000E+00  0.68031442366E+02  0.68031442366E+02  0.00000000000E+00 0.  1.
          4   -1    0    0  501    0  0.00000000000E+00 -0.00000000000E+00 -0.17033170796E+03  0.17033170796E+03  0.00000000000E+00 0. -1.
         23    2    1    2    0    0  0.16450755765E+02  0.27022750696E+02 -0.10443139001E+03  0.14082127047E+03  0.89016057972E+02 0.  0.
         23    2    1    2    0    0 -0.16450755765E+02 -0.27022750696E+02  0.21311244145E+01  0.97541879859E+02  0.92244350584E+02 0.  0.
          5    1    4    4  502    0 -0.16068498398E+02 -0.59797878422E+02 -0.86979394691E+01  0.62703485195E+02  0.47000000000E+01 0. -1.
         -5    1    3    3    0  503  0.24313989369E+02  0.47042194529E+02 -0.25659869771E+02  0.59030983914E+02  0.47000000000E+01 0.  1.
          5    1    3    3  503    0 -0.78632336031E+01 -0.20019443834E+02 -0.78771520241E+02  0.81790286557E+02  0.47000000000E+01 0. -1.
         -5    1    4    4    0  502 -0.38225736778E+00  0.32775127726E+02  0.10829063884E+02  0.34838394664E+02  0.47000000000E+01 0.  1.
<mgrwt>
<rscale>  0 0.96747528E+02</rscale>
<asrwt>0</asrwt>
<pdfrwt beam="1">  1        4 0.26204878E-01 0.97518596E+02</pdfrwt>
<pdfrwt beam="2">  1       -4 0.10466376E-01 0.97518596E+02</pdfrwt>
<totfact> 0.14681663E+03</totfact>
</mgrwt>
</event>
<event>
 8    1  0.7366917E-004  0.1129981E+03  0.7546771E-02  0.1256050E+00
         -1   -1    0    0    0  501 -0.00000000000E+00  0.00000000000E+00  0.18170195368E+03  0.18170195368E+03  0.00000000000E+00 0.  1.
          1   -1    0    0  501    0  0.00000000000E+00 -0.00000000000E+00 -0.71004040823E+02  0.71004040823E+02  0.00000000000E+00 0. -1.
         23    2    1    2    0    0  0.68979457764E+02 -0.38881310897E+01  0.33580377134E+02  0.11590070320E+03  0.86787373029E+02 0.  0.
         23    2    1    2    0    0 -0.68979457764E+02  0.38881310897E+01  0.77117535724E+02  0.13680529130E+03  0.89416386954E+02 0.  0.
          5    1    4    4  502    0 -0.84374173388E+02 -0.17371200688E+02  0.56983002759E+02  0.10339203234E+03  0.47000000000E+01 0. -1.
         -5    1    3    3    0  503  0.75256639245E+02 -0.30350498130E+02  0.34463700013E+02  0.88286754985E+02  0.47000000000E+01 0.  1.
          5    1    3    3  503    0 -0.62771814815E+01  0.26462367041E+02 -0.88332287897E+00  0.27613948216E+02  0.47000000000E+01 0. -1.
         -5    1    4    4    0  502  0.15394715624E+02  0.21259331778E+02  0.20134532966E+02  0.33413258963E+02  0.47000000000E+01 0.  1.
<mgrwt>
<rscale>  0 0.11247734E+03</rscale>
<asrwt>0</asrwt>
<pdfrwt beam="1">  1        1 0.10923699E-01 0.11299811E+03</pdfrwt>
<pdfrwt beam="2">  1       -1 0.27954146E-01 0.11299811E+03</pdfrwt>
<totfact> 0.61483640E+03</totfact>
</mgrwt>
</event>
<event>
 8    1  0.7366917E-004  0.1074471E+03  0.7546771E-02  0.1265753E+00
          1   -1    0    0  501    0  0.00000000000E+00  0.00000000000E+00  0.43021478717E+03  0.43021478717E+03  0.00000000000E+00 0. -1.
         -1   -1    0    0    0  501 -0.00000000000E+00 -0.00000000000E+00 -0.99557812466E+02  0.99557812466E+02  0.00000000000E+00 0.  1.
         23    2    1    2    0    0 -0.47627457500E+02 -0.26503071416E+02 -0.61204715059E+02  0.12365637535E+03  0.92596406610E+02 0.  0.
         23    2    1    2    0    0  0.47627457500E+02  0.26503071416E+02  0.39186168976E+03  0.40611622429E+03  0.91673421564E+02 0.  0.
          5    1    3    3  502    0 -0.42460522872E+02 -0.58462460849E+02 -0.29773250772E+02  0.78289793668E+02  0.47000000000E+01 0. -1.
         -5    1    3    3    0  502 -0.51669346284E+01  0.31959389432E+02 -0.31431464288E+02  0.45366581683E+02  0.47000000000E+01 0.  1.
          5    1    4    4  503    0  0.51642458178E+02  0.15331332626E+01  0.36593320908E+03  0.36959233960E+03  0.47000000000E+01 0. -1.
         -5    1    4    4    0  503 -0.40150006774E+01  0.24969938154E+02  0.25928480682E+02  0.36523884683E+02  0.47000000000E+01 0.  1.
<mgrwt>
<rscale>  0 0.10724796E+03</rscale>
<asrwt>0</asrwt>
<pdfrwt beam="1">  1        1 0.66186889E-01 0.10744711E+03</pdfrwt>
<pdfrwt beam="2">  1       -1 0.15316587E-01 0.10744711E+03</pdfrwt>
<totfact> 0.16753546E+03</totfact>
</mgrwt>
</event>
<event>
 8    1  0.7366917E-004  0.1597032E+03  0.7546771E-02  0.1190903E+00
          1   -1    0    0  501    0  0.00000000000E+00  0.00000000000E+00  0.28903959784E+03  0.28903959784E+03  0.00000000000E+00 0. -1.
         -1   -1    0    0    0  501 -0.00000000000E+00 -0.00000000000E+00 -0.10801416732E+03  0.10801416732E+03  0.00000000000E+00 0.  1.
         23    2    1    2    0    0  0.11339860973E+03  0.50322971289E+02  0.18125710973E+03  0.23735036804E+03  0.89941154384E+02 0.  0.
         23    2    1    2    0    0 -0.11339860973E+03 -0.50322971289E+02 -0.23167920595E+00  0.15970339712E+03  0.10056577573E+03 0.  0.
          5    1    4    4  502    0 -0.20067282618E+01 -0.45706130756E+02  0.11770388412E+02  0.47473249208E+02  0.47000000000E+01 0. -1.
         -5    1    4    4    0  502 -0.11139188147E+03 -0.46168405333E+01 -0.12002067618E+02  0.11223014791E+03  0.47000000000E+01 0.  1.
          5    1    3    3  503    0  0.12356843908E+03  0.25959532841E+02  0.15212362291E+03  0.19775424933E+03  0.47000000000E+01 0. -1.
         -5    1    3    3    0  503 -0.10169829353E+02  0.24363438448E+02  0.29133486824E+02  0.39596118706E+02  0.47000000000E+01 0.  1.
<mgrwt>
<rscale>  0 0.15806109E+03</rscale>
<asrwt>0</asrwt>
<pdfrwt beam="1">  1        1 0.44467630E-01 0.15970323E+03</pdfrwt>
<pdfrwt beam="2">  1       -1 0.16617564E-01 0.15970323E+03</pdfrwt>
<totfact> 0.24532680E+03</totfact>
</mgrwt>
</event>
<event>
 8    1  0.7366917E-004  0.1136348E+03  0.7546771E-02  0.1254230E+00
         -2   -1    0    0    0  501 -0.00000000000E+00  0.00000000000E+00  0.16011930880E+02  0.16011930880E+02  0.00000000000E+00 0.  1.
          2   -1    0    0  501    0  0.00000000000E+00 -0.00000000000E+00 -0.80348724674E+03  0.80348724674E+03  0.00000000000E+00 0. -1.
         23    2    1    2    0    0 -0.50095401598E+02  0.42797666015E+02 -0.38042828651E+03  0.39703719959E+03  0.92583298707E+02 0.  0.
         23    2    1    2    0    0  0.50095401598E+02 -0.42797666015E+02 -0.40704702935E+03  0.42246197804E+03  0.91900213850E+02 0.  0.
          5    1    3    3  502    0 -0.80883742898E+01 -0.27376434286E+02 -0.14231191247E+03  0.14522279912E+03  0.47000000000E+01 0. -1.
         -5    1    4    4    0  503  0.89095623791E+01 -0.28758677525E+02 -0.29585265008E+02  0.42471399087E+02  0.47000000000E+01 0.  1.
          5    1    4    4  503    0  0.41185839219E+02 -0.14038988490E+02 -0.37746176434E+03  0.37999057895E+03  0.47000000000E+01 0. -1.
         -5    1    3    3    0  502 -0.42007027308E+02  0.70174100301E+02 -0.23811637404E+03  0.25181440047E+03  0.47000000000E+01 0.  1.
<mgrwt>
<rscale>  0 0.11349553E+03</rscale>
<asrwt>0</asrwt>
<pdfrwt beam="1">  1        2 0.12361342E+00 0.11363475E+03</pdfrwt>
<pdfrwt beam="2">  1       -2 0.24633741E-02 0.11363475E+03</pdfrwt>
<totfact> 0.18763067E+04</totfact>
</mgrwt>
</event>
<event>
 8    1  0.7366917E-004  0.1007747E+03  0.7546771E-02  0.1280697E+00
          2   -1    0    0  501    0  0.00000000000E+00  0.00000000000E+00  0.11205083921E+04  0.11205083921E+04  0.00000000000E+00 0. -1.
         -2   -1    0    0    0  501 -0.00000000000E+00 -0.00000000000E+00 -0.87298287012E+01  0.87298287012E+01  0.00000000000E+00 0.  1.
         23    2    1    2    0    0  0.14823281861E+02 -0.37214189637E+02  0.55232394511E+03  0.56144214430E+03  0.92471160114E+02 0.  0.
         23    2    1    2    0    0 -0.14823281861E+02  0.37214189637E+02  0.55945461830E+03  0.56779607652E+03  0.88307921368E+02 0.  0.
          5    1    4    4  502    0 -0.39116677041E+02  0.52717201190E+02  0.33067276345E+03  0.33715839632E+03  0.47000000000E+01 0. -1.
         -5    1    4    4    0  502  0.24293395180E+02 -0.15503011553E+02  0.22878185485E+03  0.23063768019E+03  0.47000000000E+01 0.  1.
          5    1    3    3  503    0  0.32174876358E+02 -0.58993097155E+02  0.45969378079E+03  0.46460291678E+03  0.47000000000E+01 0. -1.
         -5    1    3    3    0  503 -0.17351594497E+02  0.21778907518E+02  0.92630164319E+02  0.96839227517E+02  0.47000000000E+01 0.  1.
<mgrwt>
<rscale>  0 0.99809404E+02</rscale>
<asrwt>0</asrwt>
<pdfrwt beam="1">  1        2 0.17238579E+00 0.10077470E+03</pdfrwt>
<pdfrwt beam="2">  1       -2 0.13430515E-02 0.10077470E+03</pdfrwt>
<totfact> 0.28574747E+04</totfact>
</mgrwt>
</event>
<event>
 8    1  0.7366917E-004  0.9639735E+02  0.7546771E-02  0.1289346E+00
         -1   -1    0    0    0  501 -0.00000000000E+00  0.00000000000E+00  0.98246065137E+02  0.98246065137E+02  0.00000000000E+00 0.  1.
          1   -1    0    0  501    0  0.00000000000E+00 -0.00000000000E+00 -0.12672597269E+03  0.12672597269E+03  0.00000000000E+00 0. -1.
         23    2    1    2    0    0  0.46557075540E+01 -0.34033405169E+02  0.44225355215E+02  0.10605815084E+03  0.90069423418E+02 0.  0.
         23    2    1    2    0    0 -0.46557075540E+01  0.34033405169E+02 -0.72705262764E+02  0.11891388699E+03  0.87604275034E+02 0.  0.
          5    1    3    3  502    0 -0.41289183832E+02 -0.27214405409E+02  0.21310671798E+02  0.54052338486E+02  0.47000000000E+01 0. -1.
         -5    1    4    4    0  503  0.31692221242E+02 -0.12505023351E+02 -0.21090917440E+02  0.40344631548E+02  0.47000000000E+01 0.  1.
          5    1    4    4  503    0 -0.36347928796E+02  0.46538428520E+02 -0.51614345324E+02  0.78569255438E+02  0.47000000000E+01 0. -1.
         -5    1    3    3    0  502  0.45944891386E+02 -0.68189997605E+01  0.22914683416E+02  0.52005812351E+02  0.47000000000E+01 0.  1.
<mgrwt>
<rscale>  0 0.95817331E+02</rscale>
<asrwt>0</asrwt>
<pdfrwt beam="1">  1        1 0.19496303E-01 0.96397351E+02</pdfrwt>
<pdfrwt beam="2">  1       -1 0.15114779E-01 0.96397351E+02</pdfrwt>
<totfact> 0.77109785E+03</totfact>
</mgrwt>
</event>
<event>
 8    1  0.7366917E-004  0.1452033E+03  0.7546771E-02  0.1209848E+00
          1   -1    0    0  501    0  0.00000000000E+00  0.00000000000E+00  0.39940909038E+03  0.39940909038E+03  0.00000000000E+00 0. -1.
         -1   -1    0    0    0  501 -0.00000000000E+00 -0.00000000000E+00 -0.96256896611E+02  0.96256896611E+02  0.00000000000E+00 0.  1.
         23    2    1    2    0    0 -0.98388537753E+02  0.40967547863E+01 -0.18882511536E+02  0.14642586502E+03  0.10670940420E+03 0.  0.
         23    2    1    2    0    0  0.98388537753E+02 -0.40967547863E+01  0.32203470530E+03  0.34924012197E+03  0.92548493297E+02 0.  0.
          5    1    4    4  502    0  0.45176892378E+02  0.43982783753E+02  0.15510321507E+03  0.16749487812E+03  0.47000000000E+01 0. -1.
         -5    1    4    4    0  502  0.53211645375E+02 -0.48079538539E+02  0.16693149023E+03  0.18174524385E+03  0.47000000000E+01 0.  1.
          5    1    3    3  503    0 -0.53213099459E+02  0.41755838739E+02  0.25663057371E+02  0.72497355375E+02  0.47000000000E+01 0. -1.
         -5    1    3    3    0  503 -0.45175438294E+02 -0.37659083953E+02 -0.44545568907E+02  0.73928509646E+02  0.47000000000E+01 0.  1.
<mgrwt>
<rscale>  0 0.14261878E+03</rscale>
<asrwt>0</asrwt>
<pdfrwt beam="1">  1        1 0.61447552E-01 0.14520325E+03</pdfrwt>
<pdfrwt beam="2">  1       -1 0.14808754E-01 0.14520325E+03</pdfrwt>
<totfact> 0.19570414E+03</totfact>
</mgrwt>
</event>
<event>
 8    1  0.7366917E-004  0.1120720E+03  0.7546771E-02  0.1257049E+00
         -1   -1    0    0    0  501 -0.00000000000E+00  0.00000000000E+00  0.13942458846E+03  0.13942458846E+03  0.00000000000E+00 0.  1.
          1   -1    0    0  501    0  0.00000000000E+00 -0.00000000000E+00 -0.14950750181E+03  0.14950750181E+03  0.00000000000E+00 0. -1.
         23    2    1    2    0    0  0.46579954205E+02 -0.42645659834E+02 -0.96474547811E+02  0.14742713491E+03  0.91864450663E+02 0.  0.
         23    2    1    2    0    0 -0.46579954205E+02  0.42645659834E+02  0.86391634465E+02  0.14150495537E+03  0.92583980532E+02 0.  0.
          5    1    4    4  502    0 -0.54583771848E+02 -0.21463066471E+01  0.15220593254E+02  0.56901241114E+02  0.47000000000E+01 0. -1.
         -5    1    3    3    0  503  0.54835512563E+02 -0.12199793170E+02 -0.10055002141E+03  0.11527430415E+03  0.47000000000E+01 0.  1.
          5    1    3    3  503    0 -0.82555583575E+01 -0.30445866663E+02  0.40754736011E+01  0.32152830758E+02  0.47000000000E+01 0. -1.
         -5    1    4    4    0  502  0.80038176427E+01  0.44791966481E+02  0.71171041212E+02  0.84603714252E+02  0.47000000000E+01 0.  1.
<mgrwt>
<rscale>  0 0.11192331E+03</rscale>
<asrwt>0</asrwt>
<pdfrwt beam="1">  1        1 0.23001154E-01 0.11207202E+03</pdfrwt>
<pdfrwt beam="2">  1       -1 0.21449937E-01 0.11207202E+03</pdfrwt>
<totfact> 0.36423725E+03</totfact>
</mgrwt>
</event>
<event>
 8    1  0.7366917E-004  0.1191452E+03  0.7546771E-02  0.1254731E+00
          1   -1    0    0  501    0  0.00000000000E+00  0.00000000000E+00  0.50563836979E+03  0.50563836979E+03  0.00000000000E+00 0. -1.
         -1   -1    0    0    0  501 -0.00000000000E+00 -0.00000000000E+00 -0.23133326819E+02  0.23133326819E+02  0.00000000000E+00 0.  1.
         23    2    1    2    0    0 -0.20397470078E+02  0.29087629735E+02  0.26997444703E+03  0.29509621302E+03  0.11372522102E+03 0.  0.
         23    2    1    2    0    0  0.20397470078E+02 -0.29087629735E+02  0.21253059594E+03  0.23367548360E+03  0.90403708072E+02 0.  0.
          5    1    4    4  502    0  0.12137388475E+02 -0.50627949611E+02  0.61032774558E+02  0.80359162832E+02  0.47000000000E+01 0. -1.
         -5    1    4    4    0  502  0.82600816034E+01  0.21540319877E+02  0.15149782138E+03  0.15331632076E+03  0.47000000000E+01 0.  1.
          5    1    3    3  503    0 -0.57481752024E+02  0.49948373049E+02  0.16918258181E+03  0.18559048406E+03  0.47000000000E+01 0. -1.
         -5    1    3    3    0  503  0.37084281946E+02 -0.20860743315E+02  0.10079186522E+03  0.10950572895E+03  0.47000000000E+01 0.  1.
<mgrwt>
<rscale>  0 0.11321395E+03</rscale>
<asrwt>0</asrwt>
<pdfrwt beam="1">  1        1 0.77790510E-01 0.11914518E+03</pdfrwt>
<pdfrwt beam="2">  1       -1 0.35589737E-02 0.11914518E+03</pdfrwt>
<totfact> 0.12232647E+04</totfact>
</mgrwt>
</event>
<event>
 8    1  0.7366917E-004  0.9777487E+02  0.7546771E-02  0.1286292E+00
          1   -1    0    0  501    0  0.00000000000E+00  0.00000000000E+00  0.49410763246E+03  0.49410763246E+03  0.00000000000E+00 0. -1.
         -1   -1    0    0    0  501 -0.00000000000E+00 -0.00000000000E+00 -0.69509701731E+02  0.69509701731E+02  0.00000000000E+00 0.  1.
         23    2    1    2    0    0  0.10974670067E+02  0.29375878571E+02 -0.27478726305E+02  0.10156281156E+03  0.92609603538E+02 0.  0.
         23    2    1    2    0    0 -0.10974670067E+02 -0.29375878571E+02  0.45207665703E+03  0.46205452263E+03  0.90209159317E+02 0.  0.
          5    1    4    4  502    0 -0.46886936587E+02 -0.34824560425E+02  0.29521857196E+03  0.30097712548E+03  0.47000000000E+01 0. -1.
         -5    1    4    4    0  502  0.35912266520E+02  0.54486818542E+01  0.15685808507E+03  0.16107739715E+03  0.47000000000E+01 0.  1.
          5    1    3    3  503    0 -0.22886710215E+02 -0.28659877365E+01 -0.45504458548E+02  0.51232422722E+02  0.47000000000E+01 0. -1.
         -5    1    3    3    0  503  0.33861380282E+02  0.32241866308E+02  0.18025732243E+02  0.50330388837E+02  0.47000000000E+01 0.  1.
<mgrwt>
<rscale>  0 0.97202222E+02</rscale>
<asrwt>0</asrwt>
<pdfrwt beam="1">  1        1 0.76016557E-01 0.97774865E+02</pdfrwt>
<pdfrwt beam="2">  1       -1 0.10693801E-01 0.97774865E+02</pdfrwt>
<totfact> 0.24331289E+03</totfact>
</mgrwt>
</event>
<event>
 8    1  0.7366917E-004  0.9777779E+02  0.7546771E-02  0.1285950E+00
         -1   -1    0    0    0  501 -0.00000000000E+00  0.00000000000E+00  0.15791568270E+03  0.15791568270E+03  0.00000000000E+00 0.  1.
          1   -1    0    0  501    0  0.00000000000E+00 -0.00000000000E+00 -0.61768249168E+02  0.61768249168E+02  0.00000000000E+00 0. -1.
         23    2    1    2    0    0  0.28144484905E+02  0.23193959334E+02  0.26699049194E+02  0.99752389831E+02  0.88924846185E+02 0.  0.
         23    2    1    2    0    0 -0.28144484905E+02 -0.23193959334E+02  0.69448384339E+02  0.11993154204E+03  0.90721689293E+02 0.  0.
          5    1    4    4  502    0 -0.21990382888E+02 -0.30896673501E+01 -0.18562598803E+02  0.29322057538E+02  0.47000000000E+01 0. -1.
         -5    1    3    3    0  503  0.32318984344E+02 -0.24340677863E+02  0.31602542556E+02  0.51553816967E+02  0.47000000000E+01 0.  1.
          5    1    3    3  503    0 -0.41744994388E+01  0.47534637197E+02 -0.49034933621E+01  0.48198572864E+02  0.47000000000E+01 0. -1.
         -5    1    4    4    0  502 -0.61541020166E+01 -0.20104291984E+02  0.88010983142E+02  0.90609484501E+02  0.47000000000E+01 0.  1.
<mgrwt>
<rscale>  0 0.97358899E+02</rscale>
<asrwt>0</asrwt>
<pdfrwt beam="1">  1        1 0.95028076E-02 0.97777792E+02</pdfrwt>
<pdfrwt beam="2">  1       -1 0.24294720E-01 0.97777792E+02</pdfrwt>
<totfact> 0.91821220E+03</totfact>
</mgrwt>
</event>
<event>
 8    1  0.7366917E-004  0.1480482E+03  0.7546771E-02  0.1203113E+00
         -1   -1    0    0    0  501 -0.00000000000E+00  0.00000000000E+00  0.76627911724E+02  0.76627911724E+02  0.00000000000E+00 0.  1.
          1   -1    0    0  501    0  0.00000000000E+00 -0.00000000000E+00 -0.41253519359E+03  0.41253519359E+03  0.00000000000E+00 0. -1.
         23    2    1    2    0    0  0.10275817567E+03  0.51038505821E+02 -0.32067357671E+02  0.15148127240E+03  0.93563287232E+02 0.  0.
         23    2    1    2    0    0 -0.10275817567E+03 -0.51038505821E+02 -0.30383992419E+03  0.33768183291E+03  0.92445383878E+02 0.  0.
          5    1    4    4  502    0 -0.40517656441E+02 -0.46739229531E+02 -0.24157550528E+03  0.24941341345E+03  0.47000000000E+01 0. -1.
         -5    1    3    3    0  503  0.88742073184E+02  0.76757932816E+02 -0.18555390031E+02  0.11888367551E+03  0.47000000000E+01 0.  1.
          5    1    3    3  503    0  0.14016102484E+02 -0.25719426995E+02 -0.13511967640E+02  0.32597596895E+02  0.47000000000E+01 0. -1.
         -5    1    4    4    0  502 -0.62240519227E+02 -0.42992762899E+01 -0.62264418915E+02  0.88268419455E+02  0.47000000000E+01 0.  1.
<mgrwt>
<rscale>  0 0.14787187E+03</rscale>
<asrwt>0</asrwt>
<pdfrwt beam="1">  1        1 0.63466952E-01 0.14804817E+03</pdfrwt>
<pdfrwt beam="2">  1       -1 0.11788910E-01 0.14804817E+03</pdfrwt>
<totfact> 0.26804930E+03</totfact>
</mgrwt>
</event>
<event>
 8    1  0.7366917E-004  0.1123255E+03  0.7546771E-02  0.1257606E+00
         -1   -1    0    0    0  501 -0.00000000000E+00  0.00000000000E+00  0.69842405431E+02  0.69842405431E+02  0.00000000000E+00 0.  1.
          1   -1    0    0  501    0  0.00000000000E+00 -0.00000000000E+00 -0.22887882451E+03  0.22887882451E+03  0.00000000000E+00 0. -1.
         23    2    1    2    0    0 -0.38710872435E+02  0.47524401790E+02 -0.86130619516E+01  0.11265523225E+03  0.94127127375E+02 0.  0.
         23    2    1    2    0    0  0.38710872435E+02 -0.47524401790E+02 -0.15042335713E+03  0.18606599768E+03  0.90753890910E+02 0.  0.
          5    1    3    3  502    0  0.51505330108E+01  0.30390372873E+02 -0.43742854505E+02  0.53718060966E+02  0.47000000000E+01 0. -1.
         -5    1    3    3    0  502 -0.43861405446E+02  0.17134028916E+02  0.35129792554E+02  0.58937171288E+02  0.47000000000E+01 0.  1.
          5    1    4    4  503    0  0.52637760984E+02  0.56515083259E+00 -0.10814793641E+03  0.12037075818E+03  0.47000000000E+01 0. -1.
         -5    1    4    4    0  503 -0.13926888549E+02 -0.48089552622E+02 -0.42275420719E+02  0.65695239500E+02  0.47000000000E+01 0.  1.
<mgrwt>
<rscale>  0 0.11161599E+03</rscale>
<asrwt>0</asrwt>
<pdfrwt beam="1">  1        1 0.35212127E-01 0.11232549E+03</pdfrwt>
<pdfrwt beam="2">  1       -1 0.10744985E-01 0.11232549E+03</pdfrwt>
<totfact> 0.63267090E+03</totfact>
</mgrwt>
</event>
<event>
 8    1  0.7366917E-004  0.1022460E+03  0.7546771E-02  0.1275878E+00
          2   -1    0    0  501    0  0.00000000000E+00  0.00000000000E+00  0.44372587247E+03  0.44372587247E+03  0.00000000000E+00 0. -1.
         -2   -1    0    0    0  501 -0.00000000000E+00 -0.00000000000E+00 -0.24456352086E+02  0.24456352086E+02  0.00000000000E+00 0.  1.
         23    2    1    2    0    0 -0.11105010442E+02  0.44463094839E+02  0.25657086246E+03  0.27602319347E+03  0.90884034965E+02 0.  0.
         23    2    1    2    0    0  0.11105010442E+02 -0.44463094839E+02  0.16269865793E+03  0.19215903109E+03  0.91399955565E+02 0.  0.
          5    1    4    4  502    0  0.22503747838E+02 -0.63482947795E+02  0.15350794765E+03  0.16769998008E+03  0.47000000000E+01 0. -1.
         -5    1    3    3    0  503  0.17006947436E+01  0.65118842970E+02  0.11454202617E+03  0.13185341039E+03  0.47000000000E+01 0.  1.
          5    1    3    3  503    0 -0.12805705185E+02 -0.20655748131E+02  0.14202883628E+03  0.14416978308E+03  0.47000000000E+01 0. -1.
         -5    1    4    4    0  502 -0.11398737396E+02  0.19019852956E+02  0.91907102777E+01  0.24459051006E+02  0.47000000000E+01 0.  1.
<mgrwt>
<rscale>  0 0.10213055E+03</rscale>
<asrwt>0</asrwt>
<pdfrwt beam="1">  1        2 0.68265513E-01 0.10224598E+03</pdfrwt>
<pdfrwt beam="2">  1       -2 0.37625160E-02 0.10224598E+03</pdfrwt>
<totfact> 0.19627952E+04</totfact>
</mgrwt>
</event>
<event>
 8    1  0.7366917E-004  0.1115029E+03  0.7546771E-02  0.1258009E+00
          1   -1    0    0  501    0  0.00000000000E+00  0.00000000000E+00  0.16904007274E+03  0.16904007274E+03  0.00000000000E+00 0. -1.
         -1   -1    0    0    0  501 -0.00000000000E+00 -0.00000000000E+00 -0.13996940091E+03  0.13996940091E+03  0.00000000000E+00 0.  1.
         23    2    1    2    0    0 -0.56443380127E+02 -0.26122510387E+02  0.12121082501E+03  0.16469659691E+03  0.92545471128E+02 0.  0.
         23    2    1    2    0    0  0.56443380127E+02  0.26122510387E+02 -0.92140153172E+02  0.14431287674E+03  0.92022594280E+02 0.  0.
          5    1    3    3  502    0 -0.20901538049E+02 -0.40643241134E+02  0.11710968791E+03  0.12579950852E+03  0.47000000000E+01 0. -1.
         -5    1    3    3    0  502 -0.35541842077E+02  0.14520730746E+02  0.41011371000E+01  0.38897088389E+02  0.47000000000E+01 0.  1.
          5    1    4    4  503    0  0.15179122619E+02  0.42531383141E+02 -0.40902598345E+01  0.45586670649E+02  0.47000000000E+01 0. -1.
         -5    1    4    4    0  503  0.41264257508E+02 -0.16408872754E+02 -0.88049893338E+02  0.98726206093E+02  0.47000000000E+01 0.  1.
<mgrwt>
<rscale>  0 0.11139438E+03</rscale>
<asrwt>0</asrwt>
<pdfrwt beam="1">  1        1 0.26006165E-01 0.11150294E+03</pdfrwt>
<pdfrwt beam="2">  1       -1 0.21533754E-01 0.11150294E+03</pdfrwt>
<totfact> 0.31040025E+03</totfact>
</mgrwt>
</event>
<event>
 8    1  0.7366917E-004  0.1029164E+03  0.7546771E-02  0.1275607E+00
         -3   -1    0    0    0  501 -0.00000000000E+00  0.00000000000E+00  0.20673531214E+03  0.20673531214E+03  0.00000000000E+00 0.  1.
          3   -1    0    0  501    0  0.00000000000E+00 -0.00000000000E+00 -0.90953043830E+02  0.90953043830E+02  0.00000000000E+00 0. -1.
         23    2    1    2    0    0 -0.29961467942E+02  0.33996314883E+02  0.15822530285E+03  0.18875122627E+03  0.92403138306E+02 0.  0.
         23    2    1    2    0    0  0.29961467942E+02 -0.33996314883E+02 -0.42443034540E+02  0.10893712970E+03  0.89512278823E+02 0.  0.
          5    1    3    3  502    0 -0.24675467851E+02 -0.18197945407E+02  0.11879189403E+02  0.33215193384E+02  0.47000000000E+01 0. -1.
         -5    1    3    3    0  502 -0.52860000916E+01  0.52194260289E+02  0.14634611345E+03  0.15553603288E+03  0.47000000000E+01 0.  1.
          5    1    4    4  503    0  0.40145054018E+02  0.16416109269E+02 -0.36632696100E+02  0.56966292043E+02  0.47000000000E+01 0. -1.
         -5    1    4    4    0  503 -0.10183586075E+02 -0.50412424152E+02 -0.58103384404E+01  0.51970837659E+02  0.47000000000E+01 0.  1.
<mgrwt>
<rscale>  0 0.10226331E+03</rscale>
<asrwt>0</asrwt>
<pdfrwt beam="1">  1        3 0.13992776E-01 0.10291637E+03</pdfrwt>
<pdfrwt beam="2">  1       -3 0.31805432E-01 0.10291637E+03</pdfrwt>
<totfact> 0.88738464E+02</totfact>
</mgrwt>
</event>
<event>
 8    1  0.7366917E-004  0.1028013E+03  0.7546771E-02  0.1277873E+00
         -2   -1    0    0    0  501 -0.00000000000E+00  0.00000000000E+00  0.10498032250E+03  0.10498032250E+03  0.00000000000E+00 0.  1.
          2   -1    0    0  501    0  0.00000000000E+00 -0.00000000000E+00 -0.94876463689E+02  0.94876463689E+02  0.00000000000E+00 0. -1.
         23    2    1    2    0    0  0.62774953576E+01 -0.36183251862E+02  0.11236034837E+02  0.97049266092E+02  0.89127307302E+02 0.  0.
         23    2    1    2    0    0 -0.62774953576E+01  0.36183251862E+02 -0.11321760211E+01  0.10280752010E+03  0.96018069673E+02 0.  0.
          5    1    4    4  502    0  0.24025595417E+02  0.46286404265E+02  0.27949532887E+02  0.59354248740E+02  0.47000000000E+01 0. -1.
         -5    1    4    4    0  502 -0.30303090775E+02 -0.10103152402E+02 -0.29081708908E+02  0.43453271362E+02  0.47000000000E+01 0.  1.
          5    1    3    3  503    0  0.21594858173E+02 -0.10725813351E+02 -0.34473282008E+02  0.42330581663E+02  0.47000000000E+01 0. -1.
         -5    1    3    3    0  503 -0.15317362815E+02 -0.25457438511E+02  0.45709316845E+02  0.54718684428E+02  0.47000000000E+01 0.  1.
<mgrwt>
<rscale>  0 0.10116130E+03</rscale>
<asrwt>0</asrwt>
<pdfrwt beam="1">  1        2 0.14596379E-01 0.10280129E+03</pdfrwt>
<pdfrwt beam="2">  1       -2 0.16150819E-01 0.10280129E+03</pdfrwt>
<totfact> 0.11130986E+04</totfact>
</mgrwt>
</event>
<event>
 8    1  0.7366917E-004  0.9150766E+02  0.7546771E-02  0.1299375E+00
          2   -1    0    0  501    0  0.00000000000E+00  0.00000000000E+00  0.70824629747E+03  0.70824629747E+03  0.00000000000E+00 0. -1.
         -2   -1    0    0    0  501 -0.00000000000E+00 -0.00000000000E+00 -0.26135989937E+02  0.26135989937E+02  0.00000000000E+00 0.  1.
         23    2    1    2    0    0  0.24843150562E+01  0.15746184442E+02  0.61325092526E+03  0.62004060335E+03  0.90108480912E+02 0.  0.
         23    2    1    2    0    0 -0.24843150562E+01 -0.15746184442E+02  0.68859382272E+02  0.11434168405E+03  0.89879319304E+02 0.  0.
          5    1    3    3  502    0 -0.40497611628E+02  0.14619825064E+02  0.20629401211E+03  0.21079161574E+03  0.47000000000E+01 0. -1.
         -5    1    4    4    0  503 -0.24170036232E+02  0.15940554988E+02 -0.61269925186E+01  0.29965346354E+02  0.47000000000E+01 0.  1.
          5    1    4    4  503    0  0.21685721175E+02 -0.31686739431E+02  0.74986374791E+02  0.84376337696E+02  0.47000000000E+01 0. -1.
         -5    1    3    3    0  502  0.42981926684E+02  0.11263593789E+01  0.40695691314E+03  0.40924898761E+03  0.47000000000E+01 0.  1.
<mgrwt>
<rscale>  0 0.91451199E+02</rscale>
<asrwt>0</asrwt>
<pdfrwt beam="1">  1        2 0.10896095E+00 0.91507663E+02</pdfrwt>
<pdfrwt beam="2">  1       -2 0.40209221E-02 0.91507663E+02</pdfrwt>
<totfact> 0.10491527E+04</totfact>
</mgrwt>
</event>
<event>
 8    1  0.7366917E-004  0.1033798E+03  0.7546771E-02  0.1273851E+00
          2   -1    0    0  501    0  0.00000000000E+00  0.00000000000E+00  0.25701867755E+03  0.25701867755E+03  0.00000000000E+00 0. -1.
         -2   -1    0    0    0  501 -0.00000000000E+00 -0.00000000000E+00 -0.65641005576E+02  0.65641005576E+02  0.00000000000E+00 0.  1.
         23    2    1    2    0    0  0.45440365989E+02 -0.48449180230E+01 -0.30852179401E+01  0.10242524489E+03  0.91613929776E+02 0.  0.
         23    2    1    2    0    0 -0.45440365989E+02  0.48449180230E+01  0.19446288991E+03  0.22023443824E+03  0.92731289974E+02 0.  0.
          5    1    3    3  502    0  0.28515276037E+02  0.28801349585E+02  0.31132928593E+02  0.51322392268E+02  0.47000000000E+01 0. -1.
         -5    1    3    3    0  502  0.16925089952E+02 -0.33646267608E+02 -0.34218146533E+02  0.51102852621E+02  0.47000000000E+01 0.  1.
          5    1    4    4  503    0 -0.40931505028E+02 -0.36845909732E+02  0.72422117023E+02  0.91104677168E+02  0.47000000000E+01 0. -1.
         -5    1    4    4    0  503 -0.45088609608E+01  0.41690827755E+02  0.12204077289E+03  0.12912976107E+03  0.47000000000E+01 0.  1.
<mgrwt>
<rscale>  0 0.10312866E+03</rscale>
<asrwt>0</asrwt>
<pdfrwt beam="1">  1        2 0.39541334E-01 0.10337984E+03</pdfrwt>
<pdfrwt beam="2">  1       -2 0.10098616E-01 0.10337984E+03</pdfrwt>
<totfact> 0.78606099E+03</totfact>
</mgrwt>
</event>
<event>
 8    1  0.7366917E-004  0.9465988E+02  0.7546771E-02  0.1292191E+00
          2   -1    0    0  501    0  0.00000000000E+00  0.00000000000E+00  0.24785636885E+03  0.24785636885E+03  0.00000000000E+00 0. -1.
         -2   -1    0    0    0  501 -0.00000000000E+00 -0.00000000000E+00 -0.89402076987E+02  0.89402076987E+02  0.00000000000E+00 0.  1.
         23    2    1    2    0    0 -0.14281352893E+02 -0.25244742135E+02  0.20964583055E+03  0.23002579873E+03  0.90106824221E+02 0.  0.
         23    2    1    2    0    0  0.14281352893E+02  0.25244742135E+02 -0.51191538685E+02  0.10723264710E+03  0.89649388876E+02 0.  0.
          5    1    3    3  502    0 -0.52071028465E+02 -0.16102856092E+02  0.13652526508E+03  0.14707797926E+03  0.47000000000E+01 0. -1.
         -5    1    4    4    0  503 -0.24881457003E+02  0.43832026691E+02 -0.27381357459E+02  0.57551387496E+02  0.47000000000E+01 0.  1.
          5    1    4    4  503    0  0.39162809896E+02 -0.18587284556E+02 -0.23810181226E+02  0.49681259607E+02  0.47000000000E+01 0. -1.
         -5    1    3    3    0  502  0.37789675572E+02 -0.91418860429E+01  0.73120565468E+02  0.82947819469E+02  0.47000000000E+01 0.  1.
<mgrwt>
<rscale>  0 0.94550865E+02</rscale>
<asrwt>0</asrwt>
<pdfrwt beam="1">  1        2 0.38131749E-01 0.94659885E+02</pdfrwt>
<pdfrwt beam="2">  1       -2 0.13754166E-01 0.94659885E+02</pdfrwt>
<totfact> 0.49778618E+03</totfact>
</mgrwt>
</event>
<event>
 8    1  0.7366917E-004  0.9598363E+02  0.7546771E-02  0.1290991E+00
         -2   -1    0    0    0  501 -0.00000000000E+00  0.00000000000E+00  0.39938256974E+03  0.39938256974E+03  0.00000000000E+00 0.  1.
          2   -1    0    0  501    0  0.00000000000E+00 -0.00000000000E+00 -0.22232117800E+02  0.22232117800E+02  0.00000000000E+00 0. -1.
         23    2    1    2    0    0  0.16077543426E+02  0.13819420895E+02  0.19679494554E+03  0.21895458151E+03  0.93613003251E+02 0.  0.
         23    2    1    2    0    0 -0.16077543426E+02 -0.13819420895E+02  0.18035550640E+03  0.20266010603E+03  0.89964137802E+02 0.  0.
          5    1    3    3  502    0  0.39465100650E+02  0.10325732634E+02  0.18930625533E+03  0.19370870716E+03  0.47000000000E+01 0. -1.
         -5    1    4    4    0  503 -0.34399710385E+02 -0.34952657768E+02  0.16088231152E+03  0.16825646056E+03  0.47000000000E+01 0.  1.
          5    1    4    4  503    0  0.18322166959E+02  0.21133236873E+02  0.19473194878E+02  0.34403645469E+02  0.47000000000E+01 0. -1.
         -5    1    3    3    0  502 -0.23387557224E+02  0.34936882614E+01  0.74886902121E+01  0.25245874349E+02  0.47000000000E+01 0.  1.
<mgrwt>
<rscale>  0 0.95082208E+02</rscale>
<asrwt>0</asrwt>
<pdfrwt beam="1">  1        2 0.34203261E-02 0.95983635E+02</pdfrwt>
<pdfrwt beam="2">  1       -2 0.61443467E-01 0.95983635E+02</pdfrwt>
<totfact> 0.60249654E+03</totfact>
</mgrwt>
</event>
<event>
 8    1  0.7366917E-004  0.1245868E+03  0.7546771E-02  0.1235989E+00
         -2   -1    0    0    0  501 -0.00000000000E+00  0.00000000000E+00  0.45848992769E+02  0.45848992769E+02  0.00000000000E+00 0.  1.
          2   -1    0    0  501    0  0.00000000000E+00 -0.00000000000E+00 -0.34793197084E+03  0.34793197084E+03  0.00000000000E+00 0. -1.
         23    2    1    2    0    0 -0.84521161705E+02 -0.47798077660E+01 -0.11519849838E+03  0.16917533175E+03  0.90459524125E+02 0.  0.
         23    2    1    2    0    0  0.84521161705E+02  0.47798077660E+01 -0.18688447968E+03  0.22460563185E+03  0.91406825651E+02 0.  0.
          5    1    4    4  502    0  0.34995263127E+02  0.34536852946E+02 -0.14474167891E+03  0.15293693558E+03  0.47000000000E+01 0. -1.
         -5    1    3    3    0  503 -0.87539823782E+02  0.22984870740E+02 -0.64964385399E+02  0.11150778628E+03  0.47000000000E+01 0.  1.
          5    1    3    3  503    0  0.30186620771E+01 -0.27764678506E+02 -0.50234112985E+02  0.57667545471E+02  0.47000000000E+01 0. -1.
         -5    1    4    4    0  502  0.49525898579E+02 -0.29757045180E+02 -0.42142800776E+02  0.71668696270E+02  0.47000000000E+01 0.  1.
<mgrwt>
<rscale>  0 0.12441314E+03</rscale>
<asrwt>0</asrwt>
<pdfrwt beam="1">  1        2 0.53527997E-01 0.12458684E+03</pdfrwt>
<pdfrwt beam="2">  1       -2 0.70536911E-02 0.12458684E+03</pdfrwt>
<totfact> 0.10083850E+04</totfact>
</mgrwt>
</event>
<event>
 8    1  0.7366917E-004  0.1113756E+03  0.7546771E-02  0.1259411E+00
          2   -1    0    0  501    0  0.00000000000E+00  0.00000000000E+00  0.12928984196E+03  0.12928984196E+03  0.00000000000E+00 0. -1.
         -2   -1    0    0    0  501 -0.00000000000E+00 -0.00000000000E+00 -0.12100718156E+03  0.12100718156E+03  0.00000000000E+00 0.  1.
         23    2    1    2    0    0 -0.59185811086E+02  0.18221801613E+01  0.63944630272E+02  0.12842677341E+03  0.94330481887E+02 0.  0.
         23    2    1    2    0    0  0.59185811086E+02 -0.18221801613E+01 -0.55661969869E+02  0.12187025011E+03  0.90817522525E+02 0.  0.
          5    1    3    3  502    0 -0.23244196158E+02 -0.43912341802E+01  0.83402938759E+02  0.86820019502E+02  0.47000000000E+01 0. -1.
         -5    1    4    4    0  503  0.22880544394E+02  0.42537110226E+02 -0.38211511982E+02  0.61766776718E+02  0.47000000000E+01 0.  1.
          5    1    4    4  503    0  0.36305266692E+02 -0.44359290388E+02 -0.17450457887E+02  0.60103473392E+02  0.47000000000E+01 0. -1.
         -5    1    3    3    0  502 -0.35941614929E+02  0.62134143414E+01 -0.19458308487E+02  0.41606753906E+02  0.47000000000E+01 0.  1.
<mgrwt>
<rscale>  0 0.11062828E+03</rscale>
<asrwt>0</asrwt>
<pdfrwt beam="1">  1        2 0.19890745E-01 0.11137558E+03</pdfrwt>
<pdfrwt beam="2">  1       -2 0.18616490E-01 0.11137558E+03</pdfrwt>
<totfact> 0.62187862E+03</totfact>
</mgrwt>
</event>
<event>
 8    1  0.7366917E-004  0.1038182E+03  0.7546771E-02  0.1274723E+00
         -1   -1    0    0    0  501 -0.00000000000E+00  0.00000000000E+00  0.28228450798E+03  0.28228450798E+03  0.00000000000E+00 0.  1.
          1   -1    0    0  501    0  0.00000000000E+00 -0.00000000000E+00 -0.65757962392E+02  0.65757962392E+02  0.00000000000E+00 0. -1.
         23    2    1    2    0    0 -0.91993898603E+01  0.38357130572E+02  0.22547931859E+03  0.24823204636E+03  0.96032949998E+02 0.  0.
         23    2    1    2    0    0  0.91993898603E+01 -0.38357130572E+02 -0.89527730092E+01  0.99810424012E+02  0.91247303288E+02 0.  0.
          5    1    4    4  502    0 -0.26874467785E+02 -0.32436566636E+02 -0.34760766314E+02  0.54815770984E+02  0.47000000000E+01 0. -1.
         -5    1    3    3    0  503 -0.45941084279E+02  0.24476783206E+02  0.18242660676E+03  0.18976631153E+03  0.47000000000E+01 0.  1.
          5    1    3    3  503    0  0.36741694419E+02  0.13880347366E+02  0.43052711839E+02  0.58465734823E+02  0.47000000000E+01 0. -1.
         -5    1    4    4    0  502  0.36073857645E+02 -0.59205639355E+01  0.25807993304E+02  0.44994653028E+02  0.47000000000E+01 0.  1.
<mgrwt>
<rscale>  0 0.10269769E+03</rscale>
<asrwt>0</asrwt>
<pdfrwt beam="1">  1        1 0.10116610E-01 0.10381823E+03</pdfrwt>
<pdfrwt beam="2">  1       -1 0.43428385E-01 0.10381823E+03</pdfrwt>
<totfact> 0.31871797E+03</totfact>
</mgrwt>
</event>
<event>
 8    1  0.7366917E-004  0.1447097E+03  0.7546771E-02  0.1207369E+00
          3   -1    0    0  501    0  0.00000000000E+00  0.00000000000E+00  0.10983478144E+04  0.10983478144E+04  0.00000000000E+00 0. -1.
         -3   -1    0    0    0  501 -0.00000000000E+00 -0.00000000000E+00 -0.19833702920E+02  0.19833702920E+02  0.00000000000E+00 0.  1.
         23    2    1    2    0    0 -0.54972515632E+02 -0.97860721306E+02  0.65741337108E+03  0.67315171463E+03  0.91335601974E+02 0.  0.
         23    2    1    2    0    0  0.54972515632E+02  0.97860721306E+02  0.42110074038E+03  0.44502980266E+03  0.90149838959E+02 0.  0.
          5    1    4    4  502    0  0.24797009277E+02  0.10776777922E+03  0.30076729700E+03  0.32048688406E+03  0.47000000000E+01 0.  1.
         -5    1    4    4    0  502  0.30175506355E+02 -0.99070579179E+01  0.12033344338E+03  0.12454291861E+03  0.47000000000E+01 0. -1.
          5    1    3    3  503    0 -0.23206126280E+02 -0.10824644399E+03  0.51669364205E+03  0.52844131810E+03  0.47000000000E+01 0. -1.
         -5    1    3    3    0  503 -0.31766389352E+02  0.10385722684E+02  0.14071972902E+03  0.14471039653E+03  0.47000000000E+01 0.  1.
<mgrwt>
<rscale>  0 0.14452295E+03</rscale>
<asrwt>0</asrwt>
<pdfrwt beam="1">  1        3 0.16897654E+00 0.14470968E+03</pdfrwt>
<pdfrwt beam="2">  1       -3 0.30513398E-02 0.14470968E+03</pdfrwt>
<totfact> 0.29645457E+02</totfact>
</mgrwt>
</event>
<event>
 8    1  0.7366917E-004  0.2441647E+03  0.7546771E-02  0.1117249E+00
         -1   -1    0    0    0  501 -0.00000000000E+00  0.00000000000E+00  0.47366692069E+02  0.47366692069E+02  0.00000000000E+00 0.  1.
          1   -1    0    0  501    0  0.00000000000E+00 -0.00000000000E+00 -0.18617565084E+04  0.18617565084E+04  0.00000000000E+00 0. -1.
         23    2    1    2    0    0  0.12956453895E+03 -0.18398612938E+03 -0.14518071441E+04  0.14719932331E+04  0.91554514126E+02 0.  0.
         23    2    1    2    0    0 -0.12956453895E+03  0.18398612938E+03 -0.36258267222E+03  0.43712996736E+03  0.94755203649E+02 0.  0.
          5    1    4    4  502    0 -0.66772820155E+02  0.23488584109E+02 -0.12246031244E+03  0.14152364191E+03  0.47000000000E+01 0. -1.
         -5    1    4    4    0  502 -0.62791718793E+02  0.16049754527E+03 -0.24012235977E+03  0.29560632546E+03  0.47000000000E+01 0.  1.
          5    1    3    3  503    0  0.12769211586E+03 -0.13561038373E+03 -0.96971842921E+03  0.98745702416E+03  0.47000000000E+01 0. -1.
         -5    1    3    3    0  503  0.18724230826E+01 -0.48375745643E+02 -0.48208871489E+03  0.48453620893E+03  0.47000000000E+01 0.  1.
<mgrwt>
<rscale>  0 0.24385810E+03</rscale>
<asrwt>0</asrwt>
<pdfrwt beam="1">  1        1 0.28642406E+00 0.24416473E+03</pdfrwt>
<pdfrwt beam="2">  1       -1 0.72871839E-02 0.24416473E+03</pdfrwt>
<totfact> 0.41436285E+02</totfact>
</mgrwt>
</event>
<event>
 8    1  0.7366917E-004  0.9503527E+02  0.7546771E-02  0.1293122E+00
          1   -1    0    0  501    0  0.00000000000E+00  0.00000000000E+00  0.16812043978E+03  0.16812043978E+03  0.00000000000E+00 0. -1.
         -1   -1    0    0    0  501 -0.00000000000E+00 -0.00000000000E+00 -0.55356587425E+02  0.55356587425E+02  0.00000000000E+00 0.  1.
         23    2    1    2    0    0  0.49977019379E+01  0.29150511547E+02  0.85907936169E+02  0.12810884630E+03  0.90315965668E+02 0.  0.
         23    2    1    2    0    0 -0.49977019379E+01 -0.29150511547E+02  0.26855916187E+02  0.95368180909E+02  0.86597461554E+02 0.  0.
          5    1    4    4  502    0 -0.21971688670E+02 -0.54561314979E+02  0.90703722894E+01  0.59699697224E+02  0.47000000000E+01 0. -1.
         -5    1    3    3    0  503  0.46572341892E+02  0.66361987147E+01  0.47452010127E+02  0.66983620593E+02  0.47000000000E+01 0.  1.
          5    1    3    3  503    0 -0.41574639954E+02  0.22514312832E+02  0.38455926043E+02  0.61125225704E+02  0.47000000000E+01 0. -1.
         -5    1    4    4    0  502  0.16973986732E+02  0.25410803432E+02  0.17785543897E+02  0.35668483685E+02  0.47000000000E+01 0.  1.
<mgrwt>
<rscale>  0 0.94141099E+02</rscale>
<asrwt>0</asrwt>
<pdfrwt beam="1">  1        1 0.25864683E-01 0.95035272E+02</pdfrwt>
<pdfrwt beam="2">  1       -1 0.85163982E-02 0.95035272E+02</pdfrwt>
<totfact> 0.12971326E+04</totfact>
</mgrwt>
</event>
<event>
 8    1  0.7366917E-004  0.9654601E+02  0.7546771E-02  0.1288370E+00
         -2   -1    0    0    0  501 -0.00000000000E+00  0.00000000000E+00  0.22956575531E+02  0.22956575531E+02  0.00000000000E+00 0.  1.
          2   -1    0    0  501    0  0.00000000000E+00 -0.00000000000E+00 -0.52092608443E+03  0.52092608443E+03  0.00000000000E+00 0. -1.
         23    2    1    2    0    0  0.13641999237E+02  0.24263391832E+02 -0.11746700189E+03  0.15132273993E+03  0.91242855939E+02 0.  0.
         23    2    1    2    0    0 -0.13641999237E+02 -0.24263391832E+02 -0.38050250701E+03  0.39255992003E+03  0.92446290618E+02 0.  0.
          5    1    4    4  502    0 -0.27707502122E+02 -0.50024097957E+02 -0.32053254002E+03  0.32562757141E+03  0.47000000000E+01 0. -1.
         -5    1    3    3    0  503  0.18823041656E+02  0.51585043735E+02 -0.37850567803E+02  0.66858650280E+02  0.47000000000E+01 0.  1.
          5    1    3    3  503    0 -0.51810424184E+01 -0.27321651903E+02 -0.79616434085E+02  0.84464089646E+02  0.47000000000E+01 0. -1.
         -5    1    4    4    0  502  0.14065502885E+02  0.25760706125E+02 -0.59969966987E+02  0.66932348621E+02  0.47000000000E+01 0.  1.
<mgrwt>
<rscale>  0 0.96256792E+02</rscale>
<asrwt>0</asrwt>
<pdfrwt beam="1">  1        2 0.80142465E-01 0.96546015E+02</pdfrwt>
<pdfrwt beam="2">  1       -2 0.35317813E-02 0.96546015E+02</pdfrwt>
<totfact> 0.18018441E+04</totfact>
</mgrwt>
</event>
<event>
 8    1  0.7366917E-004  0.9420618E+02  0.7546771E-02  0.1295216E+00
          2   -1    0    0  501    0  0.00000000000E+00  0.00000000000E+00  0.85129591443E+02  0.85129591443E+02  0.00000000000E+00 0. -1.
         -2   -1    0    0    0  501 -0.00000000000E+00 -0.00000000000E+00 -0.41016663663E+03  0.41016663663E+03  0.00000000000E+00 0.  1.
         23    2    1    2    0    0  0.25161032866E+02  0.68264938991E+01 -0.37867570944E+03  0.39021801241E+03  0.90526933545E+02 0.  0.
         23    2    1    2    0    0 -0.25161032866E+02 -0.68264938991E+01  0.53638664250E+02  0.10507821566E+03  0.86513851554E+02 0.  0.
          5    1    4    4  502    0  0.14806617797E+02 -0.27324578349E+02  0.50912258391E+02  0.59833239650E+02  0.47000000000E+01 0. -1.
         -5    1    4    4    0  502 -0.39967650663E+02  0.20498084450E+02  0.27264058598E+01  0.45244976015E+02  0.47000000000E+01 0.  1.
          5    1    3    3  503    0 -0.75576348968E+01  0.38709817328E+02 -0.96907954932E+02  0.10473208454E+03  0.47000000000E+01 0. -1.
         -5    1    3    3    0  503  0.32718667763E+02 -0.31883323429E+02 -0.28176775451E+03  0.28548592787E+03  0.47000000000E+01 0.  1.
<mgrwt>
<rscale>  0 0.93228690E+02</rscale>
<asrwt>0</asrwt>
<pdfrwt beam="1">  1        2 0.13096860E-01 0.94206180E+02</pdfrwt>
<pdfrwt beam="2">  1       -2 0.63102560E-01 0.94206180E+02</pdfrwt>
<totfact> 0.10524469E+03</totfact>
</mgrwt>
</event>
<event>
 8    1  0.7366917E-004  0.1082859E+03  0.7546771E-02  0.1263923E+00
          3   -1    0    0  501    0  0.00000000000E+00  0.00000000000E+00  0.40377720054E+02  0.40377720054E+02  0.00000000000E+00 0. -1.
         -3   -1    0    0    0  501 -0.00000000000E+00 -0.00000000000E+00 -0.31162950887E+03  0.31162950887E+03  0.00000000000E+00 0.  1.
         23    2    1    2    0    0 -0.54291518507E+02  0.19632206189E+02 -0.18226316807E+03  0.21184726209E+03  0.91249150769E+02 0.  0.
         23    2    1    2    0    0  0.54291518507E+02 -0.19632206189E+02 -0.88988620742E+02  0.14015996684E+03  0.91612494674E+02 0.  0.
          5    1    3    3  502    0 -0.41816590237E+02 -0.29201810500E+02 -0.56404743173E+02  0.76190275022E+02  0.47000000000E+01 0. -1.
         -5    1    4    4    0  503  0.65667420144E+02 -0.41667876268E+02 -0.83738562023E+02  0.11437945074E+03  0.47000000000E+01 0.  1.
          5    1    4    4  503    0 -0.11375901636E+02  0.22035670079E+02 -0.52500587196E+01  0.25780516101E+02  0.47000000000E+01 0. -1.
         -5    1    3    3    0  502 -0.12474928270E+02  0.48834016689E+02 -0.12585842490E+03  0.13565698706E+03  0.47000000000E+01 0.  1.
<mgrwt>
<rscale>  0 0.10820904E+03</rscale>
<asrwt>0</asrwt>
<pdfrwt beam="1">  1        3 0.62119571E-02 0.10828593E+03</pdfrwt>
<pdfrwt beam="2">  1       -3 0.47943000E-01 0.10828593E+03</pdfrwt>
<totfact> 0.15449007E+03</totfact>
</mgrwt>
</event>
<event>
 8    1  0.7366917E-004  0.9498801E+02  0.7546771E-02  0.1292067E+00
         -2   -1    0    0    0  501 -0.00000000000E+00  0.00000000000E+00  0.11720310381E+03  0.11720310381E+03  0.00000000000E+00 0.  1.
          2   -1    0    0  501    0  0.00000000000E+00 -0.00000000000E+00 -0.48747515877E+03  0.48747515877E+03  0.00000000000E+00 0. -1.
         23    2    1    2    0    0 -0.25933550665E+02  0.67276446082E+01  0.92949756106E+02  0.13181764105E+03  0.89545648019E+02 0.  0.
         23    2    1    2    0    0  0.25933550665E+02 -0.67276446082E+01 -0.46322181106E+03  0.47286062154E+03  0.91131283903E+02 0.  0.
          5    1    4    4  502    0  0.19854299192E+02  0.31777220824E+02 -0.36697561729E+03  0.36891351106E+03  0.47000000000E+01 0. -1.
         -5    1    4    4    0  502  0.60792514727E+01 -0.38504865433E+02 -0.96246193774E+02  0.10394711048E+03  0.47000000000E+01 0.  1.
          5    1    3    3  503    0 -0.15549953535E+02 -0.21784813442E+02 -0.63261735451E+01  0.27901426906E+02  0.47000000000E+01 0. -1.
         -5    1    3    3    0  503 -0.10383597130E+02  0.28512458050E+02  0.99275929651E+02  0.10391621414E+03  0.47000000000E+01 0.  1.
<mgrwt>
<rscale>  0 0.94605657E+02</rscale>
<asrwt>0</asrwt>
<pdfrwt beam="1">  1        2 0.74996177E-01 0.94988005E+02</pdfrwt>
<pdfrwt beam="2">  1       -2 0.18031247E-01 0.94988005E+02</pdfrwt>
<totfact> 0.15706563E+03</totfact>
</mgrwt>
</event>
<event>
 8    1  0.7366917E-004  0.1004532E+03  0.7546771E-02  0.1279900E+00
         -2   -1    0    0    0  501 -0.00000000000E+00  0.00000000000E+00  0.47680020832E+03  0.47680020832E+03  0.00000000000E+00 0.  1.
          2   -1    0    0  501    0  0.00000000000E+00 -0.00000000000E+00 -0.50158600631E+02  0.50158600631E+02  0.00000000000E+00 0. -1.
         23    2    1    2    0    0  0.33944256765E+02  0.21453788478E+02  0.41393852688E+03  0.42570556701E+03  0.90926608583E+02 0.  0.
         23    2    1    2    0    0 -0.33944256765E+02 -0.21453788478E+02  0.12703080815E+02  0.10125324194E+03  0.92078081720E+02 0.  0.
          5    1    3    3  502    0  0.10892786547E+01 -0.34150239188E+02  0.15530471237E+03  0.15908824296E+03  0.47000000000E+01 0. -1.
         -5    1    4    4    0  503 -0.32273645489E+02  0.31903269378E+02  0.13759487978E+02  0.47653124762E+02  0.47000000000E+01 0.  1.
          5    1    4    4  503    0 -0.16706112766E+01 -0.53357057856E+02 -0.10564071633E+01  0.53600117175E+02  0.47000000000E+01 0. -1.
         -5    1    3    3    0  502  0.32854978111E+02  0.55604027666E+02  0.25863381451E+03  0.26661732405E+03  0.47000000000E+01 0.  1.
<mgrwt>
<rscale>  0 0.10018858E+03</rscale>
<asrwt>0</asrwt>
<pdfrwt beam="1">  1        2 0.77167081E-02 0.10045323E+03</pdfrwt>
<pdfrwt beam="2">  1       -2 0.73353875E-01 0.10045323E+03</pdfrwt>
<totfact> 0.14628869E+03</totfact>
</mgrwt>
</event>
<event>
 8    1  0.7366917E-004  0.9371633E+02  0.7546771E-02  0.1295767E+00
         -2   -1    0    0    0  501 -0.00000000000E+00  0.00000000000E+00  0.22603060857E+03  0.22603060857E+03  0.00000000000E+00 0.  1.
          2   -1    0    0  501    0  0.00000000000E+00 -0.00000000000E+00 -0.11702477804E+03  0.11702477804E+03  0.00000000000E+00 0. -1.
         23    2    1    2    0    0  0.77908757919E+01 -0.14168430186E+02  0.19601272918E+03  0.21726421692E+03  0.92310929986E+02 0.  0.
         23    2    1    2    0    0 -0.77908757919E+01  0.14168430186E+02 -0.87006898657E+02  0.12579116969E+03  0.89396732593E+02 0.  0.
          5    1    3    3  502    0  0.38603854240E+01  0.23212501565E+02  0.16910797130E+03  0.17080198700E+03  0.47000000000E+01 0.  1.
         -5    1    3    3    0  502  0.39304903679E+01 -0.37380931751E+02  0.26904757877E+02  0.46462229924E+02  0.47000000000E+01 0.  1.
          5    1    4    4  503    0  0.38679340309E+02 -0.68292583967E+01 -0.35322467849E+02  0.53032979097E+02  0.47000000000E+01 0. -1.
         -5    1    4    4    0  503 -0.46470216101E+02  0.20997688583E+02 -0.51684430809E+02  0.72758190593E+02  0.47000000000E+01 0.  1.
<mgrwt>
<rscale>  0 0.92990666E+02</rscale>
<asrwt>0</asrwt>
<pdfrwt beam="1">  1        2 0.18003812E-01 0.93716327E+02</pdfrwt>
<pdfrwt beam="2">  1       -2 0.34773940E-01 0.93716327E+02</pdfrwt>
<totfact> 0.23153533E+03</totfact>
</mgrwt>
</event>
<event>
 8    1  0.7366917E-004  0.1217034E+03  0.7546771E-02  0.1242060E+00
          3   -1    0    0  501    0  0.00000000000E+00  0.00000000000E+00  0.55432835603E+03  0.55432835603E+03  0.00000000000E+00 0. -1.
         -3   -1    0    0    0  501 -0.00000000000E+00 -0.00000000000E+00 -0.27919354982E+02  0.27919354982E+02  0.00000000000E+00 0.  1.
         23    2    1    2    0    0  0.44528321101E+02  0.58612383346E+02  0.33911976532E+03  0.35888928976E+03  0.91548480097E+02 0.  0.
         23    2    1    2    0    0 -0.44528321101E+02 -0.58612383346E+02  0.18728923573E+03  0.22335842126E+03  0.96920295426E+02 0.  0.
          5    1    4    4  502    0 -0.27437959317E+02 -0.82819247789E+02  0.16225199564E+03  0.18428149529E+03  0.47000000000E+01 0. -1.
         -5    1    3    3    0  503  0.20060532626E+01 -0.23293815935E+02  0.92544336215E+02  0.95567621483E+02  0.47000000000E+01 0.  1.
          5    1    3    3  503    0  0.42522267838E+02  0.81906199281E+02  0.24657542911E+03  0.26332166827E+03  0.47000000000E+01 0. -1.
         -5    1    4    4    0  502 -0.17090361784E+02  0.24206864443E+02  0.25037240083E+02  0.39076925967E+02  0.47000000000E+01 0.  1.
<mgrwt>
<rscale>  0 0.12063110E+03</rscale>
<asrwt>0</asrwt>
<pdfrwt beam="1">  1        3 0.85281278E-01 0.12170344E+03</pdfrwt>
<pdfrwt beam="2">  1       -3 0.42952858E-02 0.12170344E+03</pdfrwt>
<totfact> 0.85447019E+02</totfact>
</mgrwt>
</event>
<event>
 8    1  0.7366917E-004  0.1134702E+03  0.7546771E-02  0.1254621E+00
         -2   -1    0    0    0  501 -0.00000000000E+00  0.00000000000E+00  0.10525941875E+03  0.10525941875E+03  0.00000000000E+00 0.  1.
          2   -1    0    0  501    0  0.00000000000E+00 -0.00000000000E+00 -0.19649579366E+03  0.19649579366E+03  0.00000000000E+00 0. -1.
         23    2    1    2    0    0  0.21084683079E+02 -0.64260583949E+02 -0.13874061230E+03  0.17874242357E+03  0.90143829367E+02 0.  0.
         23    2    1    2    0    0 -0.21084683079E+02  0.64260583949E+02  0.47504237392E+02  0.12301278884E+03  0.91112606916E+02 0.  0.
          5    1    3    3  502    0 -0.15695709745E+02 -0.16664189835E+02  0.40591914957E+01  0.23719560765E+02  0.47000000000E+01 0.  1.
         -5    1    4    4    0  503 -0.40681682133E+02  0.10970586064E+01  0.38289844374E+02  0.56074994257E+02  0.47000000000E+01 0.  1.
          5    1    4    4  503    0  0.19596999054E+02  0.63163525342E+02  0.92143930189E+01  0.66937794588E+02  0.47000000000E+01 0. -1.
         -5    1    3    3    0  502  0.36780392824E+02 -0.47596394114E+02 -0.14279980380E+03  0.15502286281E+03  0.47000000000E+01 0. -1.
<mgrwt>
<rscale>  0 0.11327563E+03</rscale>
<asrwt>0</asrwt>
<pdfrwt beam="1">  1        2 0.30230122E-01 0.11347023E+03</pdfrwt>
<pdfrwt beam="2">  1       -2 0.16193757E-01 0.11347023E+03</pdfrwt>
<totfact> 0.49496445E+03</totfact>
</mgrwt>
</event>
<event>
 8    1  0.7366917E-004  0.1003011E+03  0.7546771E-02  0.1280228E+00
         -2   -1    0    0    0  501 -0.00000000000E+00  0.00000000000E+00  0.11951322723E+03  0.11951322723E+03  0.00000000000E+00 0.  1.
          2   -1    0    0  501    0  0.00000000000E+00 -0.00000000000E+00 -0.10599414503E+03  0.10599414503E+03  0.00000000000E+00 0. -1.
         23    2    1    2    0    0 -0.34920179944E+02 -0.22342039161E+02  0.58924688768E+02  0.11540746509E+03  0.90156410587E+02 0.  0.
         23    2    1    2    0    0  0.34920179944E+02  0.22342039161E+02 -0.45405606564E+02  0.11009990718E+03  0.91333097897E+02 0.  0.
          5    1    3    3  502    0 -0.27612454103E+02  0.27350820298E+02  0.17904882573E+01  0.39189422562E+02  0.47000000000E+01 0. -1.
         -5    1    4    4    0  503  0.29893918830E+02 -0.31633639543E+02 -0.91730867655E+01  0.44727721321E+02  0.47000000000E+01 0.  1.
          5    1    4    4  503    0  0.50262611134E+01  0.53975678704E+02 -0.36232519799E+02  0.65372185854E+02  0.47000000000E+01 0. -1.
         -5    1    3    3    0  502 -0.73077258406E+01 -0.49692859459E+02  0.57134200511E+02  0.76218042523E+02  0.47000000000E+01 0.  1.
<mgrwt>
<rscale>  0 0.10003250E+03</rscale>
<asrwt>0</asrwt>
<pdfrwt beam="1">  1        2 0.16306791E-01 0.10030115E+03</pdfrwt>
<pdfrwt beam="2">  1       -2 0.18386650E-01 0.10030115E+03</pdfrwt>
<totfact> 0.78902823E+03</totfact>
</mgrwt>
</event>
<event>
 8    1  0.7366917E-004  0.1408602E+03  0.7546771E-02  0.1213176E+00
         -1   -1    0    0    0  501 -0.00000000000E+00  0.00000000000E+00  0.10081848444E+02  0.10081848444E+02  0.00000000000E+00 0.  1.
          1   -1    0    0  501    0  0.00000000000E+00 -0.00000000000E+00 -0.20747178863E+04  0.20747178863E+04  0.00000000000E+00 0. -1.
         23    2    1    2    0    0 -0.10302029860E+03  0.15535843031E+02 -0.74388344565E+03  0.75655690669E+03  0.90339515228E+02 0.  0.
         23    2    1    2    0    0  0.10302029860E+03 -0.15535843031E+02 -0.13207525922E+04  0.13282428280E+04  0.94800084946E+02 0.  0.
          5    1    4    4  502    0  0.11405534600E+03 -0.32518325747E+02 -0.11814467220E+04  0.11873939996E+04  0.47000000000E+01 0. -1.
         -5    1    3    3    0  503  0.81486030308E+01 -0.18506780940E+02 -0.86626384365E+02  0.89079296923E+02  0.47000000000E+01 0. -1.
          5    1    3    3  503    0 -0.11116890163E+03  0.34042623971E+02 -0.65725706128E+03  0.66747760977E+03  0.47000000000E+01 0.  1.
         -5    1    4    4    0  502 -0.11035047398E+02  0.16982482716E+02 -0.13930587020E+03  0.14084882840E+03  0.47000000000E+01 0.  1.
<mgrwt>
<rscale>  0 0.14011367E+03</rscale>
<asrwt>0</asrwt>
<pdfrwt beam="1">  1        1 0.31918743E+00 0.14086022E+03</pdfrwt>
<pdfrwt beam="2">  1       -1 0.15510533E-02 0.14086022E+03</pdfrwt>
<totfact> 0.29917115E+03</totfact>
</mgrwt>
</event>
<event>
 8    1  0.7366917E-004  0.1233748E+03  0.7546771E-02  0.1238801E+00
         -1   -1    0    0    0  501 -0.00000000000E+00  0.00000000000E+00  0.39549647194E+02  0.39549647194E+02  0.00000000000E+00 0.  1.
          1   -1    0    0  501    0  0.00000000000E+00 -0.00000000000E+00 -0.69479808980E+03  0.69479808980E+03  0.00000000000E+00 0. -1.
         23    2    1    2    0    0  0.79713793617E+02 -0.20922335252E+02 -0.76755355248E+02  0.14284490904E+03  0.87870646255E+02 0.  0.
         23    2    1    2    0    0 -0.79713793617E+02  0.20922335252E+02 -0.57849308736E+03  0.59150282796E+03  0.91811275754E+02 0.  0.
          5    1    3    3  502    0  0.88091034355E+02  0.27491479080E+01 -0.77253948264E+02  0.11729386459E+03  0.47000000000E+01 0. -1.
         -5    1    4    4    0  503  0.82173011037E+01  0.33116406941E+02 -0.15529424810E+03  0.15906795384E+03  0.47000000000E+01 0.  1.
          5    1    4    4  503    0 -0.87931094720E+02 -0.12194071690E+02 -0.42319883926E+03  0.43243487412E+03  0.47000000000E+01 0. -1.
         -5    1    3    3    0  502 -0.83772407381E+01 -0.23671483160E+02  0.49859301571E+00  0.25551044447E+02  0.47000000000E+01 0.  1.
<mgrwt>
<rscale>  0 0.12264238E+03</rscale>
<asrwt>0</asrwt>
<pdfrwt beam="1">  1        1 0.10689200E+00 0.12337481E+03</pdfrwt>
<pdfrwt beam="2">  1       -1 0.60845618E-02 0.12337481E+03</pdfrwt>
<totfact> 0.36207744E+03</totfact>
</mgrwt>
</event>
<event>
 8    1  0.7366917E-004  0.9368242E+02  0.7546771E-02  0.1295405E+00
          3   -1    0    0  501    0  0.00000000000E+00  0.00000000000E+00  0.76363534809E+02  0.76363534809E+02  0.00000000000E+00 0. -1.
         -3   -1    0    0    0  501 -0.00000000000E+00 -0.00000000000E+00 -0.11282344027E+03  0.11282344027E+03  0.00000000000E+00 0.  1.
         23    2    1    2    0    0  0.39631726120E+01 -0.66218817388E+01 -0.11823044683E+02  0.92319177508E+02  0.91233163352E+02 0.  0.
         23    2    1    2    0    0 -0.39631726120E+01  0.66218817388E+01 -0.24636860775E+02  0.96867797569E+02  0.93364014707E+02 0.  0.
          5    1    3    3  502    0  0.45368605374E+02 -0.10881043549E+02 -0.17494554287E+02  0.50048545353E+02  0.47000000000E+01 0.  1.
         -5    1    4    4    0  503  0.29854557999E+02 -0.30253007786E+02 -0.55949710299E+01  0.43126938382E+02  0.47000000000E+01 0.  1.
          5    1    4    4  503    0 -0.33817730611E+02  0.36874889525E+02 -0.19041889745E+02  0.53740859187E+02  0.47000000000E+01 0. -1.
         -5    1    3    3    0  502 -0.41405432762E+02  0.42591618107E+01  0.56715096036E+01  0.42270632154E+02  0.47000000000E+01 0. -1.
<mgrwt>
<rscale>  0 0.93146984E+02</rscale>
<asrwt>0</asrwt>
<pdfrwt beam="1">  1        3 0.11748236E-01 0.93682417E+02</pdfrwt>
<pdfrwt beam="2">  1       -3 0.17357452E-01 0.93682417E+02</pdfrwt>
<totfact> 0.34357603E+03</totfact>
</mgrwt>
</event>
<event>
 8    1  0.7366917E-004  0.9138200E+02  0.7546771E-02  0.1299972E+00
          1   -1    0    0  501    0  0.00000000000E+00  0.00000000000E+00  0.65790538075E+03  0.65790538075E+03  0.00000000000E+00 0. -1.
         -1   -1    0    0    0  501 -0.00000000000E+00 -0.00000000000E+00 -0.17437662663E+02  0.17437662663E+02  0.00000000000E+00 0.  1.
         23    2    1    2    0    0  0.46759302007E+01 -0.47990311385E+01  0.14315753090E+03  0.16983741605E+03  0.91136020388E+02 0.  0.
         23    2    1    2    0    0 -0.46759302007E+01  0.47990311385E+01  0.49731018718E+03  0.50550562737E+03  0.90408085915E+02 0.  0.
          5    1    4    4  502    0  0.29378821860E+02 -0.20292229481E+02  0.35883119956E+03  0.36063389958E+03  0.47000000000E+01 0. -1.
         -5    1    4    4    0  502 -0.34054752061E+02  0.25091260619E+02  0.13847898763E+03  0.14487172778E+03  0.47000000000E+01 0.  1.
          5    1    3    3  503    0  0.10027022945E+02 -0.47067777892E+02  0.70786387394E+02  0.85724672908E+02  0.47000000000E+01 0. -1.
         -5    1    3    3    0  503 -0.53510927443E+01  0.42268746753E+02  0.72371143506E+02  0.84112743137E+02  0.47000000000E+01 0.  1.
<mgrwt>
<rscale>  0 0.91199963E+02</rscale>
<asrwt>0</asrwt>
<pdfrwt beam="1">  1        1 0.10121619E+00 0.91381996E+02</pdfrwt>
<pdfrwt beam="2">  1       -1 0.26827178E-02 0.91381996E+02</pdfrwt>
<totfact> 0.12681026E+04</totfact>
</mgrwt>
</event>
<event>
 8    1  0.7366917E-004  0.2005540E+03  0.7546771E-02  0.1149581E+00
          2   -1    0    0  501    0  0.00000000000E+00  0.00000000000E+00  0.71885602744E+03  0.71885602744E+03  0.00000000000E+00 0. -1.
         -2   -1    0    0    0  501 -0.00000000000E+00 -0.00000000000E+00 -0.57929740427E+02  0.57929740427E+02  0.00000000000E+00 0.  1.
         23    2    1    2    0    0  0.12811173851E+03  0.12358680316E+03  0.25282136647E+03  0.32270816223E+03  0.92388306444E+02 0.  0.
         23    2    1    2    0    0 -0.12811173851E+03 -0.12358680316E+03  0.40810492055E+03  0.45407760564E+03  0.89165746259E+02 0.  0.
          5    1    3    3  502    0  0.61193386810E+02  0.18311429306E+02  0.14202483553E+03  0.15579821225E+03  0.47000000000E+01 0. -1.
         -5    1    3    3    0  502  0.66918351701E+02  0.10527537386E+03  0.11079653094E+03  0.16690994998E+03  0.47000000000E+01 0.  1.
          5    1    4    4  503    0 -0.81335140044E+02 -0.12607010532E+03  0.33547008602E+03  0.36752053695E+03  0.47000000000E+01 0. -1.
         -5    1    4    4    0  503 -0.46776598467E+02  0.24833021590E+01  0.72634834525E+02  0.86557068690E+02  0.47000000000E+01 0.  1.
<mgrwt>
<rscale>  0 0.20018702E+03</rscale>
<asrwt>0</asrwt>
<pdfrwt beam="1">  1        2 0.11059323E+00 0.20055402E+03</pdfrwt>
<pdfrwt beam="2">  1       -2 0.89122683E-02 0.20055402E+03</pdfrwt>
<totfact> 0.32030883E+03</totfact>
</mgrwt>
</event>
<event>
 8    1  0.7366917E-004  0.9674180E+02  0.7546771E-02  0.1288180E+00
          1   -1    0    0  501    0  0.00000000000E+00  0.00000000000E+00  0.15433403824E+03  0.15433403824E+03  0.00000000000E+00 0. -1.
         -1   -1    0    0    0  501 -0.00000000000E+00 -0.00000000000E+00 -0.59652610034E+02  0.59652610034E+02  0.00000000000E+00 0.  1.
         23    2    1    2    0    0  0.19267815260E+02 -0.22788700338E+02  0.47109868803E+02  0.10760258105E+03  0.92023921571E+02 0.  0.
         23    2    1    2    0    0 -0.19267815260E+02  0.22788700338E+02  0.47571559401E+02  0.10638406722E+03  0.90354540159E+02 0.  0.
          5    1    4    4  502    0  0.31420692755E+02  0.25858028600E+02  0.34950306252E+02  0.53847112118E+02  0.47000000000E+01 0. -1.
         -5    1    4    4    0  502 -0.50688508015E+02 -0.30693282627E+01  0.12621253149E+02  0.52536955107E+02  0.47000000000E+01 0.  1.
          5    1    3    3  503    0  0.14279030379E+02  0.27350456455E+02  0.47689255340E+02  0.56993800117E+02  0.47000000000E+01 0. -1.
         -5    1    3    3    0  503  0.49887848816E+01 -0.50139156793E+02 -0.57938653675E+00  0.50608780930E+02  0.47000000000E+01 0.  1.
<mgrwt>
<rscale>  0 0.96342692E+02</rscale>
<asrwt>0</asrwt>
<pdfrwt beam="1">  1        1 0.23743698E-01 0.96741799E+02</pdfrwt>
<pdfrwt beam="2">  1       -1 0.91773247E-02 0.96741799E+02</pdfrwt>
<totfact> 0.12916075E+04</totfact>
</mgrwt>
</event>
<event>
 8    1  0.7366917E-004  0.1130959E+03  0.7546771E-02  0.1255341E+00
         -1   -1    0    0    0  501 -0.00000000000E+00  0.00000000000E+00  0.19496323661E+02  0.19496323661E+02  0.00000000000E+00 0.  1.
          1   -1    0    0  501    0  0.00000000000E+00 -0.00000000000E+00 -0.66229556225E+03  0.66229556225E+03  0.00000000000E+00 0. -1.
         23    2    1    2    0    0 -0.31494135990E+02  0.57953726370E+02 -0.36736770963E+03  0.38438226508E+03  0.91870433933E+02 0.  0.
         23    2    1    2    0    0  0.31494135990E+02 -0.57953726370E+02 -0.27543152897E+03  0.29740962083E+03  0.90771363402E+02 0.  0.
          5    1    3    3  502    0  0.21217552393E+02  0.12175560498E+02 -0.21820809488E+03  0.21962534342E+03  0.47000000000E+01 0. -1.
         -5    1    3    3    0  502 -0.52711688383E+02  0.45778165873E+02 -0.14915961475E+03  0.16475692166E+03  0.47000000000E+01 0.  1.
          5    1    4    4  503    0  0.19137872892E+02  0.16300922675E+02 -0.24605680763E+02  0.35489544723E+02  0.47000000000E+01 0. -1.
         -5    1    4    4    0  503  0.12356263098E+02 -0.74254649045E+02 -0.25082584820E+03  0.26192007611E+03  0.47000000000E+01 0.  1.
<mgrwt>
<rscale>  0 0.11287254E+03</rscale>
<asrwt>0</asrwt>
<pdfrwt beam="1">  1        1 0.10189163E+00 0.11309594E+03</pdfrwt>
<pdfrwt beam="2">  1       -1 0.29994343E-02 0.11309594E+03</pdfrwt>
<totfact> 0.10875768E+04</totfact>
</mgrwt>
</event>
<event>
 8    1  0.7366917E-004  0.1221714E+03  0.7546771E-02  0.1247423E+00
         -2   -1    0    0    0  501 -0.00000000000E+00  0.00000000000E+00  0.17357225930E+02  0.17357225930E+02  0.00000000000E+00 0.  1.
          2   -1    0    0  501    0  0.00000000000E+00 -0.00000000000E+00 -0.77021833931E+03  0.77021833931E+03  0.00000000000E+00 0. -1.
         23    2    1    2    0    0 -0.47865339129E+02  0.96043828838E+01 -0.42778940041E+03  0.44030411782E+03  0.92090228596E+02 0.  0.
         23    2    1    2    0    0  0.47865339129E+02 -0.96043828838E+01 -0.32507171297E+03  0.34727144742E+03  0.11199332463E+03 0.  0.
          5    1    3    3  502    0 -0.53758210943E+02 -0.13095311336E+02 -0.39913376889E+03  0.40297802408E+03  0.47000000000E+01 0. -1.
         -5    1    4    4    0  503  0.30326196003E+02 -0.60368214649E+02 -0.16466496461E+03  0.17804673565E+03  0.47000000000E+01 0.  1.
          5    1    4    4  503    0  0.17539143125E+02  0.50763831765E+02 -0.16040674836E+03  0.16922471177E+03  0.47000000000E+01 0. -1.
         -5    1    3    3    0  502  0.58928718143E+01  0.22699694220E+02 -0.28655631521E+02  0.37326093739E+02  0.47000000000E+01 0.  1.
<mgrwt>
<rscale>  0 0.11741551E+03</rscale>
<asrwt>0</asrwt>
<pdfrwt beam="1">  1        2 0.11849512E+00 0.12217135E+03</pdfrwt>
<pdfrwt beam="2">  1       -2 0.26703426E-02 0.12217135E+03</pdfrwt>
<totfact> 0.17674009E+04</totfact>
</mgrwt>
</event>
<event>
 8    1  0.7366917E-004  0.9582811E+02  0.7546771E-02  0.1289977E+00
          3   -1    0    0  501    0  0.00000000000E+00  0.00000000000E+00  0.11659250337E+03  0.11659250337E+03  0.00000000000E+00 0. -1.
         -3   -1    0    0    0  501 -0.00000000000E+00 -0.00000000000E+00 -0.89388985100E+02  0.89388985100E+02  0.00000000000E+00 0.  1.
         23    2    1    2    0    0 -0.15900804432E+02  0.23696823127E+02  0.50751964316E+02  0.10843794663E+03  0.91480333292E+02 0.  0.
         23    2    1    2    0    0  0.15900804432E+02 -0.23696823127E+02 -0.23548446046E+02  0.97543541841E+02  0.90254297603E+02 0.  0.
          5    1    3    3  502    0  0.16206231356E+02  0.46357817030E+02  0.76536287182E+01  0.49923513169E+02  0.47000000000E+01 0. -1.
         -5    1    4    4    0  503  0.15737271407E+02 -0.45322301022E+02  0.17191859656E+02  0.51180296205E+02  0.47000000000E+01 0.  1.
          5    1    4    4  503    0  0.16353302461E+00  0.21625477894E+02 -0.40740305702E+02  0.46363245636E+02  0.47000000000E+01 0. -1.
         -5    1    3    3    0  502 -0.32107035788E+02 -0.22660993903E+02  0.43098335598E+02  0.58514433460E+02  0.47000000000E+01 0.  1.
<mgrwt>
<rscale>  0 0.95534334E+02</rscale>
<asrwt>0</asrwt>
<pdfrwt beam="1">  1        3 0.17937308E-01 0.95828109E+02</pdfrwt>
<pdfrwt beam="2">  1       -3 0.13752152E-01 0.95828109E+02</pdfrwt>
<totfact> 0.25071582E+03</totfact>
</mgrwt>
</event>
<event>
 8    1  0.7366917E-004  0.1807383E+03  0.7546771E-02  0.1167230E+00
         -3   -1    0    0    0  501 -0.00000000000E+00  0.00000000000E+00  0.81531934326E+02  0.81531934326E+02  0.00000000000E+00 0.  1.
          3   -1    0    0  501    0  0.00000000000E+00 -0.00000000000E+00 -0.40129207814E+03  0.40129207814E+03  0.00000000000E+00 0. -1.
         23    2    1    2    0    0  0.63314647179E+02 -0.14221556449E+03 -0.17630721255E+03  0.25207505871E+03  0.90684015667E+02 0.  0.
         23    2    1    2    0    0 -0.63314647179E+02  0.14221556449E+03 -0.14345293127E+03  0.23074895376E+03  0.91827691036E+02 0.  0.
          5    1    3    3  502    0  0.37575294462E+02 -0.92588449861E+01 -0.68898294876E+02  0.79162453229E+02  0.47000000000E+01 0. -1.
         -5    1    3    3    0  502  0.25739352717E+02 -0.13295671950E+03 -0.10740891767E+03  0.17291260548E+03  0.47000000000E+01 0.  1.
          5    1    4    4  503    0 -0.86280581658E+02  0.98743700909E+02 -0.10018122864E+03  0.16508490486E+03  0.47000000000E+01 0. -1.
         -5    1    4    4    0  503  0.22965934479E+02  0.43471863579E+02 -0.43271702624E+02  0.65664048897E+02  0.47000000000E+01 0.  1.
<mgrwt>
<rscale>  0 0.18059354E+03</rscale>
<asrwt>0</asrwt>
<pdfrwt beam="1">  1        3 0.61737245E-01 0.18073831E+03</pdfrwt>
<pdfrwt beam="2">  1       -3 0.12543374E-01 0.18073831E+03</pdfrwt>
<totfact> 0.31580370E+02</totfact>
</mgrwt>
</event>
<event>
 8    1  0.7366917E-004  0.9301905E+02  0.7546771E-02  0.1296050E+00
         -3   -1    0    0    0  501 -0.00000000000E+00  0.00000000000E+00  0.25662105616E+02  0.25662105616E+02  0.00000000000E+00 0.  1.
          3   -1    0    0  501    0  0.00000000000E+00 -0.00000000000E+00 -0.38620519033E+03  0.38620519033E+03  0.00000000000E+00 0. -1.
         23    2    1    2    0    0 -0.15235984736E+01 -0.15685393890E+02 -0.10478199900E+03  0.13971609559E+03  0.91065729665E+02 0.  0.
         23    2    1    2    0    0  0.15235984736E+01  0.15685393890E+02 -0.25576108571E+03  0.27215120035E+03  0.91674369126E+02 0.  0.
          5    1    3    3  502    0  0.42171302818E+02  0.69039465981E+01 -0.50055688991E+02  0.65982916428E+02  0.47000000000E+01 0. -1.
         -5    1    4    4    0  503 -0.32538900029E+02  0.80987540355E+00 -0.34206009501E+02  0.47450785022E+02  0.47000000000E+01 0.  1.
          5    1    4    4  503    0  0.34062498502E+02  0.14875518486E+02 -0.22155507621E+03  0.22470041533E+03  0.47000000000E+01 0. -1.
         -5    1    3    3    0  502 -0.43694901291E+02 -0.22589340488E+02 -0.54726310012E+02  0.73733179167E+02  0.47000000000E+01 0.  1.
<mgrwt>
<rscale>  0 0.92868736E+02</rscale>
<asrwt>0</asrwt>
<pdfrwt beam="1">  1        3 0.59416181E-01 0.93019046E+02</pdfrwt>
<pdfrwt beam="2">  1       -3 0.39480164E-02 0.93019046E+02</pdfrwt>
<totfact> 0.19903948E+03</totfact>
</mgrwt>
</event>
<event>
 8    1  0.7366917E-004  0.1092997E+03  0.7546771E-02  0.1261992E+00
          1   -1    0    0  501    0  0.00000000000E+00  0.00000000000E+00  0.12322803450E+04  0.12322803450E+04  0.00000000000E+00 0. -1.
         -1   -1    0    0    0  501 -0.00000000000E+00 -0.00000000000E+00 -0.99720205912E+01  0.99720205912E+01  0.00000000000E+00 0.  1.
         23    2    1    2    0    0 -0.59296397868E+02 -0.21164474129E+02  0.50269993927E+03  0.51439066021E+03  0.89031031672E+02 0.  0.
         23    2    1    2    0    0  0.59296397868E+02  0.21164474129E+02  0.71960838517E+03  0.72786170542E+03  0.89344481859E+02 0.  0.
          5    1    4    4  502    0 -0.66858100260E+01 -0.24920991767E+02  0.25126274601E+03  0.25262781600E+03  0.47000000000E+01 0. -1.
         -5    1    3    3    0  503  0.10262251373E+02 -0.33790437193E+02  0.22456367470E+03  0.22737203312E+03  0.47000000000E+01 0.  1.
          5    1    3    3  503    0 -0.69558649241E+02  0.12625963064E+02  0.27813626457E+03  0.28701862709E+03  0.47000000000E+01 0. -1.
         -5    1    4    4    0  502  0.65982207894E+02  0.46085465896E+02  0.46834563916E+03  0.47523388941E+03  0.47000000000E+01 0.  1.
<mgrwt>
<rscale>  0 0.10923567E+03</rscale>
<asrwt>0</asrwt>
<pdfrwt beam="1">  1        1 0.18958147E+00 0.10929974E+03</pdfrwt>
<pdfrwt beam="2">  1       -1 0.15341580E-02 0.10929974E+03</pdfrwt>
<totfact> 0.10498267E+04</totfact>
</mgrwt>
</event>
<event>
 8    1  0.7366917E-004  0.9386935E+02  0.7546771E-02  0.1293949E+00
         -1   -1    0    0    0  501 -0.00000000000E+00  0.00000000000E+00  0.11597372524E+02  0.11597372524E+02  0.00000000000E+00 0.  1.
          1   -1    0    0  501    0  0.00000000000E+00 -0.00000000000E+00 -0.84303032607E+03  0.84303032607E+03  0.00000000000E+00 0. -1.
         23    2    1    2    0    0 -0.29122675217E+01  0.18760154125E+02 -0.27982554859E+03  0.29515045732E+03  0.91929484553E+02 0.  0.
         23    2    1    2    0    0  0.29122675217E+01 -0.18760154125E+02 -0.55160740496E+03  0.55947724127E+03  0.91562162554E+02 0.  0.
          5    1    3    3  502    0 -0.30454368137E+02  0.30752250331E+02 -0.24535132961E+03  0.24918373619E+03  0.47000000000E+01 0. -1.
         -5    1    3    3    0  502  0.27542100615E+02 -0.11992096207E+02 -0.34474218977E+02  0.45966721134E+02  0.47000000000E+01 0.  1.
          5    1    4    4  503    0 -0.11922269611E+02 -0.51315497149E+02 -0.40763101138E+03  0.41104811421E+03  0.47000000000E+01 0. -1.
         -5    1    4    4    0  503  0.14834537133E+02  0.32555343024E+02 -0.14397639358E+03  0.14842912706E+03  0.47000000000E+01 0.  1.
<mgrwt>
<rscale>  0 0.93779295E+02</rscale>
<asrwt>0</asrwt>
<pdfrwt beam="1">  1        1 0.12969700E+00 0.93869350E+02</pdfrwt>
<pdfrwt beam="2">  1       -1 0.17842108E-02 0.93869350E+02</pdfrwt>
<totfact> 0.15925486E+04</totfact>
</mgrwt>
</event>
<event>
 8    1  0.7366917E-004  0.9817990E+02  0.7546771E-02  0.1284297E+00
         -1   -1    0    0    0  501 -0.00000000000E+00  0.00000000000E+00  0.14631964128E+02  0.14631964128E+02  0.00000000000E+00 0.  1.
          1   -1    0    0  501    0  0.00000000000E+00 -0.00000000000E+00 -0.65739467113E+03  0.65739467113E+03  0.00000000000E+00 0. -1.
         23    2    1    2    0    0 -0.15676764238E+02 -0.24519896088E+02 -0.32740610565E+03  0.34180996390E+03  0.93767303252E+02 0.  0.
         23    2    1    2    0    0  0.15676764238E+02  0.24519896088E+02 -0.31535660135E+03  0.33021667136E+03  0.93521536503E+02 0.  0.
          5    1    4    4  502    0  0.46136299345E+02 -0.11626502183E+02 -0.12013585804E+03  0.12929983780E+03  0.47000000000E+01 0. -1.
         -5    1    4    4    0  502 -0.30459535107E+02  0.36146398272E+02 -0.19522074331E+03  0.20091683356E+03  0.47000000000E+01 0.  1.
          5    1    3    3  503    0 -0.19196528289E+02 -0.58758947482E+02 -0.18038863520E+03  0.19074399157E+03  0.47000000000E+01 0. -1.
         -5    1    3    3    0  503  0.35197640510E+01  0.34239051393E+02 -0.14701747045E+03  0.15106597233E+03  0.47000000000E+01 0.  1.
<mgrwt>
<rscale>  0 0.98121177E+02</rscale>
<asrwt>0</asrwt>
<pdfrwt beam="1">  1        1 0.10113765E+00 0.98179903E+02</pdfrwt>
<pdfrwt beam="2">  1       -1 0.22510711E-02 0.98179903E+02</pdfrwt>
<totfact> 0.16428731E+04</totfact>
</mgrwt>
</event>
<event>
 7    1  0.7366917E-004  0.1010248E+03  0.7546771E-02  0.1299399E+00
          2   -1    0    0  501    0  0.00000000000E+00  0.00000000000E+00  0.53710404390E+02  0.53710404390E+02  0.00000000000E+00 0. -1.
         -2   -1    0    0    0  501 -0.00000000000E+00 -0.00000000000E+00 -0.18852546815E+03  0.18852546815E+03  0.00000000000E+00 0.  1.
         23    2    1    2    0    0  0.13176597606E+02 -0.39799611800E+02 -0.14175924556E+03  0.17407381766E+03  0.91915061158E+02 0.  0.
          5    1    3    3  502    0  0.41311214595E+02 -0.51376184476E+02 -0.71507058608E+02  0.97372882331E+02  0.47000000000E+01 0. -1.
         -5    1    3    3    0  502 -0.28134616989E+02  0.11576572677E+02 -0.70252186956E+02  0.76700935328E+02  0.47000000000E+01 0.  1.
          5    1    1    2  503    0 -0.14133492204E+02  0.15306823745E+02  0.28203002124E+02  0.35377306057E+02  0.47000000000E+01 0. -1.
         -5    1    1    2    0  503  0.95689459831E+00  0.24492788055E+02 -0.21258820316E+02  0.32784748820E+02  0.47000000000E+01 0.  1.
<mgrwt>
<rscale>  0 0.91440855E+02</rscale>
<asrwt>0</asrwt>
<pdfrwt beam="1">  1        2 0.82631394E-02 0.10102480E+03</pdfrwt>
<pdfrwt beam="2">  1       -2 0.29003917E-01 0.10102480E+03</pdfrwt>
<totfact> 0.81393580E+03</totfact>
</mgrwt>
</event>
<event>
 8    1  0.7366917E-004  0.9827234E+02  0.7546771E-02  0.1285538E+00
          1   -1    0    0  501    0  0.00000000000E+00  0.00000000000E+00  0.68693294060E+03  0.68693294060E+03  0.00000000000E+00 0. -1.
         -1   -1    0    0    0  501 -0.00000000000E+00 -0.00000000000E+00 -0.21509611444E+02  0.21509611444E+02  0.00000000000E+00 0.  1.
         23    2    1    2    0    0 -0.36293802700E+02 -0.46482345508E+01  0.54366694692E+03  0.55197508186E+03  0.88112970780E+02 0.  0.
         23    2    1    2    0    0  0.36293802700E+02  0.46482345508E+01  0.12175638223E+03  0.15646747018E+03  0.91206394580E+02 0.  0.
          5    1    4    4  502    0  0.42916883941E+02 -0.35662356188E+02  0.58169815297E+02  0.80743296859E+02  0.47000000000E+01 0. -1.
         -5    1    3    3    0  503 -0.63067165976E+02 -0.52802271389E+01  0.44961601549E+03  0.45407268097E+03  0.47000000000E+01 0.  1.
          5    1    3    3  503    0  0.26773363276E+02  0.63199258814E+00  0.94050931438E+02  0.97902400891E+02  0.47000000000E+01 0. -1.
         -5    1    4    4    0  502 -0.66230812414E+01  0.40310590739E+02  0.63586566936E+02  0.75724173324E+02  0.47000000000E+01 0.  1.
<mgrwt>
<rscale>  0 0.97548366E+02</rscale>
<asrwt>0</asrwt>
<pdfrwt beam="1">  1        1 0.10568197E+00 0.98272339E+02</pdfrwt>
<pdfrwt beam="2">  1       -1 0.33091715E-02 0.98272339E+02</pdfrwt>
<totfact> 0.88734252E+03</totfact>
</mgrwt>
</event>
<event>
 8    1  0.7366917E-004  0.1012111E+03  0.7546771E-02  0.1278344E+00
          1   -1    0    0  501    0  0.00000000000E+00  0.00000000000E+00  0.55872957727E+03  0.55872957727E+03  0.00000000000E+00 0. -1.
         -1   -1    0    0    0  501 -0.00000000000E+00 -0.00000000000E+00 -0.19479272080E+02  0.19479272080E+02  0.00000000000E+00 0.  1.
         23    2    1    2    0    0 -0.44009356258E+02 -0.61302733222E+01  0.19228330973E+03  0.21678142677E+03  0.89704582398E+02 0.  0.
         23    2    1    2    0    0  0.44009356258E+02  0.61302733222E+01  0.34696699545E+03  0.36142742257E+03  0.90935593494E+02 0.  0.
          5    1    3    3  502    0 -0.17490436872E+01  0.37194988678E+02  0.94587512880E+02  0.10176155428E+03  0.47000000000E+01 0. -1.
         -5    1    4    4    0  503 -0.15985818703E+02  0.15065894596E+02  0.24370435251E+02  0.33144165307E+02  0.47000000000E+01 0.  1.
          5    1    4    4  503    0  0.59995174961E+02 -0.89356212741E+01  0.32259656020E+03  0.32828325727E+03  0.47000000000E+01 0. -1.
         -5    1    3    3    0  502 -0.42260312570E+02 -0.43325262000E+02  0.97695796852E+02  0.11501987249E+03  0.47000000000E+01 0.  1.
<mgrwt>
<rscale>  0 0.10093381E+03</rscale>
<asrwt>0</asrwt>
<pdfrwt beam="1">  1        1 0.85958384E-01 0.10121110E+03</pdfrwt>
<pdfrwt beam="2">  1       -1 0.29968115E-02 0.10121110E+03</pdfrwt>
<totfact> 0.13591082E+04</totfact>
</mgrwt>
</event>
<event>
 8    1  0.7366917E-004  0.1026342E+03  0.7546771E-02  0.1274984E+00
         -2   -1    0    0    0  501 -0.00000000000E+00  0.00000000000E+00  0.10008008570E+03  0.10008008570E+03  0.00000000000E+00 0.  1.
          2   -1    0    0  501    0  0.00000000000E+00 -0.00000000000E+00 -0.27491982719E+03  0.27491982719E+03  0.00000000000E+00 0. -1.
         23    2    1    2    0    0 -0.32149374934E+02  0.33806446640E+02 -0.23487558293E+03  0.25632074327E+03  0.91418410777E+02 0.  0.
         23    2    1    2    0    0  0.32149374934E+02 -0.33806446640E+02  0.60035841441E+02  0.11867916962E+03  0.91126203150E+02 0.  0.
          5    1    3    3  502    0  0.28162600985E+02  0.28584163710E+02 -0.73040890953E+02  0.83470044090E+02  0.47000000000E+01 0. -1.
         -5    1    4    4    0  503  0.12994898426E+02 -0.53106404321E+02  0.70349032433E+02  0.89220143069E+02  0.47000000000E+01 0.  1.
          5    1    4    4  503    0  0.19154476509E+02  0.19299957681E+02 -0.10313190992E+02  0.29459026549E+02  0.47000000000E+01 0. -1.
         -5    1    3    3    0  502 -0.60311975920E+02  0.52222829299E+01 -0.16183469198E+03  0.17285069918E+03  0.47000000000E+01 0.  1.
<mgrwt>
<rscale>  0 0.10256911E+03</rscale>
<asrwt>0</asrwt>
<pdfrwt beam="1">  1        2 0.42295359E-01 0.10263422E+03</pdfrwt>
<pdfrwt beam="2">  1       -2 0.15396936E-01 0.10263422E+03</pdfrwt>
<totfact> 0.37389001E+03</totfact>
</mgrwt>
</event>
<event>
 7    1  0.7366917E-004  0.2619139E+03  0.7546771E-02  0.1115228E+00
          1   -1    0    0  501    0  0.00000000000E+00  0.00000000000E+00  0.57472360246E+02  0.57472360246E+02  0.00000000000E+00 0. -1.
         -1   -1    0    0    0  501 -0.00000000000E+00 -0.00000000000E+00 -0.10327582685E+04  0.10327582685E+04  0.00000000000E+00 0.  1.
         23    2    1    2    0    0  0.13469497753E+03 -0.12786724571E+03 -0.28800406455E+03  0.35473403282E+03  0.91635819118E+02 0.  0.
          5    1    3    3  502    0  0.13188064353E+03 -0.75278918707E+02 -0.18896263422E+03  0.24246316600E+03  0.47000000000E+01 0. -1.
         -5    1    3    3    0  502  0.28143340049E+01 -0.52588327007E+02 -0.99041430338E+02  0.11227086682E+03  0.47000000000E+01 0.  1.
          5    1    1    2  503    0 -0.59585061431E+02 -0.39281474399E+02 -0.27775246118E+03  0.28681341229E+03  0.47000000000E+01 0. -1.
         -5    1    1    2    0  503 -0.75109916100E+02  0.16714872011E+03 -0.40952938255E+03  0.44868318367E+03  0.47000000000E+01 0.  1.
<mgrwt>
<rscale>  0 0.24698088E+03</rscale>
<asrwt>0</asrwt>
<pdfrwt beam="1">  1        1 0.88419025E-02 0.26191394E+03</pdfrwt>
<pdfrwt beam="2">  1       -1 0.15888587E+00 0.26191394E+03</pdfrwt>
<totfact> 0.24630014E+02</totfact>
</mgrwt>
</event>
<event>
 8    1  0.7366917E-004  0.1231541E+03  0.7546771E-02  0.1244961E+00
         -1   -1    0    0    0  501 -0.00000000000E+00  0.00000000000E+00  0.24663033742E+02  0.24663033742E+02  0.00000000000E+00 0.  1.
          1   -1    0    0  501    0  0.00000000000E+00 -0.00000000000E+00 -0.53778690124E+03  0.53778690124E+03  0.00000000000E+00 0. -1.
         23    2    1    2    0    0 -0.57383809639E+02  0.24526454942E+01 -0.26124054369E+03  0.28881406504E+03  0.10894046731E+03 0.  0.
         23    2    1    2    0    0  0.57383809639E+02 -0.24526454942E+01 -0.25188332380E+03  0.27363586994E+03  0.90180172034E+02 0.  0.
          5    1    4    4  502    0  0.59250861726E+02 -0.38273147706E+02 -0.16269240636E+03  0.17738773221E+03  0.47000000000E+01 0. -1.
         -5    1    4    4    0  502 -0.18670520873E+01  0.35820502212E+02 -0.89190917441E+02  0.96248137728E+02  0.47000000000E+01 0.  1.
          5    1    3    3  503    0 -0.11024541376E+01 -0.35852936194E+02 -0.17570888317E+03  0.17939439808E+03  0.47000000000E+01 0. -1.
         -5    1    3    3    0  503 -0.56281355501E+02  0.38305581688E+02 -0.85531660524E+02  0.10941966696E+03  0.47000000000E+01 0.  1.
<mgrwt>
<rscale>  0 0.11887735E+03</rscale>
<asrwt>0</asrwt>
<pdfrwt beam="1">  1        1 0.82736449E-01 0.12315414E+03</pdfrwt>
<pdfrwt beam="2">  1       -1 0.37943128E-02 0.12315414E+03</pdfrwt>
<totfact> 0.10302448E+04</totfact>
</mgrwt>
</event>
<event>
 8    1  0.7366917E-004  0.1275046E+03  0.7546771E-02  0.1244863E+00
          3   -1    0    0  501    0  0.00000000000E+00  0.00000000000E+00  0.35516443529E+03  0.35516443529E+03  0.00000000000E+00 0. -1.
         -3   -1    0    0    0  501 -0.00000000000E+00 -0.00000000000E+00 -0.21333227722E+03  0.21333227722E+03  0.00000000000E+00 0.  1.
         23    2    1    2    0    0  0.31004078253E+02  0.81291013455E+01 -0.18994257057E+03  0.21306473213E+03  0.91055284341E+02 0.  0.
         23    2    1    2    0    0 -0.31004078253E+02 -0.81291013455E+01  0.33177472865E+03  0.35543198038E+03  0.12341023844E+03 0.  0.
          5    1    4    4  502    0 -0.76895080284E+02 -0.10862947699E+02  0.16584107636E+03  0.18318354078E+03  0.47000000000E+01 0. -1.
         -5    1    4    4    0  502  0.45891002031E+02  0.27338463537E+01  0.16593365228E+03  0.17224843960E+03  0.47000000000E+01 0.  1.
          5    1    3    3  503    0 -0.23386941070E+02 -0.45845360757E+01 -0.13199492871E+02  0.27645679512E+02  0.47000000000E+01 0. -1.
         -5    1    3    3    0  503  0.54391019323E+02  0.12713637421E+02 -0.17674307770E+03  0.18541905262E+03  0.47000000000E+01 0.  1.
<mgrwt>
<rscale>  0 0.11893565E+03</rscale>
<asrwt>0</asrwt>
<pdfrwt beam="1">  1        3 0.54640682E-01 0.12750460E+03</pdfrwt>
<pdfrwt beam="2">  1       -3 0.32820350E-01 0.12750460E+03</pdfrwt>
<totfact> 0.70968195E+01</totfact>
</mgrwt>
</event>
<event>
 8    1  0.7366917E-004  0.1183963E+03  0.7546771E-02  0.1246809E+00
          2   -1    0    0  501    0  0.00000000000E+00  0.00000000000E+00  0.99482741119E+03  0.99482741119E+03  0.00000000000E+00 0. -1.
         -2   -1    0    0    0  501 -0.00000000000E+00 -0.00000000000E+00 -0.13853957580E+02  0.13853957580E+02  0.00000000000E+00 0.  1.
         23    2    1    2    0    0 -0.27274373141E+02  0.66498570784E+02  0.46405760173E+03  0.47892290954E+03  0.94083708517E+02 0.  0.
         23    2    1    2    0    0  0.27274373141E+02 -0.66498570784E+02  0.51691585188E+03  0.52975845923E+03  0.90972940256E+02 0.  0.
          5    1    4    4  502    0  0.59834883877E+02 -0.54023013420E+02  0.36213658211E+03  0.37103058285E+03  0.47000000000E+01 0. -1.
         -5    1    3    3    0  503 -0.56263867362E+02  0.67001812036E+02  0.37685298094E+03  0.38690454227E+03  0.47000000000E+01 0.  1.
          5    1    3    3  503    0  0.28989494221E+02 -0.50324125224E+00  0.87204620793E+02  0.92018367267E+02  0.47000000000E+01 0. -1.
         -5    1    4    4    0  502 -0.32560510737E+02 -0.12475557364E+02  0.15477926977E+03  0.15872787639E+03  0.47000000000E+01 0.  1.
<mgrwt>
<rscale>  0 0.11777736E+03</rscale>
<asrwt>0</asrwt>
<pdfrwt beam="1">  1        2 0.15305032E+00 0.11839635E+03</pdfrwt>
<pdfrwt beam="2">  1       -2 0.21313789E-02 0.11839635E+03</pdfrwt>
<totfact> 0.17609021E+04</totfact>
</mgrwt>
</event>
<event>
 8    1  0.7366917E-004  0.1138251E+03  0.7546771E-02  0.1263923E+00
          2   -1    0    0  501    0  0.00000000000E+00  0.00000000000E+00  0.52682666145E+03  0.52682666145E+03  0.00000000000E+00 0. -1.
         -2   -1    0    0    0  501 -0.00000000000E+00 -0.00000000000E+00 -0.40398485685E+02  0.40398485685E+02  0.00000000000E+00 0.  1.
         23    2    1    2    0    0 -0.19413966021E+02 -0.20976180276E+02  0.43045841121E+03  0.44038365791E+03  0.88467056859E+02 0.  0.
         23    2    1    2    0    0  0.19413966021E+02  0.20976180276E+02  0.55969764553E+02  0.12684148923E+03  0.11017824935E+03 0.  0.
          5    1    4    4  502    0  0.63590633013E+02  0.14565577372E+02  0.17453116444E+02  0.67695095279E+02  0.47000000000E+01 0. -1.
         -5    1    4    4    0  502 -0.44176666992E+02  0.64106029045E+01  0.38516648108E+02  0.59146393953E+02  0.47000000000E+01 0.  1.
          5    1    3    3  503    0  0.67457504390E+01  0.32317796682E+02  0.14650352996E+03  0.15025085498E+03  0.47000000000E+01 0. -1.
         -5    1    3    3    0  503 -0.26159716460E+02 -0.53293976959E+02  0.28395488126E+03  0.29013280293E+03  0.47000000000E+01 0.  1.
<mgrwt>
<rscale>  0 0.10820904E+03</rscale>
<asrwt>0</asrwt>
<pdfrwt beam="1">  1        2 0.81050251E-01 0.11382508E+03</pdfrwt>
<pdfrwt beam="2">  1       -2 0.62151520E-02 0.11382508E+03</pdfrwt>
<totfact> 0.77801851E+03</totfact>
</mgrwt>
</event>
<event>
 8    1  0.7366917E-004  0.1076540E+03  0.7546771E-02  0.1266656E+00
         -1   -1    0    0    0  501 -0.00000000000E+00  0.00000000000E+00  0.20540195769E+02  0.20540195769E+02  0.00000000000E+00 0.  1.
          1   -1    0    0  501    0  0.00000000000E+00 -0.00000000000E+00 -0.62844567660E+03  0.62844567660E+03  0.00000000000E+00 0. -1.
         23    2    1    2    0    0  0.47157001646E+02  0.10246667444E+02 -0.18228047036E+03  0.20995736227E+03  0.92342553022E+02 0.  0.
         23    2    1    2    0    0 -0.47157001646E+02 -0.10246667444E+02 -0.42562501048E+03  0.43902851011E+03  0.96232043223E+02 0.  0.
          5    1    3    3  502    0  0.28425542383E+02  0.21445824546E+01 -0.18638942959E+03  0.18861527021E+03  0.47000000000E+01 0. -1.
         -5    1    4    4    0  503 -0.29206461529E+02 -0.50311772928E+02 -0.30597384385E+03  0.31149056970E+03  0.47000000000E+01 0.  1.
          5    1    4    4  503    0 -0.17950540117E+02  0.40065105484E+02 -0.11965116663E+03  0.12753794041E+03  0.47000000000E+01 0. -1.
         -5    1    3    3    0  502  0.18731459263E+02  0.81020849899E+01  0.41089592346E+01  0.21342092055E+02  0.47000000000E+01 0.  1.
<mgrwt>
<rscale>  0 0.10677780E+03</rscale>
<asrwt>0</asrwt>
<pdfrwt beam="1">  1        1 0.96683929E-01 0.10765400E+03</pdfrwt>
<pdfrwt beam="2">  1       -1 0.31600308E-02 0.10765400E+03</pdfrwt>
<totfact> 0.10801627E+04</totfact>
</mgrwt>
</event>
<event>
 8    1  0.7366917E-004  0.9207563E+02  0.7546771E-02  0.1298591E+00
          1   -1    0    0  501    0  0.00000000000E+00  0.00000000000E+00  0.42281570611E+03  0.42281570611E+03  0.00000000000E+00 0. -1.
         -1   -1    0    0    0  501 -0.00000000000E+00 -0.00000000000E+00 -0.19806213301E+02  0.19806213301E+02  0.00000000000E+00 0.  1.
         23    2    1    2    0    0 -0.22763962606E+01  0.87937800364E+01  0.19575818695E+03  0.21583782569E+03  0.90455440364E+02 0.  0.
         23    2    1    2    0    0  0.22763962606E+01 -0.87937800364E+01  0.20725130586E+03  0.22678409372E+03  0.91626463640E+02 0.  0.
          5    1    4    4  502    0 -0.35921976447E+01 -0.49901951809E+02  0.11006859394E+03  0.12099708281E+03  0.47000000000E+01 0. -1.
         -5    1    4    4    0  502  0.58685939053E+01  0.41108171773E+02  0.97182711923E+02  0.10578701091E+03  0.47000000000E+01 0.  1.
          5    1    3    3  503    0 -0.74552252901E+01  0.30007315137E+02  0.19028826041E+03  0.19284120772E+03  0.47000000000E+01 0. -1.
         -5    1    3    3    0  503  0.51788290295E+01 -0.21213535100E+02  0.54699265448E+01  0.22996617968E+02  0.47000000000E+01 0.  1.
<mgrwt>
<rscale>  0 0.91782927E+02</rscale>
<asrwt>0</asrwt>
<pdfrwt beam="1">  1        1 0.65048563E-01 0.92075629E+02</pdfrwt>
<pdfrwt beam="2">  1       -1 0.30471101E-02 0.92075629E+02</pdfrwt>
<totfact> 0.18805412E+04</totfact>
</mgrwt>
</event>
<event>
 8    1  0.7366917E-004  0.1199924E+03  0.7546771E-02  0.1243876E+00
         -2   -1    0    0    0  501 -0.00000000000E+00  0.00000000000E+00  0.68024141401E+03  0.68024141401E+03  0.00000000000E+00 0.  1.
          2   -1    0    0  501    0  0.00000000000E+00 -0.00000000000E+00 -0.21054612859E+02  0.21054612859E+02  0.00000000000E+00 0. -1.
         23    2    1    2    0    0 -0.62236520321E+01  0.63536476204E+02  0.29693529961E+03  0.32026354967E+03  0.10159995787E+03 0.  0.
         23    2    1    2    0    0  0.62236520321E+01 -0.63536476204E+02  0.36225150154E+03  0.38103247720E+03  0.99418210905E+02 0.  0.
          5    1    3    3  502    0 -0.38712424455E+02 -0.75858023458E+01  0.12856975869E+03  0.13456771178E+03  0.47000000000E+01 0. -1.
         -5    1    3    3    0  502  0.32488772423E+02  0.71122278550E+02  0.16836554092E+03  0.18569583789E+03  0.47000000000E+01 0.  1.
          5    1    4    4  503    0  0.89349774127E+01 -0.23187879308E+02  0.11253128438E+02  0.27680940515E+02  0.47000000000E+01 0. -1.
         -5    1    4    4    0  503 -0.27113253806E+01 -0.40348596897E+02  0.35099837310E+03  0.35335153668E+03  0.47000000000E+01 0.  1.
<mgrwt>
<rscale>  0 0.11952929E+03</rscale>
<asrwt>0</asrwt>
<pdfrwt beam="1">  1        2 0.32391717E-02 0.11999237E+03</pdfrwt>
<pdfrwt beam="2">  1       -2 0.10465251E+00 0.11999237E+03</pdfrwt>
<totfact> 0.20658301E+03</totfact>
</mgrwt>
</event>
<event>
 8    1  0.7366917E-004  0.1968786E+03  0.7546771E-02  0.1152941E+00
         -2   -1    0    0    0  501 -0.00000000000E+00  0.00000000000E+00  0.85141263308E+02  0.85141263308E+02  0.00000000000E+00 0.  1.
          2   -1    0    0  501    0  0.00000000000E+00 -0.00000000000E+00 -0.52315084971E+03  0.52315084971E+03  0.00000000000E+00 0. -1.
         23    2    1    2    0    0  0.68250398816E+02  0.15761132775E+03 -0.10608936310E+03  0.22364284760E+03  0.96237844663E+02 0.  0.
         23    2    1    2    0    0 -0.68250398816E+02 -0.15761132775E+03 -0.33192022330E+03  0.38464926542E+03  0.91019641720E+02 0.  0.
          5    1    3    3  502    0 -0.13115244448E+02  0.41796823396E+02  0.40422267539E+01  0.44242668093E+02  0.47000000000E+01 0. -1.
         -5    1    4    4    0  503 -0.45959090715E+01 -0.49703231499E+02 -0.31736745449E+02  0.59336705447E+02  0.47000000000E+01 0.  1.
          5    1    4    4  503    0 -0.63654489744E+02 -0.10790809625E+03 -0.30018347785E+03  0.32531255997E+03  0.47000000000E+01 0. -1.
         -5    1    3    3    0  502  0.81365643264E+02  0.11581450435E+03 -0.11013158986E+03  0.17940017951E+03  0.47000000000E+01 0.  1.
<mgrwt>
<rscale>  0 0.19625122E+03</rscale>
<asrwt>0</asrwt>
<pdfrwt beam="1">  1        2 0.80484745E-01 0.19687857E+03</pdfrwt>
<pdfrwt beam="2">  1       -2 0.13098656E-01 0.19687857E+03</pdfrwt>
<totfact> 0.25059246E+03</totfact>
</mgrwt>
</event>
<event>
 8    1  0.7366917E-004  0.1460138E+03  0.7546771E-02  0.1206161E+00
          1   -1    0    0  501    0  0.00000000000E+00  0.00000000000E+00  0.14438798909E+03  0.14438798909E+03  0.00000000000E+00 0. -1.
         -1   -1    0    0    0  501 -0.00000000000E+00 -0.00000000000E+00 -0.28606421028E+03  0.28606421028E+03  0.00000000000E+00 0.  1.
         23    2    1    2    0    0  0.34129138908E+02 -0.10703213235E+03 -0.22145843407E+03  0.26406339428E+03  0.89805137380E+02 0.  0.
         23    2    1    2    0    0 -0.34129138908E+02  0.10703213235E+03  0.79782212878E+02  0.16638880510E+03  0.93270346264E+02 0.  0.
          5    1    3    3  502    0 -0.28920189490E+02 -0.18875876331E+02 -0.44905600277E+02  0.56844340120E+02  0.47000000000E+01 0. -1.
         -5    1    3    3    0  502  0.63049328398E+02 -0.88156256020E+02 -0.17655283379E+03  0.20721905416E+03  0.47000000000E+01 0.  1.
          5    1    4    4  503    0 -0.45346951985E+02  0.22824303400E+02  0.60558209632E+02  0.79162375115E+02  0.47000000000E+01 0. -1.
         -5    1    4    4    0  503  0.11217813077E+02  0.84207828951E+02  0.19224003246E+02  0.87226429984E+02  0.47000000000E+01 0.  1.
<mgrwt>
<rscale>  0 0.14546351E+03</rscale>
<asrwt>0</asrwt>
<pdfrwt beam="1">  1        1 0.22213537E-01 0.14601381E+03</pdfrwt>
<pdfrwt beam="2">  1       -1 0.44009878E-01 0.14601381E+03</pdfrwt>
<totfact> 0.11442030E+03</totfact>
</mgrwt>
</event>
<event>
 8    1  0.7366917E-004  0.1663818E+03  0.7546771E-02  0.1182076E+00
          1   -1    0    0  501    0  0.00000000000E+00  0.00000000000E+00  0.55566557091E+03  0.55566557091E+03  0.00000000000E+00 0. -1.
         -1   -1    0    0    0  501 -0.00000000000E+00 -0.00000000000E+00 -0.66441339305E+02  0.66441339305E+02  0.00000000000E+00 0.  1.
         23    2    1    2    0    0 -0.13121205575E+03  0.35008422992E+02  0.40144462302E+03  0.43398949025E+03  0.93524857852E+02 0.  0.
         23    2    1    2    0    0  0.13121205575E+03 -0.35008422992E+02  0.87779608578E+02  0.18811741996E+03  0.96128615700E+02 0.  0.
          5    1    3    3  502    0 -0.47340551980E+02  0.66959389520E+01  0.27737878220E+03  0.28150851190E+03  0.47000000000E+01 0. -1.
         -5    1    4    4    0  503  0.12864680854E+03  0.84607179465E+00  0.78182707242E+02  0.15061654258E+03  0.47000000000E+01 0.  1.
          5    1    4    4  503    0  0.25652472100E+01 -0.35854494786E+02  0.95969013356E+01  0.37500877388E+02  0.47000000000E+01 0. -1.
         -5    1    3    3    0  502 -0.83871503772E+02  0.28312484040E+02  0.12406584083E+03  0.15248097835E+03  0.47000000000E+01 0.  1.
<mgrwt>
<rscale>  0 0.16600788E+03</rscale>
<asrwt>0</asrwt>
<pdfrwt beam="1">  1        1 0.85487008E-01 0.16638180E+03</pdfrwt>
<pdfrwt beam="2">  1       -1 0.10221745E-01 0.16638180E+03</pdfrwt>
<totfact> 0.22739738E+03</totfact>
</mgrwt>
</event>
<event>
 8    1  0.7366917E-004  0.9582036E+02  0.7546771E-02  0.1291405E+00
          1   -1    0    0  501    0  0.00000000000E+00  0.00000000000E+00  0.79362107160E+03  0.79362107160E+03  0.00000000000E+00 0. -1.
         -1   -1    0    0    0  501 -0.00000000000E+00 -0.00000000000E+00 -0.12768932897E+02  0.12768932897E+02  0.00000000000E+00 0.  1.
         23    2    1    2    0    0  0.55823651782E+01  0.23187237691E+02  0.52807538747E+03  0.53606126678E+03  0.89046370477E+02 0.  0.
         23    2    1    2    0    0 -0.55823651782E+01 -0.23187237691E+02  0.25277675124E+03  0.27032873772E+03  0.92804793412E+02 0.  0.
          5    1    3    3  502    0  0.48432775236E+00 -0.34120793517E+02  0.20165421923E+03  0.20457511397E+03  0.47000000000E+01 0. -1.
         -5    1    4    4    0  503  0.15318237358E+02  0.32049436508E+02  0.11203912475E+03  0.11762937665E+03  0.47000000000E+01 0.  1.
          5    1    4    4  503    0 -0.20900602536E+02 -0.55236674199E+02  0.14073762648E+03  0.15269936107E+03  0.47000000000E+01 0. -1.
         -5    1    3    3    0  502  0.50980374259E+01  0.57308031208E+02  0.32642116824E+03  0.33148615281E+03  0.47000000000E+01 0.  1.
<mgrwt>
<rscale>  0 0.94898282E+02</rscale>
<asrwt>0</asrwt>
<pdfrwt beam="1">  1        1 0.12209551E+00 0.95820355E+02</pdfrwt>
<pdfrwt beam="2">  1       -1 0.19644518E-02 0.95820355E+02</pdfrwt>
<totfact> 0.15224940E+04</totfact>
</mgrwt>
</event>
<event>
 8    1  0.7366917E-004  0.1009955E+03  0.7546771E-02  0.1280290E+00
         -1   -1    0    0    0  501 -0.00000000000E+00  0.00000000000E+00  0.13032298112E+02  0.13032298112E+02  0.00000000000E+00 0.  1.
          1   -1    0    0  501    0  0.00000000000E+00 -0.00000000000E+00 -0.76916409953E+03  0.76916409953E+03  0.00000000000E+00 0. -1.
         23    2    1    2    0    0 -0.33592143436E+02 -0.15710336152E+02 -0.31345879615E+03  0.32814850334E+03  0.89720547242E+02 0.  0.
         23    2    1    2    0    0  0.33592143436E+02  0.15710336152E+02 -0.44267300527E+03  0.45404789430E+03  0.93940693868E+02 0.  0.
          5    1    4    4  502    0  0.42935254156E+02 -0.29185088334E+02 -0.28690345906E+03  0.29160056627E+03  0.47000000000E+01 0. -1.
         -5    1    4    4    0  502 -0.93431107207E+01  0.44895424485E+02 -0.15576954621E+03  0.16244732803E+03  0.47000000000E+01 0.  1.
          5    1    3    3  503    0  0.39322783854E+01 -0.45902404618E+02 -0.18956086777E+03  0.19513560965E+03  0.47000000000E+01 0. -1.
         -5    1    3    3    0  503 -0.37524421821E+02  0.30192068466E+02 -0.12389792838E+03  0.13301289369E+03  0.47000000000E+01 0.  1.
<mgrwt>
<rscale>  0 0.10000276E+03</rscale>
<asrwt>0</asrwt>
<pdfrwt beam="1">  1        1 0.11833294E+00 0.10099555E+03</pdfrwt>
<pdfrwt beam="2">  1       -1 0.20049688E-02 0.10099555E+03</pdfrwt>
<totfact> 0.15552648E+04</totfact>
</mgrwt>
</event>
<event>
 8    1  0.7366917E-004  0.2345186E+03  0.7546771E-02  0.1124038E+00
         -1   -1    0    0    0  501 -0.00000000000E+00  0.00000000000E+00  0.43205265049E+02  0.43205265049E+02  0.00000000000E+00 0.  1.
          1   -1    0    0  501    0  0.00000000000E+00 -0.00000000000E+00 -0.12904475816E+04  0.12904475816E+04  0.00000000000E+00 0. -1.
         23    2    1    2    0    0 -0.85775428018E+02 -0.19545599949E+03 -0.51080117294E+03  0.56077216503E+03  0.89370638381E+02 0.  0.
         23    2    1    2    0    0  0.85775428018E+02  0.19545599949E+03 -0.73644114361E+03  0.77288068161E+03  0.97152036654E+02 0.  0.
          5    1    3    3  502    0 -0.39779770112E+02 -0.10799022462E+03 -0.16591044975E+03  0.20197199326E+03  0.47000000000E+01 0. -1.
         -5    1    4    4    0  503  0.36419995240E+02  0.50938259661E+01 -0.14070983396E+03  0.14551189123E+03  0.47000000000E+01 0.  1.
          5    1    4    4  503    0  0.49355432778E+02  0.19036217353E+03 -0.59573130965E+03  0.62736879038E+03  0.47000000000E+01 0. -1.
         -5    1    3    3    0  502 -0.45995657906E+02 -0.87465774869E+02 -0.34489072319E+03  0.35880017177E+03  0.47000000000E+01 0.  1.
<mgrwt>
<rscale>  0 0.23373594E+03</rscale>
<asrwt>0</asrwt>
<pdfrwt beam="1">  1        1 0.19853035E+00 0.23451863E+03</pdfrwt>
<pdfrwt beam="2">  1       -1 0.66469656E-02 0.23451863E+03</pdfrwt>
<totfact> 0.11355526E+03</totfact>
</mgrwt>
</event>
<event>
 8    1  0.7366917E-004  0.1073660E+03  0.7546771E-02  0.1267989E+00
         -2   -1    0    0    0  501 -0.00000000000E+00  0.00000000000E+00  0.53623945235E+02  0.53623945235E+02  0.00000000000E+00 0.  1.
          2   -1    0    0  501    0  0.00000000000E+00 -0.00000000000E+00 -0.31590877866E+03  0.31590877866E+03  0.00000000000E+00 0. -1.
         23    2    1    2    0    0  0.49945395713E+02 -0.13817812775E+02 -0.24261637431E+03  0.26531146012E+03  0.94031863150E+02 0.  0.
         23    2    1    2    0    0 -0.49945395713E+02  0.13817812775E+02 -0.19668459112E+02  0.10422126377E+03  0.88259554918E+02 0.  0.
          5    1    3    3  502    0  0.30812046900E+02  0.29280107873E+02 -0.44944263894E+02  0.62038567103E+02  0.47000000000E+01 0. -1.
         -5    1    4    4    0  503 -0.17312638427E+02  0.49886180974E+02 -0.52542026012E+01  0.53273399990E+02  0.47000000000E+01 0.  1.
          5    1    4    4  503    0 -0.32632757286E+02 -0.36068368199E+02 -0.14414256510E+02  0.50947863776E+02  0.47000000000E+01 0. -1.
         -5    1    3    3    0  502  0.19133348813E+02 -0.43097920648E+02 -0.19767211042E+03  0.20327289302E+03  0.47000000000E+01 0.  1.
<mgrwt>
<rscale>  0 0.10608906E+03</rscale>
<asrwt>0</asrwt>
<pdfrwt beam="1">  1        2 0.48601349E-01 0.10736604E+03</pdfrwt>
<pdfrwt beam="2">  1       -2 0.82498379E-02 0.10736604E+03</pdfrwt>
<totfact> 0.86827843E+03</totfact>
</mgrwt>
</event>
<event>
 8    1  0.7366917E-004  0.1563619E+03  0.7546771E-02  0.1193013E+00
         -1   -1    0    0    0  501 -0.00000000000E+00  0.00000000000E+00  0.11004266350E+03  0.11004266350E+03  0.00000000000E+00 0.  1.
          1   -1    0    0  501    0  0.00000000000E+00 -0.00000000000E+00 -0.23581897149E+03  0.23581897149E+03  0.00000000000E+00 0. -1.
         23    2    1    2    0    0  0.51960607646E+02  0.11564195488E+03 -0.20128224223E+02  0.15715399523E+03  0.90660169470E+02 0.  0.
         23    2    1    2    0    0 -0.51960607646E+02 -0.11564195488E+03 -0.10564808376E+03  0.18870763976E+03  0.91520976978E+02 0.  0.
          5    1    4    4  502    0  0.93771606244E+01 -0.41466855393E+02 -0.77154620964E+02  0.88217667016E+02  0.47000000000E+01 0. -1.
         -5    1    3    3    0  503  0.16961049545E+02  0.10195445056E+03  0.16142082262E+02  0.10471410607E+03  0.47000000000E+01 0.  1.
          5    1    3    3  503    0  0.34999558101E+02  0.13687504325E+02 -0.36270306485E+02  0.52439889154E+02  0.47000000000E+01 0. -1.
         -5    1    4    4    0  502 -0.61337768271E+02 -0.74175099492E+02 -0.28493462795E+02  0.10048997275E+03  0.47000000000E+01 0.  1.
<mgrwt>
<rscale>  0 0.15623622E+03</rscale>
<asrwt>0</asrwt>
<pdfrwt beam="1">  1        1 0.36279842E-01 0.15636194E+03</pdfrwt>
<pdfrwt beam="2">  1       -1 0.16929641E-01 0.15636194E+03</pdfrwt>
<totfact> 0.30641757E+03</totfact>
</mgrwt>
</event>
<event>
 8    1  0.7366917E-004  0.1111471E+03  0.7546771E-02  0.1267411E+00
         -3   -1    0    0    0  501 -0.00000000000E+00  0.00000000000E+00  0.82126160112E+03  0.82126160112E+03  0.00000000000E+00 0.  1.
          3   -1    0    0  501    0  0.00000000000E+00 -0.00000000000E+00 -0.14514303247E+02  0.14514303247E+02  0.00000000000E+00 0. -1.
         23    2    1    2    0    0  0.16499021089E+02  0.13474717329E+02  0.58054927830E+03  0.59109317371E+03  0.10908661593E+03 0.  0.
         23    2    1    2    0    0 -0.16499021089E+02 -0.13474717329E+02  0.22619801957E+03  0.24468273065E+03  0.90831211135E+02 0.  0.
          5    1    4    4  502    0  0.95063164646E+01 -0.32444393143E+02  0.28911421607E+02  0.44732191970E+02  0.47000000000E+01 0. -1.
         -5    1    4    4    0  502 -0.26005337554E+02  0.18969675814E+02  0.19728659797E+03  0.19995053868E+03  0.47000000000E+01 0.  1.
          5    1    3    3  503    0 -0.36204364067E+02 -0.17271586302E+02  0.12279374179E+03  0.12926506370E+03  0.47000000000E+01 0. -1.
         -5    1    3    3    0  503  0.52703385156E+02  0.30746303630E+02  0.45775553651E+03  0.46182811001E+03  0.47000000000E+01 0.  1.
<mgrwt>
<rscale>  0 0.10638711E+03</rscale>
<asrwt>0</asrwt>
<pdfrwt beam="1">  1        3 0.22329704E-02 0.11114709E+03</pdfrwt>
<pdfrwt beam="2">  1       -3 0.12634790E+00 0.11114709E+03</pdfrwt>
<totfact> 0.94113470E+02</totfact>
</mgrwt>
</event>
<event>
 8    1  0.7366917E-004  0.9573707E+02  0.7546771E-02  0.1292013E+00
          1   -1    0    0  501    0  0.00000000000E+00  0.00000000000E+00  0.18133931723E+03  0.18133931723E+03  0.00000000000E+00 0. -1.
         -1   -1    0    0    0  501 -0.00000000000E+00 -0.00000000000E+00 -0.52376527118E+02  0.52376527118E+02  0.00000000000E+00 0.  1.
         23    2    1    2    0    0 -0.22446677369E+02  0.10481959059E+02  0.33156045669E+02  0.10131588750E+03  0.92476272120E+02 0.  0.
         23    2    1    2    0    0  0.22446677369E+02 -0.10481959059E+02  0.95806744442E+02  0.13239995684E+03  0.87960738408E+02 0.  0.
          5    1    3    3  502    0  0.26025144582E+02 -0.24130322060E+02  0.93482643338E+01  0.37000819441E+02  0.47000000000E+01 0. -1.
         -5    1    3    3    0  502 -0.48471821951E+02  0.34612281120E+02  0.23807781335E+02  0.64315068061E+02  0.47000000000E+01 0.  1.
          5    1    4    4  503    0  0.12555533717E+02  0.36772840120E+02  0.24559266437E+02  0.46207475210E+02  0.47000000000E+01 0. -1.
         -5    1    4    4    0  503  0.98911436520E+01 -0.47254799179E+02  0.71247478005E+02  0.86192481634E+02  0.47000000000E+01 0.  1.
<mgrwt>
<rscale>  0 0.94629425E+02</rscale>
<asrwt>0</asrwt>
<pdfrwt beam="1">  1        1 0.27898356E-01 0.95737065E+02</pdfrwt>
<pdfrwt beam="2">  1       -1 0.80579274E-02 0.95737065E+02</pdfrwt>
<totfact> 0.12841334E+04</totfact>
</mgrwt>
</event>
<event>
 8    1  0.7366917E-004  0.1101067E+03  0.7546771E-02  0.1260933E+00
         -1   -1    0    0    0  501 -0.00000000000E+00  0.00000000000E+00  0.85749783710E+02  0.85749783710E+02  0.00000000000E+00 0.  1.
          1   -1    0    0  501    0  0.00000000000E+00 -0.00000000000E+00 -0.14853679039E+03  0.14853679039E+03  0.00000000000E+00 0. -1.
         23    2    1    2    0    0 -0.38535774534E+02 -0.48160060379E+02 -0.59901540805E+02  0.12534626764E+03  0.91209072384E+02 0.  0.
         23    2    1    2    0    0  0.38535774534E+02  0.48160060379E+02 -0.28854658741E+01  0.10894030646E+03  0.89751139959E+02 0.  0.
          5    1    3    3  502    0  0.13203209223E+02  0.19652289142E+02 -0.81949016614E+01  0.25490853566E+02  0.47000000000E+01 0. -1.
         -5    1    4    4    0  503  0.25433222428E+02 -0.22736343326E+02  0.92990688042E+01  0.35670054549E+02  0.47000000000E+01 0.  1.
          5    1    4    4  503    0  0.13102552106E+02  0.70896403705E+02 -0.12184534678E+02  0.73270251912E+02  0.47000000000E+01 0. -1.
         -5    1    3    3    0  502 -0.51738983757E+02 -0.67812349520E+02 -0.51706639143E+02  0.99855414070E+02  0.47000000000E+01 0.  1.
<mgrwt>
<rscale>  0 0.10980433E+03</rscale>
<asrwt>0</asrwt>
<pdfrwt beam="1">  1        1 0.22851814E-01 0.11010673E+03</pdfrwt>
<pdfrwt beam="2">  1       -1 0.13192275E-01 0.11010673E+03</pdfrwt>
<totfact> 0.78833019E+03</totfact>
</mgrwt>
</event>
<event>
 8    1  0.7366917E-004  0.1013956E+03  0.7546771E-02  0.1281402E+00
          1   -1    0    0  501    0  0.00000000000E+00  0.00000000000E+00  0.96709179777E+03  0.96709179777E+03  0.00000000000E+00 0. -1.
         -1   -1    0    0    0  501 -0.00000000000E+00 -0.00000000000E+00 -0.10387107661E+02  0.10387107661E+02  0.00000000000E+00 0.  1.
         23    2    1    2    0    0 -0.46039302157E+01 -0.43248314518E+02  0.57072231906E+03  0.57840065443E+03  0.83257063929E+02 0.  0.
         23    2    1    2    0    0  0.46039302157E+01  0.43248314518E+02  0.38598237104E+03  0.39907825099E+03  0.91593923248E+02 0.  0.
          5    1    3    3  502    0 -0.42879622440E+02 -0.16182350290E+02  0.24581798694E+03  0.25009818708E+03  0.47000000000E+01 0. -1.
         -5    1    3    3    0  502  0.38275692225E+02 -0.27065964228E+02  0.32490433213E+03  0.32830246735E+03  0.47000000000E+01 0.  1.
          5    1    4    4  503    0  0.18482478971E+02  0.58926951589E+02  0.36041669485E+03  0.36569970136E+03  0.47000000000E+01 0. -1.
         -5    1    4    4    0  503 -0.13878548755E+02 -0.15678637071E+02  0.25565676199E+02  0.33378549631E+02  0.47000000000E+01 0.  1.
<mgrwt>
<rscale>  0 0.99476020E+02</rscale>
<asrwt>0</asrwt>
<pdfrwt beam="1">  1        1 0.14878328E+00 0.10139556E+03</pdfrwt>
<pdfrwt beam="2">  1       -1 0.15980173E-02 0.10139556E+03</pdfrwt>
<totfact> 0.15104644E+04</totfact>
</mgrwt>
</event>
<event>
 8    1  0.7366917E-004  0.9576943E+02  0.7546771E-02  0.1292448E+00
          2   -1    0    0  501    0  0.00000000000E+00  0.00000000000E+00  0.63482473017E+03  0.63482473017E+03  0.00000000000E+00 0. -1.
         -2   -1    0    0    0  501 -0.00000000000E+00 -0.00000000000E+00 -0.13684943770E+02  0.13684943770E+02  0.00000000000E+00 0.  1.
         23    2    1    2    0    0  0.17121717999E+02  0.12539726076E+02  0.32948250833E+03  0.34311879401E+03  0.93388358739E+02 0.  0.
         23    2    1    2    0    0 -0.17121717999E+02 -0.12539726076E+02  0.29165727807E+03  0.30539087993E+03  0.88029675325E+02 0.  0.
          5    1    4    4  502    0  0.35860893722E+02 -0.84658288890E+01  0.12522901669E+03  0.13062186103E+03  0.47000000000E+01 0. -1.
         -5    1    4    4    0  502 -0.52982611721E+02 -0.40738971866E+01  0.16642826138E+03  0.17476901890E+03  0.47000000000E+01 0.  1.
          5    1    3    3  503    0  0.50449983518E+02  0.19561480089E+02  0.13320222455E+03  0.14384983478E+03  0.47000000000E+01 0. -1.
         -5    1    3    3    0  503 -0.33328265518E+02 -0.70217540139E+01  0.19628028378E+03  0.19926895923E+03  0.47000000000E+01 0.  1.
<mgrwt>
<rscale>  0 0.94437482E+02</rscale>
<asrwt>0</asrwt>
<pdfrwt beam="1">  1        2 0.97665320E-01 0.95769429E+02</pdfrwt>
<pdfrwt beam="2">  1       -2 0.21053765E-02 0.95769429E+02</pdfrwt>
<totfact> 0.30626834E+04</totfact>
</mgrwt>
</event>
<event>
 8    1  0.7366917E-004  0.2825561E+03  0.7546771E-02  0.1095341E+00
          1   -1    0    0  501    0  0.00000000000E+00  0.00000000000E+00  0.76662583721E+03  0.76662583721E+03  0.00000000000E+00 0. -1.
         -1   -1    0    0    0  501 -0.00000000000E+00 -0.00000000000E+00 -0.12656534719E+03  0.12656534719E+03  0.00000000000E+00 0.  1.
         23    2    1    2    0    0  0.25463119594E+03 -0.47811131684E+02  0.12424441073E+03  0.30866583224E+03  0.11276068525E+03 0.  0.
         23    2    1    2    0    0 -0.25463119594E+03  0.47811131684E+02  0.51581607929E+03  0.58452535216E+03  0.92090767220E+02 0.  0.
          5    1    3    3  502    0  0.13528819641E+03  0.22418566524E+02  0.28207195438E+02  0.14008291862E+03  0.47000000000E+01 0. -1.
         -5    1    4    4    0  503 -0.13055790832E+03  0.63917737961E+02  0.32804529255E+03  0.35884070089E+03  0.47000000000E+01 0.  1.
          5    1    4    4  503    0 -0.12407328762E+03 -0.16106606277E+02  0.18777078674E+03  0.22568465128E+03  0.47000000000E+01 0. -1.
         -5    1    3    3    0  502  0.11934299952E+03 -0.70229698207E+02  0.96037215289E+02  0.16858291362E+03  0.47000000000E+01 0.  1.
<mgrwt>
<rscale>  0 0.28063789E+03</rscale>
<asrwt>0</asrwt>
<pdfrwt beam="1">  1        1 0.11794243E+00 0.28255605E+03</pdfrwt>
<pdfrwt beam="2">  1       -1 0.19471592E-01 0.28255605E+03</pdfrwt>
<totfact> 0.52060757E+02</totfact>
</mgrwt>
</event>
<event>
 8    1  0.7366917E-004  0.9799862E+02  0.7546771E-02  0.1286149E+00
         -1   -1    0    0    0  501 -0.00000000000E+00  0.00000000000E+00  0.10287306143E+03  0.10287306143E+03  0.00000000000E+00 0.  1.
          1   -1    0    0  501    0  0.00000000000E+00 -0.00000000000E+00 -0.12454748143E+03  0.12454748143E+03  0.00000000000E+00 0. -1.
         23    2    1    2    0    0  0.17782433195E+02 -0.27408901286E+02  0.48622968336E+02  0.10681601368E+03  0.89319678284E+02 0.  0.
         23    2    1    2    0    0 -0.17782433195E+02  0.27408901286E+02 -0.70297388330E+02  0.12060452918E+03  0.92391919847E+02 0.  0.
          5    1    3    3  502    0 -0.25987093717E+02 -0.61647586799E+01 -0.11392300106E+02  0.29414414683E+02  0.47000000000E+01 0. -1.
         -5    1    4    4    0  503 -0.15761099662E+02 -0.31390875893E+02 -0.11410182500E+02  0.37230117064E+02  0.47000000000E+01 0.  1.
          5    1    4    4  503    0 -0.20213335326E+01  0.58799777179E+02 -0.58887205830E+02  0.83374412118E+02  0.47000000000E+01 0. -1.
         -5    1    3    3    0  502  0.43769526912E+02 -0.21244142606E+02  0.60015268442E+02  0.77401598997E+02  0.47000000000E+01 0.  1.
<mgrwt>
<rscale>  0 0.97267746E+02</rscale>
<asrwt>0</asrwt>
<pdfrwt beam="1">  1        1 0.19161151E-01 0.97998621E+02</pdfrwt>
<pdfrwt beam="2">  1       -1 0.15826625E-01 0.97998621E+02</pdfrwt>
<totfact> 0.73464104E+03</totfact>
</mgrwt>
</event>
<event>
 8    1  0.7366917E-004  0.1014986E+03  0.7546771E-02  0.1279620E+00
          4   -1    0    0  501    0  0.00000000000E+00  0.00000000000E+00  0.35820911281E+03  0.35820911281E+03  0.00000000000E+00 0. -1.
         -4   -1    0    0    0  501 -0.00000000000E+00 -0.00000000000E+00 -0.31904618401E+02  0.31904618401E+02  0.00000000000E+00 0.  1.
         23    2    1    2    0    0  0.27047207917E+02 -0.25141329538E+02  0.23917870987E+03  0.25982384063E+03  0.94542768084E+02 0.  0.
         23    2    1    2    0    0 -0.27047207917E+02  0.25141329538E+02  0.87125784537E+02  0.13028989058E+03  0.89559563136E+02 0.  0.
          5    1    4    4  502    0  0.24700812310E+01 -0.30178310178E+02  0.45594278008E+02  0.54934141420E+02  0.47000000000E+01 0. -1.
         -5    1    3    3    0  503  0.12560389826E+02  0.21110180666E+02  0.12473211787E+02  0.27947703531E+02  0.47000000000E+01 0.  1.
          5    1    3    3  503    0  0.14486818091E+02 -0.46251510204E+02  0.22670549808E+03  0.23187613710E+03  0.47000000000E+01 0. -1.
         -5    1    4    4    0  502 -0.29517289148E+02  0.55319639715E+02  0.41531506529E+02  0.75355749160E+02  0.47000000000E+01 0.  1.
<mgrwt>
<rscale>  0 0.10032215E+03</rscale>
<asrwt>0</asrwt>
<pdfrwt beam="1">  1        4 0.55109091E-01 0.10149863E+03</pdfrwt>
<pdfrwt beam="2">  1       -4 0.49084031E-02 0.10149863E+03</pdfrwt>
<totfact> 0.12054278E+03</totfact>
</mgrwt>
</event>
<event>
 8    1  0.7366917E-004  0.9980320E+02  0.7546771E-02  0.1281013E+00
         -2   -1    0    0    0  501 -0.00000000000E+00  0.00000000000E+00  0.58901024803E+02  0.58901024803E+02  0.00000000000E+00 0.  1.
          2   -1    0    0  501    0  0.00000000000E+00 -0.00000000000E+00 -0.19965256171E+03  0.19965256171E+03  0.00000000000E+00 0. -1.
         23    2    1    2    0    0 -0.20378954345E+02  0.33187624081E+02 -0.19187466315E+02  0.10163089083E+03  0.91891016615E+02 0.  0.
         23    2    1    2    0    0  0.20378954345E+02 -0.33187624081E+02 -0.12156407059E+03  0.15692269569E+03  0.91269869015E+02 0.  0.
          5    1    3    3  502    0  0.25661596240E+02 -0.88066087121E+01 -0.27106543042E+02  0.38638433642E+02  0.47000000000E+01 0. -1.
         -5    1    4    4    0  503  0.20887455083E+02 -0.60687962826E+02 -0.10841458595E+03  0.12607587817E+03  0.47000000000E+01 0.  1.
          5    1    4    4  503    0 -0.50850073783E+00  0.27500338745E+02 -0.13149484646E+02  0.30846817511E+02  0.47000000000E+01 0. -1.
         -5    1    3    3    0  502 -0.46040550586E+02  0.41994232793E+02  0.79190767270E+01  0.62992457186E+02  0.47000000000E+01 0.  1.
<mgrwt>
<rscale>  0 0.99659992E+02</rscale>
<asrwt>0</asrwt>
<pdfrwt beam="1">  1        2 0.30715779E-01 0.99803202E+02</pdfrwt>
<pdfrwt beam="2">  1       -2 0.90616961E-02 0.99803202E+02</pdfrwt>
<totfact> 0.12127108E+04</totfact>
</mgrwt>
</event>
<event>
 8    1  0.7366917E-004  0.1016058E+03  0.7546771E-02  0.1277091E+00
          2   -1    0    0  501    0  0.00000000000E+00  0.00000000000E+00  0.80994233506E+02  0.80994233506E+02  0.00000000000E+00 0. -1.
         -2   -1    0    0    0  501 -0.00000000000E+00 -0.00000000000E+00 -0.13370634656E+03  0.13370634656E+03  0.00000000000E+00 0.  1.
         23    2    1    2    0    0  0.19492213217E+00 -0.46139671869E+02 -0.25209698005E+01  0.10137409648E+03  0.90229955299E+02 0.  0.
         23    2    1    2    0    0 -0.19492213217E+00  0.46139671869E+02 -0.50191143253E+02  0.11332648359E+03  0.90525320801E+02 0.  0.
          5    1    3    3  502    0 -0.12354803472E+02 -0.71439762929E+02 -0.33822880474E+01  0.72731085298E+02  0.47000000000E+01 0. -1.
         -5    1    3    3    0  502  0.12549725604E+02  0.25300091060E+02  0.86131824685E+00  0.28643011181E+02  0.47000000000E+01 0.  1.
          5    1    4    4  503    0  0.14155162554E+02 -0.19233015189E+02 -0.38011728469E+02  0.45136005598E+02  0.47000000000E+01 0. -1.
         -5    1    4    4    0  503 -0.14350084686E+02  0.65372687058E+02 -0.12179414784E+02  0.68190477988E+02  0.47000000000E+01 0.  1.
<mgrwt>
<rscale>  0 0.10153998E+03</rscale>
<asrwt>0</asrwt>
<pdfrwt beam="1">  1        2 0.12460651E-01 0.10160581E+03</pdfrwt>
<pdfrwt beam="2">  1       -2 0.20570207E-01 0.10160581E+03</pdfrwt>
<totfact> 0.89611785E+03</totfact>
</mgrwt>
</event>
<event>
 7    1  0.7366917E-004  0.2327586E+03  0.7546771E-02  0.1124713E+00
          1   -1    0    0  501    0  0.00000000000E+00  0.00000000000E+00  0.15407844617E+04  0.15407844617E+04  0.00000000000E+00 0. -1.
         -1   -1    0    0    0  501 -0.00000000000E+00 -0.00000000000E+00 -0.87904202722E+01  0.87904202722E+01  0.00000000000E+00 0.  1.
         23    2    1    2    0    0 -0.19252557727E+02  0.12023905723E+02  0.69664844305E+03  0.70276724225E+03  0.89707905422E+02 0.  0.
          5    1    1    2  502    0 -0.11749935108E+02  0.53016247491E+02  0.54085611521E+03  0.54359563173E+03  0.47000000000E+01 0. -1.
         -5    1    1    2    0  502  0.31002492835E+02 -0.65040153214E+02  0.29448948314E+03  0.30321200796E+03  0.47000000000E+01 0.  1.
          5    1    3    3  503    0 -0.27353504762E+02  0.47610109412E+02  0.37672872041E+03  0.38073817188E+03  0.47000000000E+01 0. -1.
         -5    1    3    3    0  503  0.81009470347E+01 -0.35586203689E+02  0.31991972263E+03  0.32202907037E+03  0.47000000000E+01 0.  1.
<mgrwt>
<rscale>  0 0.23275861E+03</rscale>
<asrwt>0</asrwt>
<pdfrwt beam="1">  1        1 0.23704355E+00 0.23275861E+03</pdfrwt>
<pdfrwt beam="2">  1       -1 0.13523736E-02 0.23275861E+03</pdfrwt>
<totfact> 0.81286938E+03</totfact>
</mgrwt>
</event>
<event>
 8    1  0.7366917E-004  0.1029831E+03  0.7546771E-02  0.1275798E+00
          2   -1    0    0  501    0  0.00000000000E+00  0.00000000000E+00  0.25094310380E+03  0.25094310380E+03  0.00000000000E+00 0. -1.
         -2   -1    0    0    0  501 -0.00000000000E+00 -0.00000000000E+00 -0.43404374558E+02  0.43404374558E+02  0.00000000000E+00 0.  1.
         23    2    1    2    0    0 -0.22969624248E+02 -0.40008320409E+02  0.14028765762E+03  0.17402914876E+03  0.92071974009E+02 0.  0.
         23    2    1    2    0    0  0.22969624248E+02  0.40008320409E+02  0.67251071618E+02  0.12031832959E+03  0.88461994450E+02 0.  0.
          5    1    3    3  502    0 -0.11693924561E+02  0.27118363992E+02  0.69762464562E+02  0.75901548067E+02  0.47000000000E+01 0. -1.
         -5    1    4    4    0  503  0.50471154972E+02  0.12999389722E+02  0.62001684982E+02  0.81133350466E+02  0.47000000000E+01 0.  1.
          5    1    4    4  503    0 -0.27501530724E+02  0.27008930688E+02  0.52493866363E+01  0.39184979126E+02  0.47000000000E+01 0. -1.
         -5    1    3    3    0  502 -0.11275699687E+02 -0.67126684401E+02  0.70525193060E+02  0.98127600696E+02  0.47000000000E+01 0.  1.
<mgrwt>
<rscale>  0 0.10216992E+03</rscale>
<asrwt>0</asrwt>
<pdfrwt beam="1">  1        2 0.38606631E-01 0.10298309E+03</pdfrwt>
<pdfrwt beam="2">  1       -2 0.66775962E-02 0.10298309E+03</pdfrwt>
<totfact> 0.15219576E+04</totfact>
</mgrwt>
</event>
<event>
 8    1  0.7366917E-004  0.9209428E+02  0.7546771E-02  0.1298143E+00
          1   -1    0    0  501    0  0.00000000000E+00  0.00000000000E+00  0.90527944994E+02  0.90527944994E+02  0.00000000000E+00 0. -1.
         -1   -1    0    0    0  501 -0.00000000000E+00 -0.00000000000E+00 -0.13723126288E+03  0.13723126288E+03  0.00000000000E+00 0.  1.
         23    2    1    2    0    0  0.58046678966E+01 -0.83807360537E+01  0.41115724188E+02  0.10085563745E+03  0.91528279371E+02 0.  0.
         23    2    1    2    0    0 -0.58046678966E+01  0.83807360537E+01 -0.87819042077E+02  0.12690357042E+03  0.91040656458E+02 0.  0.
          5    1    4    4  502    0 -0.73237078059E+01  0.45823899999E+02 -0.23288953380E+02  0.52133788052E+02  0.47000000000E+01 0. -1.
         -5    1    4    4    0  502  0.15190399093E+01 -0.37443163945E+02 -0.64530088697E+02  0.74769782370E+02  0.47000000000E+01 0.  1.
          5    1    3    3  503    0 -0.29901653395E+02  0.26122412087E+02  0.29386927648E+02  0.49620266078E+02  0.47000000000E+01 0. -1.
         -5    1    3    3    0  503  0.35706321291E+02 -0.34503148141E+02  0.11728796540E+02  0.51235371376E+02  0.47000000000E+01 0.  1.
<mgrwt>
<rscale>  0 0.91972890E+02</rscale>
<asrwt>0</asrwt>
<pdfrwt beam="1">  1        1 0.13927376E-01 0.92094282E+02</pdfrwt>
<pdfrwt beam="2">  1       -1 0.21112502E-01 0.92094282E+02</pdfrwt>
<totfact> 0.69641937E+03</totfact>
</mgrwt>
</event>
<event>
 8    1  0.7366917E-004  0.9792199E+02  0.7546771E-02  0.1286536E+00
         -3   -1    0    0    0  501 -0.00000000000E+00  0.00000000000E+00  0.62341533456E+02  0.62341533456E+02  0.00000000000E+00 0.  1.
          3   -1    0    0  501    0  0.00000000000E+00 -0.00000000000E+00 -0.30366661423E+03  0.30366661423E+03  0.00000000000E+00 0. -1.
         23    2    1    2    0    0  0.87250971039E+01 -0.23919146003E+02  0.11069808538E+02  0.95283387653E+02  0.91148946437E+02 0.  0.
         23    2    1    2    0    0 -0.87250971039E+01  0.23919146003E+02 -0.25239488932E+03  0.27072476004E+03  0.94554019900E+02 0.  0.
          5    1    4    4  502    0  0.20199673742E+01 -0.24697251328E+02 -0.18547566573E+03  0.18718265696E+03  0.47000000000E+01 0. -1.
         -5    1    3    3    0  503 -0.72759409879E+01 -0.56959012615E+02  0.59376077747E+01  0.57919026419E+02  0.47000000000E+01 0.  1.
          5    1    3    3  503    0  0.16001038092E+02  0.33039866612E+02  0.51322007631E+01  0.37364361234E+02  0.47000000000E+01 0. -1.
         -5    1    4    4    0  502 -0.10745064478E+02  0.48616397331E+02 -0.66919223590E+02  0.83542103073E+02  0.47000000000E+01 0.  1.
<mgrwt>
<rscale>  0 0.97090502E+02</rscale>
<asrwt>0</asrwt>
<pdfrwt beam="1">  1        3 0.46717941E-01 0.97921987E+02</pdfrwt>
<pdfrwt beam="2">  1       -3 0.95910051E-02 0.97921987E+02</pdfrwt>
<totfact> 0.79263361E+02</totfact>
</mgrwt>
</event>
<event>
 8    1  0.7366917E-004  0.9826882E+02  0.7546771E-02  0.1284193E+00
          4   -1    0    0  501    0  0.00000000000E+00  0.00000000000E+00  0.11422869962E+03  0.11422869962E+03  0.00000000000E+00 0. -1.
         -4   -1    0    0    0  501 -0.00000000000E+00 -0.00000000000E+00 -0.88726932736E+02  0.88726932736E+02  0.00000000000E+00 0.  1.
         23    2    1    2    0    0  0.18012901559E+02 -0.31157414374E+02  0.35700987530E+02  0.10455296173E+03  0.91441304682E+02 0.  0.
         23    2    1    2    0    0 -0.18012901559E+02  0.31157414374E+02 -0.10199220643E+02  0.98402670635E+02  0.91015451399E+02 0.  0.
          5    1    4    4  502    0 -0.46344230085E+02  0.19483536868E+02  0.20757121570E+02  0.54592526658E+02  0.47000000000E+01 0. -1.
         -5    1    4    4    0  502  0.28331328526E+02  0.11673877506E+02 -0.30956342213E+02  0.43810143977E+02  0.47000000000E+01 0.  1.
          5    1    3    3  503    0 -0.29879960544E+02  0.10375192405E+01 -0.88104654339E+01  0.31521465535E+02  0.47000000000E+01 0. -1.
         -5    1    3    3    0  503  0.47892862103E+02 -0.32194933614E+02  0.44511452964E+02  0.73031496191E+02  0.47000000000E+01 0.  1.
<mgrwt>
<rscale>  0 0.98169636E+02</rscale>
<asrwt>0</asrwt>
<pdfrwt beam="1">  1        4 0.17573646E-01 0.98268822E+02</pdfrwt>
<pdfrwt beam="2">  1       -4 0.13650297E-01 0.98268822E+02</pdfrwt>
<totfact> 0.19242787E+03</totfact>
</mgrwt>
</event>
<event>
 8    1  0.7366917E-004  0.1148283E+03  0.7546771E-02  0.1252435E+00
          1   -1    0    0  501    0  0.00000000000E+00  0.00000000000E+00  0.36898754818E+03  0.36898754818E+03  0.00000000000E+00 0. -1.
         -1   -1    0    0    0  501 -0.00000000000E+00 -0.00000000000E+00 -0.37906608177E+02  0.37906608177E+02  0.00000000000E+00 0.  1.
         23    2    1    2    0    0  0.51042810707E+02 -0.45722456774E+02  0.21929506544E+03  0.24753962672E+03  0.92139185441E+02 0.  0.
         23    2    1    2    0    0 -0.51042810707E+02  0.45722456774E+02  0.11178587456E+03  0.15935452963E+03  0.90564191510E+02 0.  0.
          5    1    3    3  502    0  0.19389219289E+02  0.15466276327E+02  0.14058538812E+03  0.14283378060E+03  0.47000000000E+01 0. -1.
         -5    1    3    3    0  502  0.31653591419E+02 -0.61188733101E+02  0.78709677317E+02  0.10470584612E+03  0.47000000000E+01 0.  1.
          5    1    4    4  503    0 -0.42140544247E+02 -0.12866074007E+02  0.81193105890E+02  0.92497414958E+02  0.47000000000E+01 0. -1.
         -5    1    4    4    0  503 -0.89022664603E+01  0.58588530781E+02  0.30592768668E+02  0.66857114670E+02  0.47000000000E+01 0.  1.
<mgrwt>
<rscale>  0 0.11451203E+03</rscale>
<asrwt>0</asrwt>
<pdfrwt beam="1">  1        1 0.56767313E-01 0.11482831E+03</pdfrwt>
<pdfrwt beam="2">  1       -1 0.58317861E-02 0.11482831E+03</pdfrwt>
<totfact> 0.88052289E+03</totfact>
</mgrwt>
</event>
<event>
 8    1  0.7366917E-004  0.1611006E+03  0.7546771E-02  0.1188042E+00
         -1   -1    0    0    0  501 -0.00000000000E+00  0.00000000000E+00  0.55251326906E+02  0.55251326906E+02  0.00000000000E+00 0.  1.
          1   -1    0    0  501    0  0.00000000000E+00 -0.00000000000E+00 -0.48846876166E+03  0.48846876166E+03  0.00000000000E+00 0. -1.
         23    2    1    2    0    0  0.65286784287E+02  0.11380552756E+03 -0.15410311773E+03  0.22144969428E+03  0.89878439556E+02 0.  0.
         23    2    1    2    0    0 -0.65286784287E+02 -0.11380552756E+03 -0.27911431702E+03  0.32227039429E+03  0.93484451982E+02 0.  0.
          5    1    4    4  502    0 -0.28923632804E+01 -0.66791650361E+02 -0.61314556433E+02  0.90835318868E+02  0.47000000000E+01 0. -1.
         -5    1    3    3    0  503  0.48843752437E+02  0.65581405311E+01 -0.37502418801E+02  0.62106704753E+02  0.47000000000E+01 0.  1.
          5    1    3    3  503    0  0.16443031850E+02  0.10724738702E+03 -0.11660069893E+03  0.15934298953E+03  0.47000000000E+01 0. -1.
         -5    1    4    4    0  502 -0.62394421006E+02 -0.47013877195E+02 -0.21779976059E+03  0.23143507542E+03  0.47000000000E+01 0.  1.
<mgrwt>
<rscale>  0 0.16058175E+03</rscale>
<asrwt>0</asrwt>
<pdfrwt beam="1">  1        1 0.75149036E-01 0.16110061E+03</pdfrwt>
<pdfrwt beam="2">  1       -1 0.85002046E-02 0.16110061E+03</pdfrwt>
<totfact> 0.35712255E+03</totfact>
</mgrwt>
</event>
<event>
 8    1  0.7366917E-004  0.9035061E+02  0.7546771E-02  0.1305090E+00
          1   -1    0    0  501    0  0.00000000000E+00  0.00000000000E+00  0.39631121624E+03  0.39631121624E+03  0.00000000000E+00 0. -1.
         -1   -1    0    0    0  501 -0.00000000000E+00 -0.00000000000E+00 -0.20531363833E+02  0.20531363833E+02  0.00000000000E+00 0.  1.
         23    2    1    2    0    0 -0.68565193089E+01 -0.36682283750E+01  0.22997248316E+03  0.24531117627E+03  0.85028009714E+02 0.  0.
         23    2    1    2    0    0  0.68565193089E+01  0.36682283750E+01  0.14580736925E+03  0.17153140380E+03  0.90015364285E+02 0.  0.
          5    1    3    3  502    0 -0.33311164641E+02 -0.15821857301E+02  0.19939198738E+03  0.20282805400E+03  0.47000000000E+01 0. -1.
         -5    1    3    3    0  502  0.26454645332E+02  0.12153628926E+02  0.30580495781E+02  0.42483122271E+02  0.47000000000E+01 0.  1.
          5    1    4    4  503    0  0.25916873912E+02 -0.29837772774E+02  0.11581892546E+03  0.12246669152E+03  0.47000000000E+01 0. -1.
         -5    1    4    4    0  503 -0.19060354603E+02  0.33506001149E+02  0.29988443791E+02  0.49064712285E+02  0.47000000000E+01 0.  1.
<mgrwt>
<rscale>  0 0.89082211E+02</rscale>
<asrwt>0</asrwt>
<pdfrwt beam="1">  1        1 0.60970950E-01 0.90350615E+02</pdfrwt>
<pdfrwt beam="2">  1       -1 0.31586717E-02 0.90350615E+02</pdfrwt>
<totfact> 0.19318072E+04</totfact>
</mgrwt>
</event>
<event>
 8    1  0.7366917E-004  0.1367602E+03  0.7546771E-02  0.1218042E+00
          1   -1    0    0  501    0  0.00000000000E+00  0.00000000000E+00  0.18287358103E+03  0.18287358103E+03  0.00000000000E+00 0. -1.
         -1   -1    0    0    0  501 -0.00000000000E+00 -0.00000000000E+00 -0.13961271776E+03  0.13961271776E+03  0.00000000000E+00 0.  1.
         23    2    1    2    0    0 -0.28015174910E+02  0.97555470512E+02 -0.62484716587E+02  0.14961211967E+03  0.90429678162E+02 0.  0.
         23    2    1    2    0    0  0.28015174910E+02 -0.97555470512E+02  0.10574557986E+03  0.17287417912E+03  0.91659338288E+02 0.  0.
          5    1    3    3  502    0  0.32865180479E+02  0.40513044888E+02 -0.24165577744E+02  0.57684417668E+02  0.47000000000E+01 0. -1.
         -5    1    4    4    0  503 -0.56758643032E+00 -0.10589132567E+03  0.88911742793E+02  0.13834985730E+03  0.47000000000E+01 0.  1.
          5    1    4    4  503    0  0.28582761340E+02  0.83358551632E+01  0.16833837065E+02  0.34524321824E+02  0.47000000000E+01 0. -1.
         -5    1    3    3    0  502 -0.60880355388E+02  0.57042425623E+02 -0.38319138842E+02  0.91927701999E+02  0.47000000000E+01 0.  1.
<mgrwt>
<rscale>  0 0.13655447E+03</rscale>
<asrwt>0</asrwt>
<pdfrwt beam="1">  1        1 0.28134397E-01 0.13676021E+03</pdfrwt>
<pdfrwt beam="2">  1       -1 0.21478880E-01 0.13676021E+03</pdfrwt>
<totfact> 0.28545480E+03</totfact>
</mgrwt>
</event>
<event>
 8    1  0.7366917E-004  0.1760650E+03  0.7546771E-02  0.1173927E+00
          2   -1    0    0  501    0  0.00000000000E+00  0.00000000000E+00  0.46379534338E+03  0.46379534338E+03  0.00000000000E+00 0. -1.
         -2   -1    0    0    0  501 -0.00000000000E+00 -0.00000000000E+00 -0.71276102672E+02  0.71276102672E+02  0.00000000000E+00 0.  1.
         23    2    1    2    0    0  0.31635579258E+02  0.13601612891E+03  0.28894351071E+03  0.33835960681E+03  0.10722720708E+03 0.  0.
         23    2    1    2    0    0 -0.31635579258E+02 -0.13601612891E+03  0.10357572999E+03  0.19671183924E+03  0.92013143927E+02 0.  0.
          5    1    3    3  502    0 -0.60362499007E+01  0.61865229753E+02  0.22462655387E+03  0.23311568301E+03  0.47000000000E+01 0. -1.
         -5    1    4    4    0  503  0.16216672737E+02 -0.71623646453E+02  0.88241764491E+02  0.11489832987E+03  0.47000000000E+01 0.  1.
          5    1    4    4  503    0 -0.47852251995E+02 -0.64392482456E+02  0.15333965502E+02  0.81813509373E+02  0.47000000000E+01 0. -1.
         -5    1    3    3    0  502  0.37671829159E+02  0.74150899156E+02  0.64316956848E+02  0.10524392380E+03  0.47000000000E+01 0.  1.
<mgrwt>
<rscale>  0 0.17381475E+03</rscale>
<asrwt>0</asrwt>
<pdfrwt beam="1">  1        2 0.71353128E-01 0.17606496E+03</pdfrwt>
<pdfrwt beam="2">  1       -2 0.10965555E-01 0.17606496E+03</pdfrwt>
<totfact> 0.37970241E+03</totfact>
</mgrwt>
</event>
<event>
 8    1  0.7366917E-004  0.2126966E+03  0.7546771E-02  0.1139723E+00
         -3   -1    0    0    0  501 -0.00000000000E+00  0.00000000000E+00  0.26489693220E+02  0.26489693220E+02  0.00000000000E+00 0.  1.
          3   -1    0    0  501    0  0.00000000000E+00 -0.00000000000E+00 -0.16998082946E+04  0.16998082946E+04  0.00000000000E+00 0. -1.
         23    2    1    2    0    0 -0.13457186351E+03 -0.13715156913E+03 -0.87158484290E+03  0.89683016590E+03  0.87886681155E+02 0.  0.
         23    2    1    2    0    0  0.13457186351E+03  0.13715156913E+03 -0.80173375847E+03  0.82946782191E+03  0.91212437494E+02 0.  0.
          5    1    4    4  502    0  0.42021886106E+02  0.55768711654E+02 -0.47691627562E+03  0.48202407830E+03  0.47000000000E+01 0. -1.
         -5    1    4    4    0  502  0.92549977407E+02  0.81382857478E+02 -0.32481748285E+03  0.34744374361E+03  0.47000000000E+01 0.  1.
          5    1    3    3  503    0 -0.11159065038E+03 -0.10443504825E+03 -0.80193874794E+03  0.81638654938E+03  0.47000000000E+01 0. -1.
         -5    1    3    3    0  503 -0.22981213130E+02 -0.32716520882E+02 -0.69646094957E+02  0.80443616517E+02  0.47000000000E+01 0.  1.
<mgrwt>
<rscale>  0 0.21234452E+03</rscale>
<asrwt>0</asrwt>
<pdfrwt beam="1">  1        3 0.26150911E+00 0.21269661E+03</pdfrwt>
<pdfrwt beam="2">  1       -3 0.40753353E-02 0.21269661E+03</pdfrwt>
<totfact> 0.55891665E+01</totfact>
</mgrwt>
</event>
<event>
 8    1  0.7366917E-004  0.9141617E+02  0.7546771E-02  0.1299932E+00
          2   -1    0    0  501    0  0.00000000000E+00  0.00000000000E+00  0.14992267272E+03  0.14992267272E+03  0.00000000000E+00 0. -1.
         -2   -1    0    0    0  501 -0.00000000000E+00 -0.00000000000E+00 -0.12004105338E+03  0.12004105338E+03  0.00000000000E+00 0.  1.
         23    2    1    2    0    0  0.13444191815E+02 -0.13898876838E+02  0.11413221039E+03  0.14622953808E+03  0.89347586923E+02 0.  0.
         23    2    1    2    0    0 -0.13444191815E+02  0.13898876838E+02 -0.84250591052E+02  0.12373418802E+03  0.88532830752E+02 0.  0.
          5    1    4    4  502    0 -0.47655866541E+01  0.35120068032E+02  0.55695174921E+00  0.35756540520E+02  0.47000000000E+01 0. -1.
         -5    1    4    4    0  502 -0.86786051612E+01 -0.21221191194E+02 -0.84807542801E+02  0.87977647497E+02  0.47000000000E+01 0.  1.
          5    1    3    3  503    0  0.40438962837E+02  0.17625857438E+02  0.83081020259E+02  0.94183472505E+02  0.47000000000E+01 0. -1.
         -5    1    3    3    0  503 -0.26994771022E+02 -0.31524734277E+02  0.31051190129E+02  0.52046065578E+02  0.47000000000E+01 0.  1.
<mgrwt>
<rscale>  0 0.91216479E+02</rscale>
<asrwt>0</asrwt>
<pdfrwt beam="1">  1        2 0.23065027E-01 0.91416171E+02</pdfrwt>
<pdfrwt beam="2">  1       -2 0.18467854E-01 0.91416171E+02</pdfrwt>
<totfact> 0.52676502E+03</totfact>
</mgrwt>
</event>
<event>
 8    1  0.7366917E-004  0.1032860E+03  0.7546771E-02  0.1275428E+00
         -2   -1    0    0    0  501 -0.00000000000E+00  0.00000000000E+00  0.14179978454E+03  0.14179978454E+03  0.00000000000E+00 0.  1.
          2   -1    0    0  501    0  0.00000000000E+00 -0.00000000000E+00 -0.12247940713E+03  0.12247940713E+03  0.00000000000E+00 0. -1.
         23    2    1    2    0    0  0.83523757968E+01  0.39637824331E+02  0.94107041320E+02  0.13972880718E+03  0.95010973206E+02 0.  0.
         23    2    1    2    0    0 -0.83523757968E+01 -0.39637824331E+02 -0.74786663908E+02  0.12455038450E+03  0.90988097467E+02 0.  0.
          5    1    3    3  502    0  0.47313487753E+02  0.41973477963E+02  0.64982383366E+02  0.90802748436E+02  0.47000000000E+01 0. -1.
         -5    1    3    3    0  502 -0.38961111957E+02 -0.23356536320E+01  0.29124657954E+02  0.48926058739E+02  0.47000000000E+01 0.  1.
          5    1    4    4  503    0  0.30772028470E+02 -0.21492765976E+02 -0.71689210789E+02  0.81057323352E+02  0.47000000000E+01 0. -1.
         -5    1    4    4    0  503 -0.39124404267E+02 -0.18145058355E+02 -0.30974531190E+01  0.43493061145E+02  0.47000000000E+01 0.  1.
<mgrwt>
<rscale>  0 0.10235140E+03</rscale>
<asrwt>0</asrwt>
<pdfrwt beam="1">  1        2 0.18842986E-01 0.10328603E+03</pdfrwt>
<pdfrwt beam="2">  1       -2 0.21815351E-01 0.10328603E+03</pdfrwt>
<totfact> 0.50319497E+03</totfact>
</mgrwt>
</event>
<event>
 8    1  0.7366917E-004  0.9458370E+02  0.7546771E-02  0.1292924E+00
          3   -1    0    0  501    0  0.00000000000E+00  0.00000000000E+00  0.25148549556E+02  0.25148549556E+02  0.00000000000E+00 0. -1.
         -3   -1    0    0    0  501 -0.00000000000E+00 -0.00000000000E+00 -0.51794202319E+03  0.51794202319E+03  0.00000000000E+00 0.  1.
         23    2    1    2    0    0 -0.75861324402E+01 -0.18019198327E+02 -0.93228385497E+02  0.13280665401E+03  0.92540988616E+02 0.  0.
         23    2    1    2    0    0  0.75861324402E+01  0.18019198327E+02 -0.39956508814E+03  0.41028391873E+03  0.91095517998E+02 0.  0.
          5    1    4    4  502    0 -0.14921271783E+02  0.43104981245E+02 -0.11680852253E+03  0.12548706984E+03  0.47000000000E+01 0. -1.
         -5    1    3    3    0  503  0.30229327234E+02 -0.40175628715E+02 -0.48983106189E+02  0.70351460962E+02  0.47000000000E+01 0.  1.
          5    1    3    3  503    0 -0.37815459674E+02  0.22156430389E+02 -0.44245279308E+02  0.62455193051E+02  0.47000000000E+01 0. -1.
         -5    1    4    4    0  502  0.22507404223E+02 -0.25085782918E+02 -0.28275656561E+03  0.28479684890E+03  0.47000000000E+01 0.  1.
<mgrwt>
<rscale>  0 0.94228254E+02</rscale>
<asrwt>0</asrwt>
<pdfrwt beam="1">  1        3 0.38690076E-02 0.94583696E+02</pdfrwt>
<pdfrwt beam="2">  1       -3 0.79683389E-01 0.94583696E+02</pdfrwt>
<totfact> 0.11136355E+03</totfact>
</mgrwt>
</event>
<event>
 8    1  0.7366917E-004  0.1374176E+03  0.7546771E-02  0.1218079E+00
         -1   -1    0    0    0  501 -0.00000000000E+00  0.00000000000E+00  0.12526175579E+03  0.12526175579E+03  0.00000000000E+00 0.  1.
          1   -1    0    0  501    0  0.00000000000E+00 -0.00000000000E+00 -0.19507225862E+03  0.19507225862E+03  0.00000000000E+00 0. -1.
         23    2    1    2    0    0 -0.10128551620E+03 -0.14790318831E+02 -0.11414281633E+03  0.17594235984E+03  0.86311193617E+02 0.  0.
         23    2    1    2    0    0  0.10128551620E+03  0.14790318831E+02  0.44332313497E+02  0.14439165457E+03  0.91684712824E+02 0.  0.
          5    1    4    4  502    0  0.42718064256E+02  0.25731864353E+02 -0.22345824427E+02  0.54848771419E+02  0.47000000000E+01 0. -1.
         -5    1    3    3    0  503 -0.51348280137E+01 -0.33946398728E+02 -0.20377575466E+02  0.40200249094E+02  0.47000000000E+01 0.  1.
          5    1    3    3  503    0 -0.96150688188E+02  0.19156079897E+02 -0.93765240863E+02  0.13574211075E+03  0.47000000000E+01 0. -1.
         -5    1    4    4    0  502  0.58567451945E+02 -0.10941545522E+02  0.66678137923E+02  0.89542883149E+02  0.47000000000E+01 0.  1.
<mgrwt>
<rscale>  0 0.13652765E+03</rscale>
<asrwt>0</asrwt>
<pdfrwt beam="1">  1        1 0.30011117E-01 0.13741760E+03</pdfrwt>
<pdfrwt beam="2">  1       -1 0.19271039E-01 0.13741760E+03</pdfrwt>
<totfact> 0.31367337E+03</totfact>
</mgrwt>
</event>
<event>
 8    1  0.7366917E-004  0.3113527E+03  0.7546771E-02  0.1079851E+00
          1   -1    0    0  501    0  0.00000000000E+00  0.00000000000E+00  0.44713026273E+03  0.44713026273E+03  0.00000000000E+00 0. -1.
         -1   -1    0    0    0  501 -0.00000000000E+00 -0.00000000000E+00 -0.21718221668E+03  0.21718221668E+03  0.00000000000E+00 0.  1.
         23    2    1    2    0    0  0.29465743419E+03 -0.33591861836E+02  0.89885141614E+02  0.32406768088E+03  0.94810898146E+02 0.  0.
         23    2    1    2    0    0 -0.29465743419E+03  0.33591861836E+02  0.14006290443E+03  0.34024479853E+03  0.90539985762E+02 0.  0.
          5    1    3    3  502    0  0.34577830380E+02  0.12936686078E+02 -0.14507292563E+02  0.39944157745E+02  0.47000000000E+01 0.  1.
         -5    1    4    4    0  503 -0.26814786756E+03  0.41643374577E+02  0.15041565065E+03  0.31029728888E+03  0.47000000000E+01 0.  1.
          5    1    4    4  503    0 -0.26509566625E+02 -0.80515127413E+01 -0.10352746213E+02  0.29947509649E+02  0.47000000000E+01 0. -1.
         -5    1    3    3    0  502  0.26007960381E+03 -0.46528547914E+02  0.10439243418E+03  0.28412352314E+03  0.47000000000E+01 0. -1.
<mgrwt>
<rscale>  0 0.31103378E+03</rscale>
<asrwt>0</asrwt>
<pdfrwt beam="1">  1        1 0.68789271E-01 0.31135273E+03</pdfrwt>
<pdfrwt beam="2">  1       -1 0.33412649E-01 0.31135273E+03</pdfrwt>
<totfact> 0.44601429E+02</totfact>
</mgrwt>
</event>
<event>
 8    1  0.7366917E-004  0.9793787E+02  0.7546771E-02  0.1285325E+00
         -1   -1    0    0    0  501 -0.00000000000E+00  0.00000000000E+00  0.94088343219E+02  0.94088343219E+02  0.00000000000E+00 0.  1.
          1   -1    0    0  501    0  0.00000000000E+00 -0.00000000000E+00 -0.10147930205E+03  0.10147930205E+03  0.00000000000E+00 0. -1.
         23    2    1    2    0    0 -0.11824385455E+02 -0.33506576134E+02  0.46329636001E+01  0.98047386613E+02  0.91265102500E+02 0.  0.
         23    2    1    2    0    0  0.11824385455E+02  0.33506576134E+02 -0.12023922432E+02  0.97520258657E+02  0.90017328345E+02 0.  0.
          5    1    3    3  502    0 -0.57344287836E+01  0.31302475909E+02  0.62184453544E+01  0.32764122667E+02  0.47000000000E+01 0. -1.
         -5    1    4    4    0  503  0.18287542416E+02 -0.23436132801E+02  0.15408231512E+02  0.33811094726E+02  0.47000000000E+01 0.  1.
          5    1    4    4  503    0 -0.64631569604E+01  0.56942708935E+02 -0.27432153944E+02  0.63709163931E+02  0.47000000000E+01 0. -1.
         -5    1    3    3    0  502 -0.60899566716E+01 -0.64809052043E+02 -0.15854817543E+01  0.65283263946E+02  0.47000000000E+01 0.  1.
<mgrwt>
<rscale>  0 0.97646140E+02</rscale>
<asrwt>0</asrwt>
<pdfrwt beam="1">  1        1 0.15612200E-01 0.97937866E+02</pdfrwt>
<pdfrwt beam="2">  1       -1 0.14475130E-01 0.97937866E+02</pdfrwt>
<totfact> 0.10947554E+04</totfact>
</mgrwt>
</event>
<event>
 8    1  0.7366917E-004  0.9988045E+02  0.7546771E-02  0.1283978E+00
         -1   -1    0    0    0  501 -0.00000000000E+00  0.00000000000E+00  0.18583334033E+02  0.18583334033E+02  0.00000000000E+00 0.  1.
          1   -1    0    0  501    0  0.00000000000E+00 -0.00000000000E+00 -0.60578882662E+03  0.60578882662E+03  0.00000000000E+00 0. -1.
         23    2    1    2    0    0  0.19995885735E+02  0.20068192564E+02 -0.41386120231E+03  0.42431129934E+03  0.89198745342E+02 0.  0.
         23    2    1    2    0    0 -0.19995885735E+02 -0.20068192564E+02 -0.17334429027E+03  0.20006086131E+03  0.95778585593E+02 0.  0.
          5    1    4    4  502    0  0.70076447133E+01 -0.27257145930E+02 -0.45369989776E+01  0.28891753986E+02  0.47000000000E+01 0. -1.
         -5    1    4    4    0  502 -0.27003530448E+02  0.71889533657E+01 -0.16880729129E+03  0.17116910732E+03  0.47000000000E+01 0.  1.
          5    1    3    3  503    0  0.37091375277E+02  0.42942748234E+02 -0.34419672728E+03  0.34887437111E+03  0.47000000000E+01 0.  1.
         -5    1    3    3    0  503 -0.17095489542E+02 -0.22874555670E+02 -0.69664475033E+02  0.75436928234E+02  0.47000000000E+01 0.  1.
<mgrwt>
<rscale>  0 0.98269127E+02</rscale>
<asrwt>0</asrwt>
<pdfrwt beam="1">  1        1 0.93198274E-01 0.99880455E+02</pdfrwt>
<pdfrwt beam="2">  1       -1 0.28589747E-02 0.99880455E+02</pdfrwt>
<totfact> 0.13044221E+04</totfact>
</mgrwt>
</event>
<event>
 8    1  0.7366917E-004  0.9102047E+02  0.7546771E-02  0.1300900E+00
          1   -1    0    0  501    0  0.00000000000E+00  0.00000000000E+00  0.53570181365E+03  0.53570181365E+03  0.00000000000E+00 0. -1.
         -1   -1    0    0    0  501 -0.00000000000E+00 -0.00000000000E+00 -0.68527813191E+02  0.68527813191E+02  0.00000000000E+00 0.  1.
         23    2    1    2    0    0 -0.11377938375E+00 -0.14010522267E+02 -0.32373939673E+02  0.96606408082E+02  0.89935634943E+02 0.  0.
         23    2    1    2    0    0  0.11377938375E+00  0.14010522267E+02  0.49954794013E+03  0.50762321876E+03  0.89089169109E+02 0.  0.
          5    1    4    4  502    0  0.13728890667E+02  0.48880020192E+02  0.33102439093E+03  0.33492831502E+03  0.47000000000E+01 0. -1.
         -5    1    3    3    0  503 -0.26710966375E+02  0.59553084830E+01 -0.51095750599E+02  0.58153307327E+02  0.47000000000E+01 0.  1.
          5    1    3    3  503    0  0.26597186991E+02 -0.19965830749E+02  0.18721810925E+02  0.38453100755E+02  0.47000000000E+01 0. -1.
         -5    1    4    4    0  502 -0.13615111284E+02 -0.34869497926E+02  0.16852354920E+03  0.17269490374E+03  0.47000000000E+01 0.  1.
<mgrwt>
<rscale>  0 0.90810676E+02</rscale>
<asrwt>0</asrwt>
<pdfrwt beam="1">  1        1 0.82415661E-01 0.91020471E+02</pdfrwt>
<pdfrwt beam="2">  1       -1 0.10542741E-01 0.91020471E+02</pdfrwt>
<totfact> 0.22332123E+03</totfact>
</mgrwt>
</event>
<event>
 8    1  0.7366917E-004  0.9861038E+02  0.7546771E-02  0.1283319E+00
         -1   -1    0    0    0  501 -0.00000000000E+00  0.00000000000E+00  0.76927140466E+01  0.76927140466E+01  0.00000000000E+00 0.  1.
          1   -1    0    0  501    0  0.00000000000E+00 -0.00000000000E+00 -0.12625063548E+04  0.12625063548E+04  0.00000000000E+00 0. -1.
         23    2    1    2    0    0 -0.38558130089E+02 -0.84165453142E+01 -0.61983887907E+03  0.62763384546E+03  0.90368359104E+02 0.  0.
         23    2    1    2    0    0  0.38558130089E+02  0.84165453142E+01 -0.63497476168E+03  0.64256522338E+03  0.90219458555E+02 0.  0.
          5    1    4    4  502    0  0.12889896915E+02 -0.40149798272E+02 -0.32016294009E+03  0.32296215561E+03  0.47000000000E+01 0. -1.
         -5    1    3    3    0  503 -0.15681092542E+02  0.40878235959E+02 -0.26936439604E+03  0.27293991041E+03  0.47000000000E+01 0.  1.
          5    1    3    3  503    0 -0.22877037548E+02 -0.49294781274E+02 -0.35047448303E+03  0.35469393505E+03  0.47000000000E+01 0. -1.
         -5    1    4    4    0  502  0.25668233174E+02  0.48566343586E+02 -0.31481182158E+03  0.31960306777E+03  0.47000000000E+01 0.  1.
<mgrwt>
<rscale>  0 0.98576258E+02</rscale>
<asrwt>0</asrwt>
<pdfrwt beam="1">  1        1 0.19423159E+00 0.98610385E+02</pdfrwt>
<pdfrwt beam="2">  1       -1 0.11834954E-02 0.98610385E+02</pdfrwt>
<totfact> 0.14396637E+04</totfact>
</mgrwt>
</event>
<event>
 8    1  0.7366917E-004  0.1318406E+03  0.7546771E-02  0.1231507E+00
          1   -1    0    0  501    0  0.00000000000E+00  0.00000000000E+00  0.79349731859E+03  0.79349731859E+03  0.00000000000E+00 0. -1.
         -1   -1    0    0    0  501 -0.00000000000E+00 -0.00000000000E+00 -0.21191560486E+02  0.21191560486E+02  0.00000000000E+00 0.  1.
         23    2    1    2    0    0  0.59157807580E+02  0.36092154616E+02  0.53704410996E+03  0.55299034907E+03  0.11215908477E+03 0.  0.
         23    2    1    2    0    0 -0.59157807580E+02 -0.36092154616E+02  0.23526164814E+03  0.26169853000E+03  0.91300535039E+02 0.  0.
          5    1    3    3  502    0 -0.30687453801E+02  0.37117287270E+01  0.20793098352E+03  0.21026859171E+03  0.47000000000E+01 0. -1.
         -5    1    3    3    0  502  0.89845261381E+02  0.32380425889E+02  0.32911312644E+03  0.34272175736E+03  0.47000000000E+01 0.  1.
          5    1    4    4  503    0 -0.49249820335E+02 -0.62562304680E+02  0.12921313342E+03  0.15184765595E+03  0.47000000000E+01 0. -1.
         -5    1    4    4    0  503 -0.99079872445E+01  0.26470150065E+02  0.10604851472E+03  0.10985087405E+03  0.47000000000E+01 0.  1.
<mgrwt>
<rscale>  0 0.12730733E+03</rscale>
<asrwt>0</asrwt>
<pdfrwt beam="1">  1        1 0.12207649E+00 0.13184062E+03</pdfrwt>
<pdfrwt beam="2">  1       -1 0.32602407E-02 0.13184062E+03</pdfrwt>
<totfact> 0.74960591E+03</totfact>
</mgrwt>
</event>
<event>
 8    1  0.7366917E-004  0.9507376E+02  0.7546771E-02  0.1291924E+00
          1   -1    0    0  501    0  0.00000000000E+00  0.00000000000E+00  0.96566742946E+02  0.96566742946E+02  0.00000000000E+00 0. -1.
         -1   -1    0    0    0  501 -0.00000000000E+00 -0.00000000000E+00 -0.10219066681E+03  0.10219066681E+03  0.00000000000E+00 0.  1.
         23    2    1    2    0    0  0.24884641015E+02 -0.14486397900E+02  0.28508904281E+02  0.99256122754E+02  0.90608604438E+02 0.  0.
         23    2    1    2    0    0 -0.24884641015E+02  0.14486397900E+02 -0.34132828148E+02  0.99501287006E+02  0.88917687081E+02 0.  0.
          5    1    3    3  502    0 -0.16932091510E+02  0.19895210517E+02  0.35652256849E+02  0.44448718123E+02  0.47000000000E+01 0. -1.
         -5    1    4    4    0  503 -0.68888732342E+01 -0.20993847347E+02 -0.51196565216E+02  0.55958703440E+02  0.47000000000E+01 0.  1.
          5    1    4    4  503    0 -0.17995767781E+02  0.35480245247E+02  0.17063737067E+02  0.43542583565E+02  0.47000000000E+01 0. -1.
         -5    1    3    3    0  502  0.41816732525E+02 -0.34381608417E+02 -0.71433525677E+01  0.54807404630E+02  0.47000000000E+01 0.  1.
<mgrwt>
<rscale>  0 0.94668655E+02</rscale>
<asrwt>0</asrwt>
<pdfrwt beam="1">  1        1 0.14856422E-01 0.95073762E+02</pdfrwt>
<pdfrwt beam="2">  1       -1 0.15721641E-01 0.95073762E+02</pdfrwt>
<totfact> 0.10232197E+04</totfact>
</mgrwt>
</event>
<event>
 8    1  0.7366917E-004  0.1339488E+03  0.7546771E-02  0.1222062E+00
          1   -1    0    0  501    0  0.00000000000E+00  0.00000000000E+00  0.21832872812E+03  0.21832872812E+03  0.00000000000E+00 0. -1.
         -1   -1    0    0    0  501 -0.00000000000E+00 -0.00000000000E+00 -0.91543701763E+02  0.91543701763E+02  0.00000000000E+00 0.  1.
         23    2    1    2    0    0  0.93378958786E+02 -0.29849973362E+02  0.11471283465E+03  0.17635564027E+03  0.91277744098E+02 0.  0.
         23    2    1    2    0    0 -0.93378958786E+02  0.29849973362E+02  0.12072191715E+02  0.13351678962E+03  0.89835095839E+02 0.  0.
          5    1    3    3  502    0  0.66726329554E+02 -0.84750778760E+01  0.12355294654E+03  0.14075386531E+03  0.47000000000E+01 0. -1.
         -5    1    3    3    0  502  0.26652629232E+02 -0.21374895486E+02 -0.88401118916E+01  0.35601774960E+02  0.47000000000E+01 0.  1.
          5    1    4    4  503    0 -0.69917223962E+02  0.16881295795E+02 -0.34240456252E+02  0.79799092719E+02  0.47000000000E+01 0.  1.
         -5    1    4    4    0  503 -0.23461734823E+02  0.12968677567E+02  0.46312647968E+02  0.53717696903E+02  0.47000000000E+01 0. -1.
<mgrwt>
<rscale>  0 0.13370339E+03</rscale>
<asrwt>0</asrwt>
<pdfrwt beam="1">  1        1 0.33589035E-01 0.13394879E+03</pdfrwt>
<pdfrwt beam="2">  1       -1 0.14083646E-01 0.13394879E+03</pdfrwt>
<totfact> 0.44690498E+03</totfact>
</mgrwt>
</event>
<event>
 8    1  0.7366917E-004  0.1178982E+03  0.7546771E-02  0.1249400E+00
         -1   -1    0    0    0  501 -0.00000000000E+00  0.00000000000E+00  0.38072375399E+02  0.38072375399E+02  0.00000000000E+00 0.  1.
          1   -1    0    0  501    0  0.00000000000E+00 -0.00000000000E+00 -0.34887834131E+03  0.34887834131E+03  0.00000000000E+00 0. -1.
         23    2    1    2    0    0  0.61192878531E+02  0.40162072314E+02 -0.17880390767E+03  0.21417472245E+03  0.92425180033E+02 0.  0.
         23    2    1    2    0    0 -0.61192878531E+02 -0.40162072314E+02 -0.13200205825E+03  0.17277599426E+03  0.84079964180E+02 0.  0.
          5    1    4    4  502    0 -0.37368319153E+02  0.22776447226E+02 -0.51681126927E+02  0.67883626192E+02  0.47000000000E+01 0. -1.
         -5    1    3    3    0  503  0.42335568119E+02 -0.13534791368E+02 -0.27558257446E+02  0.52507508594E+02  0.47000000000E+01 0. -1.
          5    1    3    3  503    0  0.18857310413E+02  0.53696863682E+02 -0.15124565022E+03  0.16166721386E+03  0.47000000000E+01 0. -1.
         -5    1    4    4    0  502 -0.23824559379E+02 -0.62938519539E+02 -0.80320931320E+02  0.10489236807E+03  0.47000000000E+01 0.  1.
<mgrwt>
<rscale>  0 0.11625885E+03</rscale>
<asrwt>0</asrwt>
<pdfrwt beam="1">  1        1 0.53673588E-01 0.11789815E+03</pdfrwt>
<pdfrwt beam="2">  1       -1 0.58572889E-02 0.11789815E+03</pdfrwt>
<totfact> 0.93982109E+03</totfact>
</mgrwt>
</event>
<event>
 8    1  0.7366917E-004  0.1941670E+03  0.7546771E-02  0.1155799E+00
         -2   -1    0    0    0  501 -0.00000000000E+00  0.00000000000E+00  0.38525284198E+03  0.38525284198E+03  0.00000000000E+00 0.  1.
          2   -1    0    0  501    0  0.00000000000E+00 -0.00000000000E+00 -0.12848946516E+03  0.12848946516E+03  0.00000000000E+00 0. -1.
         23    2    1    2    0    0 -0.15939804295E+03  0.63903495622E+02  0.25968619260E+03  0.32424948808E+03  0.90605844413E+02 0.  0.
         23    2    1    2    0    0  0.15939804295E+03 -0.63903495622E+02 -0.29228157911E+01  0.18949281906E+03  0.80047440766E+02 0.  0.
          5    1    3    3  502    0 -0.12437934409E+03  0.51221702172E+01  0.15127377829E+03  0.19596505776E+03  0.47000000000E+01 0. -1.
         -5    1    4    4    0  503  0.14193110515E+03 -0.52830441428E+02 -0.30647882254E+02  0.15458614698E+03  0.47000000000E+01 0.  1.
          5    1    4    4  503    0  0.17466937800E+02 -0.11073054193E+02  0.27725066463E+02  0.34906672080E+02  0.47000000000E+01 0. -1.
         -5    1    3    3    0  502 -0.35018698868E+02  0.58781325405E+02  0.10841241431E+03  0.12828443032E+03  0.47000000000E+01 0.  1.
<mgrwt>
<rscale>  0 0.19298199E+03</rscale>
<asrwt>0</asrwt>
<pdfrwt beam="1">  1        2 0.19767610E-01 0.19416697E+03</pdfrwt>
<pdfrwt beam="2">  1       -2 0.59269667E-01 0.19416697E+03</pdfrwt>
<totfact> 0.75986322E+02</totfact>
</mgrwt>
</event>
<event>
 8    1  0.7366917E-004  0.1133499E+03  0.7546771E-02  0.1260180E+00
         -3   -1    0    0    0  501 -0.00000000000E+00  0.00000000000E+00  0.10136342605E+04  0.10136342605E+04  0.00000000000E+00 0.  1.
          3   -1    0    0  501    0  0.00000000000E+00 -0.00000000000E+00 -0.17428105226E+02  0.17428105226E+02  0.00000000000E+00 0. -1.
         23    2    1    2    0    0 -0.45712145413E+01 -0.47115051072E+02  0.17609843719E+03  0.20315846020E+03  0.89565486249E+02 0.  0.
         23    2    1    2    0    0  0.45712145413E+01  0.47115051072E+02  0.82010771807E+03  0.82790390552E+03  0.10299263807E+03 0.  0.
          5    1    3    3  502    0  0.10466510515E+02  0.24948437968E+02  0.51404992091E+02  0.58279804489E+02  0.47000000000E+01 0. -1.
         -5    1    4    4    0  503 -0.19720296046E+02 -0.26880560174E+02  0.31688823691E+03  0.31867177359E+03  0.47000000000E+01 0.  1.
          5    1    4    4  503    0  0.24291510587E+02  0.73995611246E+02  0.50321948117E+03  0.50923213194E+03  0.47000000000E+01 0. -1.
         -5    1    3    3    0  502 -0.15037725057E+02 -0.72063489041E+02  0.12469344510E+03  0.14487865571E+03  0.47000000000E+01 0.  1.
<mgrwt>
<rscale>  0 0.11021067E+03</rscale>
<asrwt>0</asrwt>
<pdfrwt beam="1">  1        3 0.26812478E-02 0.11334993E+03</pdfrwt>
<pdfrwt beam="2">  1       -3 0.15594369E+00 0.11334993E+03</pdfrwt>
<totfact> 0.42757859E+02</totfact>
</mgrwt>
</event>
<event>
 8    1  0.7366917E-004  0.9441545E+02  0.7546771E-02  0.1293273E+00
          1   -1    0    0  501    0  0.00000000000E+00  0.00000000000E+00  0.75560835713E+03  0.75560835713E+03  0.00000000000E+00 0. -1.
         -1   -1    0    0    0  501 -0.00000000000E+00 -0.00000000000E+00 -0.16102763564E+02  0.16102763564E+02  0.00000000000E+00 0.  1.
         23    2    1    2    0    0 -0.14621712961E+02 -0.16647366191E+02  0.16444611654E+03  0.18895243981E+03  0.90385673518E+02 0.  0.
         23    2    1    2    0    0  0.14621712961E+02  0.16647366191E+02  0.57505947703E+03  0.58275868088E+03  0.91778803248E+02 0.  0.
          5    1    4    4  502    0  0.41236817107E+02  0.27768779746E+02  0.49534202504E+03  0.49785278143E+03  0.47000000000E+01 0. -1.
         -5    1    4    4    0  502 -0.26615104145E+02 -0.11121413555E+02  0.79717451992E+02  0.84905899443E+02  0.47000000000E+01 0.  1.
          5    1    3    3  503    0 -0.23858452858E+02  0.27883014154E+02  0.11847153847E+03  0.12411399469E+03  0.47000000000E+01 0. -1.
         -5    1    3    3    0  503  0.92367398967E+01 -0.44530380346E+02  0.45974578068E+02  0.64838445125E+02  0.47000000000E+01 0.  1.
<mgrwt>
<rscale>  0 0.94075207E+02</rscale>
<asrwt>0</asrwt>
<pdfrwt beam="1">  1        1 0.11624741E+00 0.94415454E+02</pdfrwt>
<pdfrwt beam="2">  1       -1 0.24773488E-02 0.94415454E+02</pdfrwt>
<totfact> 0.11722762E+04</totfact>
</mgrwt>
</event>
<event>
 8    1  0.7366917E-004  0.9969014E+02  0.7546771E-02  0.1283371E+00
          3   -1    0    0  501    0  0.00000000000E+00  0.00000000000E+00  0.23970155248E+03  0.23970155248E+03  0.00000000000E+00 0. -1.
         -3   -1    0    0    0  501 -0.00000000000E+00 -0.00000000000E+00 -0.43420356568E+02  0.43420356568E+02  0.00000000000E+00 0.  1.
         23    2    1    2    0    0  0.24583413397E+02  0.49850564470E+01  0.54213200915E+02  0.10956661839E+03  0.91850844908E+02 0.  0.
         23    2    1    2    0    0 -0.24583413397E+02 -0.49850564470E+01  0.14206799499E+03  0.17355529065E+03  0.96482789709E+02 0.  0.
          5    1    4    4  502    0 -0.44508474291E+02  0.21309747299E+02  0.12821949812E+03  0.13746795740E+03  0.47000000000E+01 0. -1.
         -5    1    4    4    0  502  0.19925060894E+02 -0.26294803746E+02  0.13848496876E+02  0.36087333254E+02  0.47000000000E+01 0.  1.
          5    1    3    3  503    0 -0.29116456749E+02  0.23925853698E+02  0.19190924012E+02  0.42551099788E+02  0.47000000000E+01 0. -1.
         -5    1    3    3    0  503  0.53699870146E+02 -0.18940797251E+02  0.35022276903E+02  0.67015518603E+02  0.47000000000E+01 0.  1.
<mgrwt>
<rscale>  0 0.98551844E+02</rscale>
<asrwt>0</asrwt>
<pdfrwt beam="1">  1        3 0.36877161E-01 0.99690138E+02</pdfrwt>
<pdfrwt beam="2">  1       -3 0.66800550E-02 0.99690138E+02</pdfrwt>
<totfact> 0.22476898E+03</totfact>
</mgrwt>
</event>
<event>
 8    1  0.7366917E-004  0.9474372E+02  0.7546771E-02  0.1291788E+00
          2   -1    0    0  501    0  0.00000000000E+00  0.00000000000E+00  0.33578523765E+03  0.33578523765E+03  0.00000000000E+00 0. -1.
         -2   -1    0    0    0  501 -0.00000000000E+00 -0.00000000000E+00 -0.26761480862E+02  0.26761480862E+02  0.00000000000E+00 0.  1.
         23    2    1    2    0    0 -0.26176861378E+02 -0.43671243528E+01  0.14705990507E+03  0.17493710001E+03  0.90950939700E+02 0.  0.
         23    2    1    2    0    0  0.26176861378E+02  0.43671243528E+01  0.16196385172E+03  0.18760961851E+03  0.90888832352E+02 0.  0.
          5    1    4    4  502    0  0.50400483018E+02 -0.14009898479E+02  0.14077166365E+03  0.15025058146E+03  0.47000000000E+01 0. -1.
         -5    1    4    4    0  502 -0.24223621641E+02  0.18377022832E+02  0.21192188066E+02  0.37359037040E+02  0.47000000000E+01 0.  1.
          5    1    3    3  503    0 -0.41087042065E+01  0.26678436617E+02  0.13014220626E+03  0.13299512878E+03  0.47000000000E+01 0. -1.
         -5    1    3    3    0  503 -0.22068157171E+02 -0.31045560970E+02  0.16917698814E+02  0.41941971223E+02  0.47000000000E+01 0.  1.
<mgrwt>
<rscale>  0 0.94728816E+02</rscale>
<asrwt>0</asrwt>
<pdfrwt beam="1">  1        2 0.51659264E-01 0.94743724E+02</pdfrwt>
<pdfrwt beam="2">  1       -2 0.41171511E-02 0.94743724E+02</pdfrwt>
<totfact> 0.22892106E+04</totfact>
</mgrwt>
</event>
<event>
 8    1  0.7366917E-004  0.9177902E+02  0.7546771E-02  0.1299372E+00
          2   -1    0    0  501    0  0.00000000000E+00  0.00000000000E+00  0.66426714215E+02  0.66426714215E+02  0.00000000000E+00 0. -1.
         -2   -1    0    0    0  501 -0.00000000000E+00 -0.00000000000E+00 -0.21042841188E+03  0.21042841188E+03  0.00000000000E+00 0.  1.
         23    2    1    2    0    0 -0.21277634017E+01  0.57986436827E+01  0.16494429808E+02  0.91970309998E+02  0.90268045624E+02 0.  0.
         23    2    1    2    0    0  0.21277634017E+01 -0.57986436827E+01 -0.16049612747E+03  0.18488481609E+03  0.91570937765E+02 0.  0.
          5    1    4    4  502    0  0.17920797965E+02  0.13962575419E+02 -0.88798246347E+00  0.23216094092E+02  0.47000000000E+01 0. -1.
         -5    1    3    3    0  503 -0.18562602898E+02 -0.38132476897E+02  0.13419281122E+02  0.44730561437E+02  0.47000000000E+01 0.  1.
          5    1    3    3  503    0  0.16434839496E+02  0.43931120580E+02  0.30751486867E+01  0.47239748561E+02  0.47000000000E+01 0. -1.
         -5    1    4    4    0  502 -0.15793034563E+02 -0.19761219102E+02 -0.15960814501E+03  0.16166872200E+03  0.47000000000E+01 0.  1.
<mgrwt>
<rscale>  0 0.91452304E+02</rscale>
<asrwt>0</asrwt>
<pdfrwt beam="1">  1        2 0.10219495E-01 0.91779019E+02</pdfrwt>
<pdfrwt beam="2">  1       -2 0.32373601E-01 0.91779019E+02</pdfrwt>
<totfact> 0.51107620E+03</totfact>
</mgrwt>
</event>
<event>
 8    1  0.7366917E-004  0.1351885E+03  0.7546771E-02  0.1220428E+00
          1   -1    0    0  501    0  0.00000000000E+00  0.00000000000E+00  0.34993363734E+03  0.34993363734E+03  0.00000000000E+00 0. -1.
         -1   -1    0    0    0  501 -0.00000000000E+00 -0.00000000000E+00 -0.51757741377E+02  0.51757741377E+02  0.00000000000E+00 0.  1.
         23    2    1    2    0    0  0.67419143483E+02  0.72051930702E+02  0.14380903460E+03  0.19737517184E+03  0.92407242140E+02 0.  0.
         23    2    1    2    0    0 -0.67419143483E+02 -0.72051930702E+02  0.15436686136E+03  0.20431620688E+03  0.90438724452E+02 0.  0.
          5    1    4    4  502    0 -0.42035342272E+02 -0.69511513795E+02  0.47228031854E+02  0.94081866174E+02  0.47000000000E+01 0.  1.
         -5    1    4    4    0  502 -0.25383801212E+02 -0.25404169071E+01  0.10713882951E+03  0.11023434071E+03  0.47000000000E+01 0. -1.
          5    1    3    3  503    0  0.40323979304E+01  0.66000005445E+02  0.46436765980E+02  0.80936544196E+02  0.47000000000E+01 0. -1.
         -5    1    3    3    0  503  0.63386745553E+02  0.60519252578E+01  0.97372268621E+02  0.11643862764E+03  0.47000000000E+01 0.  1.
<mgrwt>
<rscale>  0 0.13485275E+03</rscale>
<asrwt>0</asrwt>
<pdfrwt beam="1">  1        1 0.53835943E-01 0.13518846E+03</pdfrwt>
<pdfrwt beam="2">  1       -1 0.79627297E-02 0.13518846E+03</pdfrwt>
<totfact> 0.59719619E+03</totfact>
</mgrwt>
</event>
<event>
 8    1  0.7366917E-004  0.9361185E+02  0.7546771E-02  0.1294354E+00
         -1   -1    0    0    0  501 -0.00000000000E+00  0.00000000000E+00  0.13929152471E+03  0.13929152471E+03  0.00000000000E+00 0.  1.
          1   -1    0    0  501    0  0.00000000000E+00 -0.00000000000E+00 -0.63139904337E+02  0.63139904337E+02  0.00000000000E+00 0. -1.
         23    2    1    2    0    0  0.16355580674E+02 -0.11286622412E+02  0.31702733860E+02  0.98834416254E+02  0.91478334251E+02 0.  0.
         23    2    1    2    0    0 -0.16355580674E+02  0.11286622412E+02  0.44448886515E+02  0.10359701280E+03  0.91442575878E+02 0.  0.
          5    1    4    4  502    0  0.37105766188E+02 -0.26768699988E+01  0.12124296518E+02  0.39409289304E+02  0.47000000000E+01 0. -1.
         -5    1    3    3    0  503 -0.15657000344E+02  0.21370625933E+02  0.43703836776E+02  0.51322126432E+02  0.47000000000E+01 0.  1.
          5    1    3    3  503    0  0.32012581018E+02 -0.32657248345E+02 -0.12001102916E+02  0.47512289822E+02  0.47000000000E+01 0. -1.
         -5    1    4    4    0  502 -0.53461346862E+02  0.13963492411E+02  0.32324589997E+02  0.64187723492E+02  0.47000000000E+01 0.  1.
<mgrwt>
<rscale>  0 0.93603113E+02</rscale>
<asrwt>0</asrwt>
<pdfrwt beam="1">  1        1 0.97138315E-02 0.93611850E+02</pdfrwt>
<pdfrwt beam="2">  1       -1 0.21429465E-01 0.93611850E+02</pdfrwt>
<totfact> 0.10876123E+04</totfact>
</mgrwt>
</event>
<event>
 8    1  0.7366917E-004  0.1029857E+03  0.7546771E-02  0.1274419E+00
         -1   -1    0    0    0  501 -0.00000000000E+00  0.00000000000E+00  0.66171113040E+02  0.66171113040E+02  0.00000000000E+00 0.  1.
          1   -1    0    0  501    0  0.00000000000E+00 -0.00000000000E+00 -0.19445363460E+03  0.19445363460E+03  0.00000000000E+00 0. -1.
         23    2    1    2    0    0  0.14524647417E+02  0.45799491488E+02 -0.89750001745E+01  0.10337607855E+03  0.91090637196E+02 0.  0.
         23    2    1    2    0    0 -0.14524647417E+02 -0.45799491488E+02 -0.11930752139E+03  0.15724866909E+03  0.90467123692E+02 0.  0.
          5    1    3    3  502    0  0.52453510397E+02  0.29551526767E+02  0.19985137000E+01  0.60421416272E+02  0.47000000000E+01 0. -1.
         -5    1    3    3    0  502 -0.37928862980E+02  0.16247964721E+02 -0.10973513875E+02  0.42954662277E+02  0.47000000000E+01 0.  1.
          5    1    4    4  503    0 -0.39551871750E+02 -0.45479475831E+02 -0.11697700991E+03  0.13167552592E+03  0.47000000000E+01 0. -1.
         -5    1    4    4    0  503  0.25027224333E+02 -0.32001565702E+00 -0.23305114811E+01  0.25573143170E+02  0.47000000000E+01 0.  1.
<mgrwt>
<rscale>  0 0.10284769E+03</rscale>
<asrwt>0</asrwt>
<pdfrwt beam="1">  1        1 0.29915943E-01 0.10298574E+03</pdfrwt>
<pdfrwt beam="2">  1       -1 0.10180172E-01 0.10298574E+03</pdfrwt>
<totfact> 0.83397040E+03</totfact>
</mgrwt>
</event>
<event>
 8    1  0.7366917E-004  0.1335359E+03  0.7546771E-02  0.1223013E+00
          2   -1    0    0  501    0  0.00000000000E+00  0.00000000000E+00  0.39606953668E+03  0.39606953668E+03  0.00000000000E+00 0. -1.
         -2   -1    0    0    0  501 -0.00000000000E+00 -0.00000000000E+00 -0.44690044374E+02  0.44690044374E+02  0.00000000000E+00 0.  1.
         23    2    1    2    0    0  0.87630171527E+02  0.34862497327E+02  0.19333444492E+03  0.23385365731E+03  0.91732680981E+02 0.  0.
         23    2    1    2    0    0 -0.87630171527E+02 -0.34862497327E+02  0.15804504738E+03  0.20690592375E+03  0.94537736371E+02 0.  0.
          5    1    3    3  502    0  0.33321807721E+02  0.59343106427E+02  0.75650897475E+02  0.10186802952E+03  0.47000000000E+01 0. -1.
         -5    1    3    3    0  502  0.54308363806E+02 -0.24480609100E+02  0.11768354745E+03  0.13198562778E+03  0.47000000000E+01 0.  1.
          5    1    4    4  503    0 -0.64642525303E+02 -0.62086696528E+01  0.15687803628E+03  0.16985291261E+03  0.47000000000E+01 0. -1.
         -5    1    4    4    0  503 -0.22987646224E+02 -0.28653827674E+02  0.11670111039E+01  0.37053011135E+02  0.47000000000E+01 0.  1.
<mgrwt>
<rscale>  0 0.13304037E+03</rscale>
<asrwt>0</asrwt>
<pdfrwt beam="1">  1        2 0.60933772E-01 0.13353585E+03</pdfrwt>
<pdfrwt beam="2">  1       -2 0.68753917E-02 0.13353585E+03</pdfrwt>
<totfact> 0.91839769E+03</totfact>
</mgrwt>
</event>
<event>
 8    1  0.7366917E-004  0.1037926E+03  0.7546771E-02  0.1272979E+00
         -1   -1    0    0    0  501 -0.00000000000E+00  0.00000000000E+00  0.29983381223E+03  0.29983381223E+03  0.00000000000E+00 0.  1.
          1   -1    0    0  501    0  0.00000000000E+00 -0.00000000000E+00 -0.75418521447E+02  0.75418521447E+02  0.00000000000E+00 0. -1.
         23    2    1    2    0    0  0.43704520211E+02  0.18602883076E+02 -0.23867078814E+02  0.10650139337E+03  0.92286277384E+02 0.  0.
         23    2    1    2    0    0 -0.43704520211E+02 -0.18602883076E+02  0.24828236960E+03  0.26875094030E+03  0.91251194605E+02 0.  0.
          5    1    4    4  502    0 -0.18920033645E+02  0.36392247138E+02  0.82082471578E+02  0.91880277891E+02  0.47000000000E+01 0. -1.
         -5    1    4    4    0  502 -0.24784486566E+02 -0.54995130214E+02  0.16619989802E+03  0.17687066241E+03  0.47000000000E+01 0.  1.
          5    1    3    3  503    0  0.51374980721E+02  0.40763958831E+02 -0.40632850859E+02  0.77292998083E+02  0.47000000000E+01 0. -1.
         -5    1    3    3    0  503 -0.76704605104E+01 -0.22161075755E+02  0.16765772045E+02  0.29208395289E+02  0.47000000000E+01 0.  1.
<mgrwt>
<rscale>  0 0.10356205E+03</rscale>
<asrwt>0</asrwt>
<pdfrwt beam="1">  1        1 0.11602850E-01 0.10379263E+03</pdfrwt>
<pdfrwt beam="2">  1       -1 0.46128278E-01 0.10379263E+03</pdfrwt>
<totfact> 0.23930751E+03</totfact>
</mgrwt>
</event>
<event>
 8    1  0.7366917E-004  0.2020225E+03  0.7546771E-02  0.1151561E+00
         -1   -1    0    0    0  501 -0.00000000000E+00  0.00000000000E+00  0.17383890613E+02  0.17383890613E+02  0.00000000000E+00 0.  1.
          1   -1    0    0  501    0  0.00000000000E+00 -0.00000000000E+00 -0.22189245755E+04  0.22189245755E+04  0.00000000000E+00 0. -1.
         23    2    1    2    0    0 -0.39269118738E+02  0.15742519890E+03 -0.12322506453E+04  0.12461891447E+04  0.90669590451E+02 0.  0.
         23    2    1    2    0    0  0.39269118738E+02 -0.15742519890E+03 -0.96929003954E+03  0.99011932135E+03  0.12036749071E+03 0.  0.
          5    1    3    3  502    0  0.28725164126E+02  0.54416261615E+02 -0.46056857223E+03  0.46468458583E+03  0.47000000000E+01 0. -1.
         -5    1    4    4    0  503  0.32810448872E+02  0.15800894003E+01 -0.31479716295E+03  0.31654125487E+03  0.47000000000E+01 0.  1.
          5    1    4    4  503    0  0.64586698659E+01 -0.15900528830E+03 -0.65449287659E+03  0.67357806647E+03  0.47000000000E+01 0. -1.
         -5    1    3    3    0  502 -0.67994282864E+02  0.10300893729E+03 -0.77168207308E+03  0.78150455889E+03  0.47000000000E+01 0.  1.
<mgrwt>
<rscale>  0 0.19785594E+03</rscale>
<asrwt>0</asrwt>
<pdfrwt beam="1">  1        1 0.34137267E+00 0.20202250E+03</pdfrwt>
<pdfrwt beam="2">  1       -1 0.26744474E-02 0.20202250E+03</pdfrwt>
<totfact> 0.10931270E+03</totfact>
</mgrwt>
</event>
<event>
 8    1  0.7366917E-004  0.9326560E+02  0.7546771E-02  0.1295325E+00
          1   -1    0    0  501    0  0.00000000000E+00  0.00000000000E+00  0.20127157874E+03  0.20127157874E+03  0.00000000000E+00 0. -1.
         -1   -1    0    0    0  501 -0.00000000000E+00 -0.00000000000E+00 -0.51107341216E+02  0.51107341216E+02  0.00000000000E+00 0.  1.
         23    2    1    2    0    0 -0.17934522641E+02 -0.62444199611E+01  0.12526177867E+03  0.15616973316E+03  0.91311732411E+02 0.  0.
         23    2    1    2    0    0  0.17934522641E+02  0.62444199611E+01  0.24902458853E+02  0.96209186798E+02  0.90969419502E+02 0.  0.
          5    1    3    3  502    0 -0.54680385982E+02 -0.92684128071E+01  0.67580693395E+02  0.87550489472E+02  0.47000000000E+01 0. -1.
         -5    1    3    3    0  502  0.36745863341E+02  0.30239928460E+01  0.57681085276E+02  0.68619243686E+02  0.47000000000E+01 0.  1.
          5    1    4    4  503    0  0.23738311585E+02  0.39113936745E+02 -0.10656681200E+02  0.47212946728E+02  0.47000000000E+01 0.  1.
         -5    1    4    4    0  503 -0.58037889438E+01 -0.32869516784E+02  0.35559140052E+02  0.48996240070E+02  0.47000000000E+01 0. -1.
<mgrwt>
<rscale>  0 0.93181709E+02</rscale>
<asrwt>0</asrwt>
<pdfrwt beam="1">  1        1 0.30964858E-01 0.93265601E+02</pdfrwt>
<pdfrwt beam="2">  1       -1 0.78626680E-02 0.93265601E+02</pdfrwt>
<totfact> 0.11687575E+04</totfact>
</mgrwt>
</event>
<event>
 8    1  0.7366917E-004  0.1970251E+03  0.7546771E-02  0.1152469E+00
         -1   -1    0    0    0  501 -0.00000000000E+00  0.00000000000E+00  0.85523143983E+03  0.85523143983E+03  0.00000000000E+00 0.  1.
          1   -1    0    0  501    0  0.00000000000E+00 -0.00000000000E+00 -0.53078458137E+02  0.53078458137E+02  0.00000000000E+00 0. -1.
         23    2    1    2    0    0  0.98852991376E+02 -0.14266956396E+03  0.22668695405E+03  0.30034292818E+03  0.93232939380E+02 0.  0.
         23    2    1    2    0    0 -0.98852991376E+02  0.14266956396E+03  0.57546602764E+03  0.60796696979E+03  0.91302623183E+02 0.  0.
          5    1    4    4  502    0  0.14521564714E+02  0.23034318315E+02  0.48655609903E+02  0.55954571189E+02  0.47000000000E+01 0. -1.
         -5    1    3    3    0  503  0.11136351205E+02 -0.18703741654E+02  0.10021301743E+03  0.10265762091E+03  0.47000000000E+01 0.  1.
          5    1    3    3  503    0  0.87716640170E+02 -0.12396582230E+03  0.12647393662E+03  0.19768530726E+03  0.47000000000E+01 0. -1.
         -5    1    4    4    0  502 -0.11337455609E+03  0.11963524564E+03  0.52681041774E+03  0.55201239860E+03  0.47000000000E+01 0.  1.
<mgrwt>
<rscale>  0 0.19679822E+03</rscale>
<asrwt>0</asrwt>
<pdfrwt beam="1">  1        1 0.81659173E-02 0.19702512E+03</pdfrwt>
<pdfrwt beam="2">  1       -1 0.13157406E+00 0.19702512E+03</pdfrwt>
<totfact> 0.44690087E+02</totfact>
</mgrwt>
</event>
<event>
 8    1  0.7366917E-004  0.1045015E+03  0.7546771E-02  0.1272622E+00
         -2   -1    0    0    0  501 -0.00000000000E+00  0.00000000000E+00  0.12262389775E+02  0.12262389775E+02  0.00000000000E+00 0.  1.
          2   -1    0    0  501    0  0.00000000000E+00 -0.00000000000E+00 -0.92007820721E+03  0.92007820721E+03  0.00000000000E+00 0. -1.
         23    2    1    2    0    0 -0.35308813003E+02  0.33970280918E+02 -0.56162143084E+03  0.57071771829E+03  0.88878513317E+02 0.  0.
         23    2    1    2    0    0  0.35308813003E+02 -0.33970280918E+02 -0.34619438660E+03  0.36162287870E+03  0.92303092178E+02 0.  0.
          5    1    3    3  502    0 -0.64429223909E+02  0.25285903651E+02 -0.42941055084E+03  0.43497817531E+03  0.47000000000E+01 0. -1.
         -5    1    3    3    0  502  0.29120410906E+02  0.86843772673E+01 -0.13221088000E+03  0.13573954298E+03  0.47000000000E+01 0.  1.
          5    1    4    4  503    0  0.43708677244E+02 -0.13866270019E+02 -0.33202816003E+03  0.33521263545E+03  0.47000000000E+01 0. -1.
         -5    1    4    4    0  503 -0.83998642410E+01 -0.20104010899E+02 -0.14166226569E+02  0.26410243253E+02  0.47000000000E+01 0.  1.
<mgrwt>
<rscale>  0 0.10374014E+03</rscale>
<asrwt>0</asrwt>
<pdfrwt beam="1">  1        2 0.14155047E+00 0.10450145E+03</pdfrwt>
<pdfrwt beam="2">  1       -2 0.18865219E-02 0.10450145E+03</pdfrwt>
<totfact> 0.23076884E+04</totfact>
</mgrwt>
</event>
<event>
 8    1  0.7366917E-004  0.1118570E+03  0.7546771E-02  0.1261379E+00
          1   -1    0    0  501    0  0.00000000000E+00  0.00000000000E+00  0.26725950158E+03  0.26725950158E+03  0.00000000000E+00 0. -1.
         -1   -1    0    0    0  501 -0.00000000000E+00 -0.00000000000E+00 -0.57502032961E+02  0.57502032961E+02  0.00000000000E+00 0.  1.
         23    2    1    2    0    0 -0.50121386209E+02  0.24033770618E+02  0.18264123654E+03  0.20966471261E+03  0.86670034874E+02 0.  0.
         23    2    1    2    0    0  0.50121386209E+02 -0.24033770618E+02  0.27116232081E+02  0.11509682193E+03  0.97068083787E+02 0.  0.
          5    1    4    4  502    0 -0.63987488298E+01  0.22975527334E+02  0.33237576004E+02  0.41178213918E+02  0.47000000000E+01 0. -1.
         -5    1    4    4    0  502  0.56520135039E+02 -0.47009297952E+02 -0.61213439231E+01  0.73918608010E+02  0.47000000000E+01 0.  1.
          5    1    3    3  503    0  0.11888334685E+02  0.29811906642E+02  0.10570219772E+03  0.11056729572E+03  0.47000000000E+01 0. -1.
         -5    1    3    3    0  503 -0.62009720894E+02 -0.57781360238E+01  0.76939038821E+02  0.99097416898E+02  0.47000000000E+01 0.  1.
<mgrwt>
<rscale>  0 0.10956407E+03</rscale>
<asrwt>0</asrwt>
<pdfrwt beam="1">  1        1 0.41116846E-01 0.11185700E+03</pdfrwt>
<pdfrwt beam="2">  1       -1 0.88464667E-02 0.11185700E+03</pdfrwt>
<totfact> 0.70200768E+03</totfact>
</mgrwt>
</event>
<event>
 8    1  0.7366917E-004  0.9712203E+02  0.7546771E-02  0.1287064E+00
         -3   -1    0    0    0  501 -0.00000000000E+00  0.00000000000E+00  0.13987261404E+03  0.13987261404E+03  0.00000000000E+00 0.  1.
          3   -1    0    0  501    0  0.00000000000E+00 -0.00000000000E+00 -0.68540479980E+02  0.68540479980E+02  0.00000000000E+00 0. -1.
         23    2    1    2    0    0 -0.71218683856E+01 -0.28926769201E+02  0.18722103552E+02  0.98910087386E+02  0.92440300950E+02 0.  0.
         23    2    1    2    0    0  0.71218683856E+01  0.28926769201E+02  0.52610030505E+02  0.10950300663E+03  0.91299584695E+02 0.  0.
          5    1    4    4  502    0  0.43487554671E+02  0.35375407701E+02  0.19091364980E+02  0.59406709201E+02  0.47000000000E+01 0. -1.
         -5    1    3    3    0  503 -0.31342787897E+02 -0.38971214448E+02  0.40481878690E+02  0.64513552149E+02  0.47000000000E+01 0.  1.
          5    1    3    3  503    0  0.24220919511E+02  0.10044445247E+02 -0.21759775138E+02  0.34396535237E+02  0.47000000000E+01 0. -1.
         -5    1    4    4    0  502 -0.36365686286E+02 -0.64486384995E+01  0.33518665526E+02  0.50096297429E+02  0.47000000000E+01 0.  1.
<mgrwt>
<rscale>  0 0.96849611E+02</rscale>
<asrwt>0</asrwt>
<pdfrwt beam="1">  1        3 0.10544689E-01 0.97122027E+02</pdfrwt>
<pdfrwt beam="2">  1       -3 0.21518864E-01 0.97122027E+02</pdfrwt>
<totfact> 0.28472103E+03</totfact>
</mgrwt>
</event>
<event>
 8    1  0.7366917E-004  0.1607887E+03  0.7546771E-02  0.1188033E+00
         -1   -1    0    0    0  501 -0.00000000000E+00  0.00000000000E+00  0.74591391551E+02  0.74591391551E+02  0.00000000000E+00 0.  1.
          1   -1    0    0  501    0  0.00000000000E+00 -0.00000000000E+00 -0.50043838596E+03  0.50043838596E+03  0.00000000000E+00 0. -1.
         23    2    1    2    0    0  0.71552806755E+02  0.10978500062E+03 -0.37358751377E+03  0.40671937127E+03  0.93169018488E+02 0.  0.
         23    2    1    2    0    0 -0.71552806755E+02 -0.10978500062E+03 -0.52259480639E+02  0.16831040624E+03  0.91786649450E+02 0.  0.
          5    1    3    3  502    0  0.41015591364E+02  0.11955695473E+03 -0.26952403322E+03  0.29772712110E+03  0.47000000000E+01 0. -1.
         -5    1    4    4    0  503 -0.47374305331E+02 -0.12192922825E+03 -0.52007117397E+02  0.14084705097E+03  0.47000000000E+01 0.  1.
          5    1    4    4  503    0 -0.24178501423E+02  0.12144227627E+02 -0.25236324210E+00  0.27463355275E+02  0.47000000000E+01 0. -1.
         -5    1    3    3    0  502  0.30537215390E+02 -0.97719541161E+01 -0.10406348055E+03  0.10899225016E+03  0.47000000000E+01 0.  1.
<mgrwt>
<rscale>  0 0.16058910E+03</rscale>
<asrwt>0</asrwt>
<pdfrwt beam="1">  1        1 0.76990523E-01 0.16078873E+03</pdfrwt>
<pdfrwt beam="2">  1       -1 0.11475598E-01 0.16078873E+03</pdfrwt>
<totfact> 0.21844493E+03</totfact>
</mgrwt>
</event>
<event>
 8    1  0.7366917E-004  0.9703944E+02  0.7546771E-02  0.1287661E+00
          2   -1    0    0  501    0  0.00000000000E+00  0.00000000000E+00  0.73234030762E+02  0.73234030762E+02  0.00000000000E+00 0. -1.
         -2   -1    0    0    0  501 -0.00000000000E+00 -0.00000000000E+00 -0.12622954268E+03  0.12622954268E+03  0.00000000000E+00 0.  1.
         23    2    1    2    0    0 -0.16903945515E+02  0.29887391811E+02 -0.24508820828E+02  0.10008664021E+03  0.90761520956E+02 0.  0.
         23    2    1    2    0    0  0.16903945515E+02 -0.29887391811E+02 -0.28486691087E+02  0.99376933232E+02  0.88799120076E+02 0.  0.
          5    1    4    4  502    0 -0.33211830289E+02  0.43291896031E+01 -0.52408344056E+01  0.34224609552E+02  0.47000000000E+01 0. -1.
         -5    1    4    4    0  502  0.50115775803E+02 -0.34216581414E+02 -0.23245856681E+02  0.65152323680E+02  0.47000000000E+01 0.  1.
          5    1    3    3  503    0 -0.43291514477E+02  0.40797282874E+02 -0.35149363771E+02  0.69254178857E+02  0.47000000000E+01 0. -1.
         -5    1    3    3    0  503  0.26387568962E+02 -0.10909891063E+02  0.10640542944E+02  0.30832461350E+02  0.47000000000E+01 0.  1.
<mgrwt>
<rscale>  0 0.96577932E+02</rscale>
<asrwt>0</asrwt>
<pdfrwt beam="1">  1        2 0.11266774E-01 0.97039442E+02</pdfrwt>
<pdfrwt beam="2">  1       -2 0.19419929E-01 0.97039442E+02</pdfrwt>
<totfact> 0.11082659E+04</totfact>
</mgrwt>
</event>
<event>
 8    1  0.7366917E-004  0.9217320E+02  0.7546771E-02  0.1299957E+00
         -1   -1    0    0    0  501 -0.00000000000E+00  0.00000000000E+00  0.87695002972E+02  0.87695002972E+02  0.00000000000E+00 0.  1.
          1   -1    0    0  501    0  0.00000000000E+00 -0.00000000000E+00 -0.11558514943E+03  0.11558514943E+03  0.00000000000E+00 0. -1.
         23    2    1    2    0    0 -0.10355597587E+02  0.27900565028E+01 -0.59183394128E+02  0.10953799671E+03  0.91547123194E+02 0.  0.
         23    2    1    2    0    0  0.10355597587E+02 -0.27900565028E+01  0.31293247670E+02  0.93742155698E+02  0.87711467828E+02 0.  0.
          5    1    4    4  502    0 -0.20824285423E+02 -0.11868947262E+02 -0.20862800421E+02  0.32122721147E+02  0.47000000000E+01 0. -1.
         -5    1    4    4    0  502  0.31179883010E+02  0.90788907596E+01  0.52156048090E+02  0.61619434550E+02  0.47000000000E+01 0.  1.
          5    1    3    3  503    0 -0.48812080429E+02 -0.10608746165E+02 -0.24473251159E+02  0.55822887002E+02  0.47000000000E+01 0. -1.
         -5    1    3    3    0  503  0.38456482842E+02  0.13398802668E+02 -0.34710142969E+02  0.53715109703E+02  0.47000000000E+01 0.  1.
<mgrwt>
<rscale>  0 0.91205961E+02</rscale>
<asrwt>0</asrwt>
<pdfrwt beam="1">  1        1 0.17782331E-01 0.92173199E+02</pdfrwt>
<pdfrwt beam="2">  1       -1 0.13491539E-01 0.92173199E+02</pdfrwt>
<totfact> 0.10284307E+04</totfact>
</mgrwt>
</event>
<event>
 8    1  0.7366917E-004  0.9047650E+02  0.7546771E-02  0.1301950E+00
         -1   -1    0    0    0  501 -0.00000000000E+00  0.00000000000E+00  0.18604267777E+02  0.18604267777E+02  0.00000000000E+00 0.  1.
          1   -1    0    0  501    0  0.00000000000E+00 -0.00000000000E+00 -0.44058520780E+03  0.44058520780E+03  0.00000000000E+00 0. -1.
         23    2    1    2    0    0  0.75090539592E+01 -0.68439867127E+01 -0.19294321577E+03  0.21292889013E+03  0.89489673665E+02 0.  0.
         23    2    1    2    0    0 -0.75090539592E+01  0.68439867127E+01 -0.22903772425E+03  0.24626058545E+03  0.89904231106E+02 0.  0.
          5    1    4    4  502    0 -0.82882904251E+01  0.37269099309E+02 -0.20088758234E+03  0.20453750820E+03  0.47000000000E+01 0. -1.
         -5    1    3    3    0  503 -0.23512106462E+02 -0.37712157361E+01 -0.83577370298E+01  0.25670663931E+02  0.47000000000E+01 0.  1.
          5    1    3    3  503    0  0.31021160421E+02 -0.30727709766E+01 -0.18458547874E+03  0.18725822620E+03  0.47000000000E+01 0. -1.
         -5    1    4    4    0  502  0.77923646593E+00 -0.30425112596E+02 -0.28150141918E+02  0.41723077259E+02  0.47000000000E+01 0.  1.
<mgrwt>
<rscale>  0 0.90373342E+02</rscale>
<asrwt>0</asrwt>
<pdfrwt beam="1">  1        1 0.67782344E-01 0.90476499E+02</pdfrwt>
<pdfrwt beam="2">  1       -1 0.28621948E-02 0.90476499E+02</pdfrwt>
<totfact> 0.19509070E+04</totfact>
</mgrwt>
</event>
<event>
 8    1  0.7366917E-004  0.9610587E+02  0.7546771E-02  0.1290106E+00
         -3   -1    0    0    0  501 -0.00000000000E+00  0.00000000000E+00  0.13180224494E+03  0.13180224494E+03  0.00000000000E+00 0.  1.
          3   -1    0    0  501    0  0.00000000000E+00 -0.00000000000E+00 -0.68770132035E+02  0.68770132035E+02  0.00000000000E+00 0. -1.
         23    2    1    2    0    0  0.65839997522E+01  0.13050393898E+02  0.23390195937E+02  0.98911269027E+02  0.94987767849E+02 0.  0.
         23    2    1    2    0    0 -0.65839997522E+01 -0.13050393898E+02  0.39641916969E+02  0.10166110795E+03  0.92465331098E+02 0.  0.
          5    1    4    4  502    0 -0.47981632610E+02  0.30957158800E+01  0.14746895780E+02  0.50511201331E+02  0.47000000000E+01 0. -1.
         -5    1    4    4    0  502  0.41397632858E+02 -0.16146109778E+02  0.24895021189E+02  0.51149906619E+02  0.47000000000E+01 0.  1.
          5    1    3    3  503    0  0.68097834349E+01  0.50407748352E+02 -0.56041240828E+01  0.51388816401E+02  0.47000000000E+01 0. -1.
         -5    1    3    3    0  503 -0.22578368271E+00 -0.37357354455E+02  0.28994320020E+02  0.47522452626E+02  0.47000000000E+01 0.  1.
<mgrwt>
<rscale>  0 0.95476639E+02</rscale>
<asrwt>0</asrwt>
<pdfrwt beam="1">  1        3 0.10580020E-01 0.96105868E+02</pdfrwt>
<pdfrwt beam="2">  1       -3 0.20277268E-01 0.96105868E+02</pdfrwt>
<totfact> 0.31361672E+03</totfact>
</mgrwt>
</event>
<event>
 8    1  0.7366917E-004  0.9763107E+02  0.7546771E-02  0.1285414E+00
          3   -1    0    0  501    0  0.00000000000E+00  0.00000000000E+00  0.15379723168E+02  0.15379723168E+02  0.00000000000E+00 0. -1.
         -3   -1    0    0    0  501 -0.00000000000E+00 -0.00000000000E+00 -0.68094001844E+03  0.68094001844E+03  0.00000000000E+00 0.  1.
         23    2    1    2    0    0 -0.20120325451E+02  0.30394196185E+02 -0.22802883812E+03  0.24805035256E+03  0.90571473064E+02 0.  0.
         23    2    1    2    0    0  0.20120325451E+02 -0.30394196185E+02 -0.43753145715E+03  0.44826938905E+03  0.90460126587E+02 0.  0.
          5    1    3    3  502    0 -0.30570607086E+02  0.57212315693E+02 -0.18474263152E+03  0.19585642953E+03  0.47000000000E+01 0. -1.
         -5    1    3    3    0  502  0.10450281635E+02 -0.26818119507E+02 -0.43286206596E+02  0.52193923033E+02  0.47000000000E+01 0.  1.
          5    1    4    4  503    0 -0.32451595777E+02 -0.21013444333E+02 -0.25740987160E+03  0.26033939945E+03  0.47000000000E+01 0. -1.
         -5    1    4    4    0  503  0.52571921229E+02 -0.93807518523E+01 -0.18012158556E+03  0.18792998960E+03  0.47000000000E+01 0.  1.
<mgrwt>
<rscale>  0 0.97605241E+02</rscale>
<asrwt>0</asrwt>
<pdfrwt beam="1">  1        3 0.23661116E-02 0.97631073E+02</pdfrwt>
<pdfrwt beam="2">  1       -3 0.10475999E+00 0.97631073E+02</pdfrwt>
<totfact> 0.13009613E+03</totfact>
</mgrwt>
</event>
<event>
 8    1  0.7366917E-004  0.9382014E+02  0.7546771E-02  0.1294455E+00
          2   -1    0    0  501    0  0.00000000000E+00  0.00000000000E+00  0.51056404622E+03  0.51056404622E+03  0.00000000000E+00 0. -1.
         -2   -1    0    0    0  501 -0.00000000000E+00 -0.00000000000E+00 -0.17115662115E+02  0.17115662115E+02  0.00000000000E+00 0.  1.
         23    2    1    2    0    0  0.88124286679E+01  0.17667394949E+02  0.26447638252E+03  0.28062426067E+03  0.91719262004E+02 0.  0.
         23    2    1    2    0    0 -0.88124286679E+01 -0.17667394949E+02  0.22897200158E+03  0.24705544766E+03  0.90655507102E+02 0.  0.
          5    1    3    3  502    0  0.24677232561E+02 -0.23310603282E+02  0.19703788388E+03  0.19999591925E+03  0.47000000000E+01 0. -1.
         -5    1    3    3    0  502 -0.15864803893E+02  0.40977998231E+02  0.67438498643E+02  0.80628341424E+02  0.47000000000E+01 0.  1.
          5    1    4    4  503    0 -0.48429251863E+02 -0.43033542240E+00  0.10614226476E+03  0.11676406978E+03  0.47000000000E+01 0. -1.
         -5    1    4    4    0  503  0.39616823195E+02 -0.17237059527E+02  0.12282973682E+03  0.13029137788E+03  0.47000000000E+01 0.  1.
<mgrwt>
<rscale>  0 0.93559137E+02</rscale>
<asrwt>0</asrwt>
<pdfrwt beam="1">  1        2 0.78548303E-01 0.93820141E+02</pdfrwt>
<pdfrwt beam="2">  1       -2 0.26331792E-02 0.93820141E+02</pdfrwt>
<totfact> 0.28167350E+04</totfact>
</mgrwt>
</event>
<event>
 8    1  0.7366917E-004  0.1092434E+03  0.7546771E-02  0.1263537E+00
         -2   -1    0    0    0  501 -0.00000000000E+00  0.00000000000E+00  0.23631230408E+02  0.23631230408E+02  0.00000000000E+00 0.  1.
          2   -1    0    0  501    0  0.00000000000E+00 -0.00000000000E+00 -0.49262713598E+03  0.49262713598E+03  0.00000000000E+00 0. -1.
         23    2    1    2    0    0  0.10639688792E+02  0.54153710152E+02 -0.24995201584E+03  0.27148429108E+03  0.90453760448E+02 0.  0.
         23    2    1    2    0    0 -0.10639688792E+02 -0.54153710152E+02 -0.21904388973E+03  0.24477407531E+03  0.94277754606E+02 0.  0.
          5    1    3    3  502    0  0.40449209809E+02 -0.21646930416E+01 -0.11863546892E+03  0.12544835175E+03  0.47000000000E+01 0. -1.
         -5    1    4    4    0  503 -0.33425459697E+02  0.33032162305E+01 -0.28176327480E+02  0.44092720756E+02  0.47000000000E+01 0.  1.
          5    1    4    4  503    0  0.22785770905E+02 -0.57456926382E+02 -0.19086756225E+03  0.20068135455E+03  0.47000000000E+01 0. -1.
         -5    1    3    3    0  502 -0.29809521017E+02  0.56318403193E+02 -0.13131654692E+03  0.14603593933E+03  0.47000000000E+01 0.  1.
<mgrwt>
<rscale>  0 0.10841337E+03</rscale>
<asrwt>0</asrwt>
<pdfrwt beam="1">  1        2 0.75788794E-01 0.10924341E+03</pdfrwt>
<pdfrwt beam="2">  1       -2 0.36355737E-02 0.10924341E+03</pdfrwt>
<totfact> 0.18562538E+04</totfact>
</mgrwt>
</event>
<event>
 8    1  0.7366917E-004  0.1067848E+03  0.7546771E-02  0.1266898E+00
         -1   -1    0    0    0  501 -0.00000000000E+00  0.00000000000E+00  0.17206872126E+02  0.17206872126E+02  0.00000000000E+00 0.  1.
          1   -1    0    0  501    0  0.00000000000E+00 -0.00000000000E+00 -0.65978395567E+03  0.65978395567E+03  0.00000000000E+00 0. -1.
         23    2    1    2    0    0 -0.52325511958E+02  0.24378080994E+02 -0.31410047671E+03  0.33175609752E+03  0.89837345993E+02 0.  0.
         23    2    1    2    0    0  0.52325511958E+02 -0.24378080994E+02 -0.32847660684E+03  0.34523473028E+03  0.89206993668E+02 0.  0.
          5    1    4    4  502    0 -0.23422997730E+02 -0.16388743982E+02 -0.70890053887E+02  0.76581443523E+02  0.47000000000E+01 0. -1.
         -5    1    3    3    0  503 -0.35137004010E+02 -0.43870709558E+01 -0.33013820774E+02  0.48640084339E+02  0.47000000000E+01 0.  1.
          5    1    3    3  503    0 -0.17188507948E+02  0.28765151950E+02 -0.28108665594E+03  0.28311601318E+03  0.47000000000E+01 0. -1.
         -5    1    4    4    0  502  0.75748509688E+02 -0.79893370120E+01 -0.25758655295E+03  0.26865328676E+03  0.47000000000E+01 0.  1.
<mgrwt>
<rscale>  0 0.10665214E+03</rscale>
<asrwt>0</asrwt>
<pdfrwt beam="1">  1        1 0.10150522E+00 0.10678482E+03</pdfrwt>
<pdfrwt beam="2">  1       -1 0.26472112E-02 0.10678482E+03</pdfrwt>
<totfact> 0.13040023E+04</totfact>
</mgrwt>
</event>
<event>
 8    1  0.7366917E-004  0.9924728E+02  0.7546771E-02  0.1282885E+00
          3   -1    0    0  501    0  0.00000000000E+00  0.00000000000E+00  0.18707805862E+03  0.18707805862E+03  0.00000000000E+00 0. -1.
         -3   -1    0    0    0  501 -0.00000000000E+00 -0.00000000000E+00 -0.66857597823E+02  0.66857597823E+02  0.00000000000E+00 0.  1.
         23    2    1    2    0    0 -0.37088270871E+02 -0.85329541601E+01 -0.84277161330E+00  0.97390680243E+02  0.89643087806E+02 0.  0.
         23    2    1    2    0    0  0.37088270871E+02  0.85329541601E+01  0.12106323241E+03  0.15654497620E+03  0.91660635986E+02 0.  0.
          5    1    4    4  502    0  0.46389802120E+02 -0.21539167922E+02  0.11237079626E+03  0.12355256107E+03  0.47000000000E+01 0. -1.
         -5    1    4    4    0  502 -0.93015312490E+01  0.30072122082E+02  0.86924361582E+01  0.32992415136E+02  0.47000000000E+01 0.  1.
          5    1    3    3  503    0 -0.14053673691E+02 -0.44000137053E+02  0.19340030100E+02  0.50295572063E+02  0.47000000000E+01 0. -1.
         -5    1    3    3    0  503 -0.23034597180E+02  0.35467182893E+02 -0.20182801713E+02  0.47095108181E+02  0.47000000000E+01 0.  1.
<mgrwt>
<rscale>  0 0.98778916E+02</rscale>
<asrwt>0</asrwt>
<pdfrwt beam="1">  1        3 0.28781240E-01 0.99247284E+02</pdfrwt>
<pdfrwt beam="2">  1       -3 0.10285784E-01 0.99247284E+02</pdfrwt>
<totfact> 0.17688796E+03</totfact>
</mgrwt>
</event>
<event>
 8    1  0.7366917E-004  0.1003318E+03  0.7546771E-02  0.1281116E+00
          2   -1    0    0  501    0  0.00000000000E+00  0.00000000000E+00  0.63040929956E+02  0.63040929956E+02  0.00000000000E+00 0.  1.
         -2   -1    0    0    0  501 -0.00000000000E+00 -0.00000000000E+00 -0.35038012843E+03  0.35038012843E+03  0.00000000000E+00 0. -1.
         23    2    1    2    0    0  0.31947701527E+02 -0.16886150714E+02 -0.29703560348E+03  0.31262182424E+03  0.90534289313E+02 0.  0.
         23    2    1    2    0    0 -0.31947701527E+02  0.16886150714E+02  0.96964050032E+01  0.10079923414E+03  0.93598438101E+02 0.  0.
          5    1    3    3  502    0  0.53617065250E+02 -0.38758526076E+02 -0.20023168818E+03  0.21093087015E+03  0.47000000000E+01 0. -1.
         -5    1    4    4    0  503 -0.60601854437E+01  0.52202740643E+02 -0.79439159146E+01  0.53357734006E+02  0.47000000000E+01 0.  1.
          5    1    4    4  503    0 -0.25887516083E+02 -0.35316589928E+02  0.17640320918E+02  0.47441500137E+02  0.47000000000E+01 0. -1.
         -5    1    3    3    0  502 -0.21669363723E+02  0.21872375362E+02 -0.96803915297E+02  0.10169095410E+03  0.47000000000E+01 0.  1.
<mgrwt>
<rscale>  0 0.99610980E+02</rscale>
<asrwt>0</asrwt>
<pdfrwt beam="1">  1        2 0.96986045E-02 0.10033178E+03</pdfrwt>
<pdfrwt beam="2">  1       -2 0.53904636E-01 0.10033178E+03</pdfrwt>
<totfact> 0.20834557E+03</totfact>
</mgrwt>
</event>
<event>
 8    1  0.7366917E-004  0.1093528E+03  0.7546771E-02  0.1261876E+00
         -2   -1    0    0    0  501 -0.00000000000E+00  0.00000000000E+00  0.14455379565E+03  0.14455379565E+03  0.00000000000E+00 0.  1.
          2   -1    0    0  501    0  0.00000000000E+00 -0.00000000000E+00 -0.99802477679E+02  0.99802477679E+02  0.00000000000E+00 0. -1.
         23    2    1    2    0    0  0.57229716452E+02  0.80965135744E+01  0.73144549558E+02  0.13137743100E+03  0.92569488865E+02 0.  0.
         23    2    1    2    0    0 -0.57229716452E+02 -0.80965135744E+01 -0.28393231583E+02  0.11297884233E+03  0.92829140026E+02 0.  0.
          5    1    4    4  502    0 -0.67316344603E+02 -0.28487686650E+02 -0.43574344696E+02  0.85228235093E+02  0.47000000000E+01 0. -1.
         -5    1    3    3    0  503  0.67711786485E+01  0.42870361609E+02  0.48245929506E+02  0.65065171010E+02  0.47000000000E+01 0.  1.
          5    1    3    3  503    0  0.50458537804E+02 -0.34773848034E+02  0.24898620052E+02  0.66312259989E+02  0.47000000000E+01 0. -1.
         -5    1    4    4    0  502  0.10086628151E+02  0.20391173076E+02  0.15181113113E+02  0.27750607240E+02  0.47000000000E+01 0.  1.
<mgrwt>
<rscale>  0 0.10929771E+03</rscale>
<asrwt>0</asrwt>
<pdfrwt beam="1">  1        2 0.15354227E-01 0.10935284E+03</pdfrwt>
<pdfrwt beam="2">  1       -2 0.22239045E-01 0.10935284E+03</pdfrwt>
<totfact> 0.61825734E+03</totfact>
</mgrwt>
</event>
<event>
 8    1  0.7366917E-004  0.9596368E+02  0.7546771E-02  0.1289733E+00
          1   -1    0    0  501    0  0.00000000000E+00  0.00000000000E+00  0.21298140309E+03  0.21298140309E+03  0.00000000000E+00 0. -1.
         -1   -1    0    0    0  501 -0.00000000000E+00 -0.00000000000E+00 -0.59246390239E+02  0.59246390239E+02  0.00000000000E+00 0.  1.
         23    2    1    2    0    0 -0.26503933539E+02 -0.17731696537E+01  0.44934357115E+01  0.94795900145E+02  0.90887122829E+02 0.  0.
         23    2    1    2    0    0  0.26503933539E+02  0.17731696537E+01  0.14924157714E+03  0.17743189319E+03  0.92214021429E+02 0.  0.
          5    1    4    4  502    0  0.27428549290E+02 -0.20124617716E+02  0.15108655964E+03  0.15494051781E+03  0.47000000000E+01 0. -1.
         -5    1    3    3    0  503 -0.45941247003E+02  0.28416844233E+02 -0.11134747515E+02  0.55355106490E+02  0.47000000000E+01 0.  1.
          5    1    3    3  503    0  0.19437313464E+02 -0.30190013887E+02  0.15628183227E+02  0.39440793655E+02  0.47000000000E+01 0. -1.
         -5    1    4    4    0  502 -0.92461575094E+00  0.21897787369E+02 -0.18449824994E+01  0.22491375378E+02  0.47000000000E+01 0.  1.
<mgrwt>
<rscale>  0 0.95643499E+02</rscale>
<asrwt>0</asrwt>
<pdfrwt beam="1">  1        1 0.32766369E-01 0.95963683E+02</pdfrwt>
<pdfrwt beam="2">  1       -1 0.91148294E-02 0.95963683E+02</pdfrwt>
<totfact> 0.87603649E+03</totfact>
</mgrwt>
</event>
<event>
 8    1  0.7366917E-004  0.9730952E+02  0.7546771E-02  0.1287232E+00
         -1   -1    0    0    0  501 -0.00000000000E+00  0.00000000000E+00  0.13302152753E+03  0.13302152753E+03  0.00000000000E+00 0.  1.
          1   -1    0    0  501    0  0.00000000000E+00 -0.00000000000E+00 -0.74293764720E+02  0.74293764720E+02  0.00000000000E+00 0. -1.
         23    2    1    2    0    0 -0.27458649444E+02  0.10254927459E+02  0.31068593490E+01  0.95231270057E+02  0.90554962621E+02 0.  0.
         23    2    1    2    0    0  0.27458649444E+02 -0.10254927459E+02  0.55620903460E+02  0.11208402219E+03  0.92790097330E+02 0.  0.
          5    1    4    4  502    0 -0.19256632754E+02 -0.90895584159E+01 -0.15571523117E+02  0.26795527787E+02  0.47000000000E+01 0. -1.
         -5    1    4    4    0  502  0.46715282198E+02 -0.11653690427E+01  0.71192426577E+02  0.85288494404E+02  0.47000000000E+01 0.  1.
          5    1    3    3  503    0 -0.56897020854E+02 -0.11351599652E+02  0.45434150442E+01  0.58385464090E+02  0.47000000000E+01 0. -1.
         -5    1    3    3    0  503  0.29438371411E+02  0.21606527111E+02 -0.14365556952E+01  0.36845805967E+02  0.47000000000E+01 0.  1.
<mgrwt>
<rscale>  0 0.96772863E+02</rscale>
<asrwt>0</asrwt>
<pdfrwt beam="1">  1        1 0.11429810E-01 0.97309522E+02</pdfrwt>
<pdfrwt beam="2">  1       -1 0.20464850E-01 0.97309522E+02</pdfrwt>
<totfact> 0.94972587E+03</totfact>
</mgrwt>
</event>
<event>
 8    1  0.7366917E-004  0.1055849E+03  0.7546771E-02  0.1269372E+00
          3   -1    0    0  501    0  0.00000000000E+00  0.00000000000E+00  0.13196122255E+03  0.13196122255E+03  0.00000000000E+00 0. -1.
         -3   -1    0    0    0  501 -0.00000000000E+00 -0.00000000000E+00 -0.11772341096E+03  0.11772341096E+03  0.00000000000E+00 0.  1.
         23    2    1    2    0    0 -0.38664542306E+02 -0.22966473792E+02  0.74126319783E+02  0.12900726225E+03  0.95528826427E+02 0.  0.
         23    2    1    2    0    0  0.38664542306E+02  0.22966473792E+02 -0.59888508192E+02  0.12067737126E+03  0.94625518596E+02 0.  0.
          5    1    4    4  502    0  0.19934405757E+01  0.50530872689E+02 -0.54092983652E+02  0.74198947300E+02  0.47000000000E+01 0.  1.
         -5    1    3    3    0  503 -0.59883381344E+02  0.11123496373E+02  0.26647332268E+02  0.66647744521E+02  0.47000000000E+01 0.  1.
          5    1    3    3  503    0  0.21218839038E+02 -0.34089970165E+02  0.47478987515E+02  0.62359517729E+02  0.47000000000E+01 0. -1.
         -5    1    4    4    0  502  0.36671101731E+02 -0.27564398897E+02 -0.57955245395E+01  0.46478423956E+02  0.47000000000E+01 0. -1.
<mgrwt>
<rscale>  0 0.10538012E+03</rscale>
<asrwt>0</asrwt>
<pdfrwt beam="1">  1        3 0.20301726E-01 0.10558486E+03</pdfrwt>
<pdfrwt beam="2">  1       -3 0.18111294E-01 0.10558486E+03</pdfrwt>
<totfact> 0.12870834E+03</totfact>
</mgrwt>
</event>
<event>
 8    1  0.7366917E-004  0.9611074E+02  0.7546771E-02  0.1289325E+00
         -1   -1    0    0    0  501 -0.00000000000E+00  0.00000000000E+00  0.59427522412E+02  0.59427522412E+02  0.00000000000E+00 0.  1.
          1   -1    0    0  501    0  0.00000000000E+00 -0.00000000000E+00 -0.20021195058E+03  0.20021195058E+03  0.00000000000E+00 0. -1.
         23    2    1    2    0    0 -0.23384927499E+02 -0.22282843991E+02 -0.80824360164E+01  0.96449987239E+02  0.90520131993E+02 0.  0.
         23    2    1    2    0    0  0.23384927499E+02  0.22282843991E+02 -0.13270199216E+03  0.16318948576E+03  0.89317465083E+02 0.  0.
          5    1    3    3  502    0 -0.43165197202E+01 -0.38748889567E+02 -0.39638329613E+02  0.55797813216E+02  0.47000000000E+01 0. -1.
         -5    1    4    4    0  503 -0.15161776245E+02 -0.24814803067E+02 -0.68680120638E+02  0.74730869666E+02  0.47000000000E+01 0.  1.
          5    1    4    4  503    0  0.38546703744E+02  0.47097647058E+02 -0.64021871517E+02  0.88458616090E+02  0.47000000000E+01 0. -1.
         -5    1    3    3    0  502 -0.19068407778E+02  0.16466045576E+02  0.31555893597E+02  0.40652174023E+02  0.47000000000E+01 0.  1.
<mgrwt>
<rscale>  0 0.95826519E+02</rscale>
<asrwt>0</asrwt>
<pdfrwt beam="1">  1        1 0.30801839E-01 0.96110740E+02</pdfrwt>
<pdfrwt beam="2">  1       -1 0.91426956E-02 0.96110740E+02</pdfrwt>
<totfact> 0.94091825E+03</totfact>
</mgrwt>
</event>
<event>
 8    1  0.7366917E-004  0.9852851E+02  0.7546771E-02  0.1284803E+00
          3   -1    0    0  501    0  0.00000000000E+00  0.00000000000E+00  0.61151326038E+02  0.61151326038E+02  0.00000000000E+00 0. -1.
         -3   -1    0    0    0  501 -0.00000000000E+00 -0.00000000000E+00 -0.15808133941E+03  0.15808133941E+03  0.00000000000E+00 0.  1.
         23    2    1    2    0    0  0.12910482780E+02  0.57060310549E+01 -0.65155727922E+02  0.11812339454E+03  0.97512194626E+02 0.  0.
         23    2    1    2    0    0 -0.12910482780E+02 -0.57060310549E+01 -0.31774285448E+02  0.10110927091E+03  0.94943352012E+02 0.  0.
          5    1    4    4  502    0 -0.38742229105E+02  0.19445847741E+02  0.11001140797E+02  0.44969060578E+02  0.47000000000E+01 0. -1.
         -5    1    3    3    0  503 -0.22956872345E+02 -0.18353037662E+02 -0.68362325760E+02  0.74561045879E+02  0.47000000000E+01 0.  1.
          5    1    3    3  503    0  0.35867355124E+02  0.24059068717E+02  0.32065978384E+01  0.43562348661E+02  0.47000000000E+01 0. -1.
         -5    1    4    4    0  502  0.25831746326E+02 -0.25151878796E+02 -0.42775426245E+02  0.56140210328E+02  0.47000000000E+01 0.  1.
<mgrwt>
<rscale>  0 0.97886860E+02</rscale>
<asrwt>0</asrwt>
<pdfrwt beam="1">  1        3 0.94078962E-02 0.98528511E+02</pdfrwt>
<pdfrwt beam="2">  1       -3 0.24320206E-01 0.98528511E+02</pdfrwt>
<totfact> 0.27709145E+03</totfact>
</mgrwt>
</event>
<event>
 8    1  0.7366917E-004  0.1178890E+03  0.7546771E-02  0.1248159E+00
          1   -1    0    0  501    0  0.00000000000E+00  0.00000000000E+00  0.74121469192E+02  0.74121469192E+02  0.00000000000E+00 0. -1.
         -1   -1    0    0    0  501 -0.00000000000E+00 -0.00000000000E+00 -0.35132944625E+03  0.35132944625E+03  0.00000000000E+00 0.  1.
         23    2    1    2    0    0  0.26957024557E+02  0.62599061300E+02  0.10244598459E+02  0.11476329815E+03  0.91762406003E+02 0.  0.
         23    2    1    2    0    0 -0.26957024557E+02 -0.62599061300E+02 -0.28745257552E+03  0.31068761729E+03  0.96189857674E+02 0.  0.
          5    1    3    3  502    0 -0.84596771820E+01  0.21784833609E+02  0.44589901997E+02  0.50561788670E+02  0.47000000000E+01 0. -1.
         -5    1    4    4    0  503 -0.54283719248E+02 -0.53766917357E+02 -0.13247061589E+03  0.15299724721E+03  0.47000000000E+01 0.  1.
          5    1    4    4  503    0  0.27326694691E+02 -0.88321439428E+01 -0.15498195963E+03  0.15769037009E+03  0.47000000000E+01 0. -1.
         -5    1    3    3    0  502  0.35416701739E+02  0.40814227692E+02 -0.34345303538E+02  0.64201509478E+02  0.47000000000E+01 0.  1.
<mgrwt>
<rscale>  0 0.11698262E+03</rscale>
<asrwt>0</asrwt>
<pdfrwt beam="1">  1        1 0.11403303E-01 0.11788898E+03</pdfrwt>
<pdfrwt beam="2">  1       -1 0.54050684E-01 0.11788898E+03</pdfrwt>
<totfact> 0.18469774E+03</totfact>
</mgrwt>
</event>
<event>
 8    1  0.7366917E-004  0.1038373E+03  0.7546771E-02  0.1273182E+00
          2   -1    0    0  501    0  0.00000000000E+00  0.00000000000E+00  0.72933797291E+03  0.72933797291E+03  0.00000000000E+00 0. -1.
         -2   -1    0    0    0  501 -0.00000000000E+00 -0.00000000000E+00 -0.14592430169E+02  0.14592430169E+02  0.00000000000E+00 0.  1.
         23    2    1    2    0    0 -0.26355001521E+02  0.40732063439E+02  0.34573465741E+03  0.36099118057E+03  0.91806819021E+02 0.  0.
         23    2    1    2    0    0  0.26355001521E+02 -0.40732063439E+02  0.36901088533E+03  0.38293922251E+03  0.90109530820E+02 0.  0.
          5    1    3    3  502    0  0.11571740304E+02 -0.22768237737E+02  0.52998656637E+02  0.59019025988E+02  0.47000000000E+01 0. -1.
         -5    1    4    4    0  503  0.40948611317E+02  0.81341795772E+01  0.24805185137E+03  0.25158450789E+03  0.47000000000E+01 0.  1.
          5    1    4    4  503    0 -0.14593609797E+02 -0.48866243016E+02  0.12095903397E+03  0.13135471462E+03  0.47000000000E+01 0. -1.
         -5    1    3    3    0  502 -0.37926741825E+02  0.63500301175E+02  0.29273600077E+03  0.30197215458E+03  0.47000000000E+01 0.  1.
<mgrwt>
<rscale>  0 0.10346084E+03</rscale>
<asrwt>0</asrwt>
<pdfrwt beam="1">  1        2 0.11220581E+00 0.10383727E+03</pdfrwt>
<pdfrwt beam="2">  1       -2 0.22449898E-02 0.10383727E+03</pdfrwt>
<totfact> 0.23949267E+04</totfact>
</mgrwt>
</event>
<event>
 8    1  0.7366917E-004  0.1463520E+03  0.7546771E-02  0.1205720E+00
          2   -1    0    0  501    0  0.00000000000E+00  0.00000000000E+00  0.53142259409E+03  0.53142259409E+03  0.00000000000E+00 0. -1.
         -2   -1    0    0    0  501 -0.00000000000E+00 -0.00000000000E+00 -0.47188314890E+02  0.47188314890E+02  0.00000000000E+00 0.  1.
         23    2    1    2    0    0  0.63224706812E+02  0.91900689490E+02  0.35878873967E+03  0.38748971306E+03  0.94740792349E+02 0.  0.
         23    2    1    2    0    0 -0.63224706812E+02 -0.91900689490E+02  0.12544553954E+03  0.19112119593E+03  0.91365353728E+02 0.  0.
          5    1    3    3  502    0  0.61024069681E+02  0.50510171377E+02  0.32275300578E+03  0.33236547238E+03  0.47000000000E+01 0. -1.
         -5    1    4    4    0  503 -0.62349234751E+02 -0.24884333229E+02  0.97236970071E+02  0.11825301460E+03  0.47000000000E+01 0.  1.
          5    1    4    4  503    0 -0.87547206141E+00 -0.67016356260E+02  0.28208569467E+02  0.72868181322E+02  0.47000000000E+01 0. -1.
         -5    1    3    3    0  502  0.22006371305E+01  0.41390518113E+02  0.36035733891E+02  0.55124240679E+02  0.47000000000E+01 0.  1.
<mgrwt>
<rscale>  0 0.14580848E+03</rscale>
<asrwt>0</asrwt>
<pdfrwt beam="1">  1        2 0.81757318E-01 0.14635203E+03</pdfrwt>
<pdfrwt beam="2">  1       -2 0.72597411E-02 0.14635203E+03</pdfrwt>
<totfact> 0.61728418E+03</totfact>
</mgrwt>
</event>
<event>
 8    1  0.7366917E-004  0.1104103E+03  0.7546771E-02  0.1260988E+00
         -2   -1    0    0    0  501 -0.00000000000E+00  0.00000000000E+00  0.97945786793E+02  0.97945786793E+02  0.00000000000E+00 0.  1.
          2   -1    0    0  501    0  0.00000000000E+00 -0.00000000000E+00 -0.13580603434E+03  0.13580603434E+03  0.00000000000E+00 0. -1.
         23    2    1    2    0    0 -0.23780808554E+02 -0.51933542499E+02 -0.56878669570E+02  0.12419993367E+03  0.94487146110E+02 0.  0.
         23    2    1    2    0    0  0.23780808554E+02  0.51933542499E+02  0.19018422022E+02  0.10955188746E+03  0.91527569499E+02 0.  0.
          5    1    4    4  502    0 -0.38034003326E+01 -0.23321037197E+02 -0.71093876372E+01  0.25119116676E+02  0.47000000000E+01 0. -1.
         -5    1    4    4    0  502  0.27584208887E+02  0.75254579695E+02  0.26127809659E+02  0.84432770786E+02  0.47000000000E+01 0.  1.
          5    1    3    3  503    0  0.25981696608E+02 -0.31425970859E+02  0.57962564945E+01  0.41452705490E+02  0.47000000000E+01 0. -1.
         -5    1    3    3    0  503 -0.49762505162E+02 -0.20507571640E+02 -0.62674926065E+02  0.82747228182E+02  0.47000000000E+01 0.  1.
<mgrwt>
<rscale>  0 0.10977438E+03</rscale>
<asrwt>0</asrwt>
<pdfrwt beam="1">  1        2 0.20893236E-01 0.11041033E+03</pdfrwt>
<pdfrwt beam="2">  1       -2 0.15068583E-01 0.11041033E+03</pdfrwt>
<totfact> 0.83307931E+03</totfact>
</mgrwt>
</event>
<event>
 8    1  0.7366917E-004  0.1170191E+03  0.7546771E-02  0.1250701E+00
         -1   -1    0    0    0  501 -0.00000000000E+00  0.00000000000E+00  0.14388239193E+03  0.14388239193E+03  0.00000000000E+00 0.  1.
          1   -1    0    0  501    0  0.00000000000E+00 -0.00000000000E+00 -0.14365828003E+03  0.14365828003E+03  0.00000000000E+00 0. -1.
         23    2    1    2    0    0  0.59124050413E+02  0.18746540570E+02  0.87629781280E+02  0.14619317765E+03  0.99228929770E+02 0.  0.
         23    2    1    2    0    0 -0.59124050413E+02 -0.18746540570E+02 -0.87405669379E+02  0.14134749430E+03  0.92153551129E+02 0.  0.
          5    1    4    4  502    0 -0.83549103395E+02 -0.20263310704E+02 -0.69756683133E+02  0.11081127777E+03  0.47000000000E+01 0. -1.
         -5    1    4    4    0  502  0.24425052982E+02  0.15167701339E+01 -0.17648986247E+02  0.30536216536E+02  0.47000000000E+01 0.  1.
          5    1    3    3  503    0  0.32328880131E+02  0.38204495294E+02 -0.22234829352E+01  0.50316735064E+02  0.47000000000E+01 0. -1.
         -5    1    3    3    0  503  0.26795170282E+02 -0.19457954724E+02  0.89853264215E+02  0.95876442584E+02  0.47000000000E+01 0.  1.
<mgrwt>
<rscale>  0 0.11550589E+03</rscale>
<asrwt>0</asrwt>
<pdfrwt beam="1">  1        1 0.22101274E-01 0.11701909E+03</pdfrwt>
<pdfrwt beam="2">  1       -1 0.22135753E-01 0.11701909E+03</pdfrwt>
<totfact> 0.36490604E+03</totfact>
</mgrwt>
</event>
<event>
 8    1  0.7366917E-004  0.1233593E+03  0.7546771E-02  0.1240011E+00
          2   -1    0    0  501    0  0.00000000000E+00  0.00000000000E+00  0.17523012380E+03  0.17523012380E+03  0.00000000000E+00 0. -1.
         -2   -1    0    0    0  501 -0.00000000000E+00 -0.00000000000E+00 -0.12160119855E+03  0.12160119855E+03  0.00000000000E+00 0.  1.
         23    2    1    2    0    0 -0.23815320907E+02 -0.67713864266E+02  0.11104301100E+03  0.16597607822E+03  0.10032532743E+03 0.  0.
         23    2    1    2    0    0  0.23815320907E+02  0.67713864266E+02 -0.57414085750E+02  0.13085524413E+03  0.93136355683E+02 0.  0.
          5    1    4    4  502    0  0.39005820464E+02  0.84276750711E+02 -0.54317782735E+02  0.10768721494E+03  0.47000000000E+01 0. -1.
         -5    1    3    3    0  503  0.24746647418E+02 -0.69900103874E+02  0.62099499343E+02  0.96834182491E+02  0.47000000000E+01 0.  1.
          5    1    3    3  503    0 -0.48561968324E+02  0.21862396072E+01  0.48943511658E+02  0.69141895726E+02  0.47000000000E+01 0. -1.
         -5    1    4    4    0  502 -0.15190499557E+02 -0.16562886444E+02 -0.30963030154E+01  0.23168029189E+02  0.47000000000E+01 0.  1.
<mgrwt>
<rscale>  0 0.12189018E+03</rscale>
<asrwt>0</asrwt>
<pdfrwt beam="1">  1        2 0.26958481E-01 0.12335926E+03</pdfrwt>
<pdfrwt beam="2">  1       -2 0.18707877E-01 0.12335926E+03</pdfrwt>
<totfact> 0.44351373E+03</totfact>
</mgrwt>
</event>
<event>
 8    1  0.7366917E-004  0.9718317E+02  0.7546771E-02  0.1287195E+00
          1   -1    0    0  501    0  0.00000000000E+00  0.00000000000E+00  0.32338251194E+03  0.32338251194E+03  0.00000000000E+00 0. -1.
         -1   -1    0    0    0  501 -0.00000000000E+00 -0.00000000000E+00 -0.29795938738E+02  0.29795938738E+02  0.00000000000E+00 0.  1.
         23    2    1    2    0    0  0.82773413125E+01 -0.20339530721E+02  0.11465808575E+03  0.15030317445E+03  0.94669724487E+02 0.  0.
         23    2    1    2    0    0 -0.82773413125E+01  0.20339530721E+02  0.17892848745E+03  0.20287527622E+03  0.93063221471E+02 0.  0.
          5    1    4    4  502    0  0.19292772848E+02 -0.30002625836E+02  0.49322109794E+02  0.61050218310E+02  0.47000000000E+01 0. -1.
         -5    1    3    3    0  503  0.33640318760E+02  0.13710853622E+02  0.11090958619E+02  0.38272155889E+02  0.47000000000E+01 0.  1.
          5    1    3    3  503    0 -0.25362977448E+02 -0.34050384343E+02  0.10356712713E+03  0.11203101856E+03  0.47000000000E+01 0. -1.
         -5    1    4    4    0  502 -0.27570114161E+02  0.50342156557E+02  0.12960637766E+03  0.14182505791E+03  0.47000000000E+01 0.  1.
<mgrwt>
<rscale>  0 0.96789716E+02</rscale>
<asrwt>0</asrwt>
<pdfrwt beam="1">  1        1 0.49751153E-01 0.97183165E+02</pdfrwt>
<pdfrwt beam="2">  1       -1 0.45839908E-02 0.97183165E+02</pdfrwt>
<totfact> 0.14562946E+04</totfact>
</mgrwt>
</event>
<event>
 8    1  0.7366917E-004  0.1010383E+03  0.7546771E-02  0.1278568E+00
         -2   -1    0    0    0  501 -0.00000000000E+00  0.00000000000E+00  0.27643537154E+03  0.27643537154E+03  0.00000000000E+00 0.  1.
          2   -1    0    0  501    0  0.00000000000E+00 -0.00000000000E+00 -0.37186788095E+02  0.37186788095E+02  0.00000000000E+00 0. -1.
         23    2    1    2    0    0 -0.41341865541E+02  0.98693141691E+01  0.13846046422E+03  0.17090919906E+03  0.90730926177E+02 0.  0.
         23    2    1    2    0    0  0.41341865541E+02 -0.98693141691E+01  0.10078811923E+03  0.14271296057E+03  0.91663465618E+02 0.  0.
          5    1    3    3  502    0  0.18821256370E+02 -0.21625293516E+02  0.62433629047E+02  0.68861753151E+02  0.47000000000E+01 0. -1.
         -5    1    4    4    0  503 -0.13817483320E+02 -0.28664047573E+02  0.69088182432E+02  0.76209037655E+02  0.47000000000E+01 0.  1.
          5    1    4    4  503    0  0.55159348861E+02  0.18794733404E+02  0.31699936797E+02  0.66503922918E+02  0.47000000000E+01 0. -1.
         -5    1    3    3    0  502 -0.60163121911E+02  0.31494607686E+02  0.76026835171E+02  0.10204744591E+03  0.47000000000E+01 0.  1.
<mgrwt>
<rscale>  0 0.10082635E+03</rscale>
<asrwt>0</asrwt>
<pdfrwt beam="1">  1        2 0.57210445E-02 0.10103833E+03</pdfrwt>
<pdfrwt beam="2">  1       -2 0.42528517E-01 0.10103833E+03</pdfrwt>
<totfact> 0.64061195E+03</totfact>
</mgrwt>
</event>
<event>
 8    1  0.7366917E-004  0.1184487E+03  0.7546771E-02  0.1246627E+00
          2   -1    0    0  501    0  0.00000000000E+00  0.00000000000E+00  0.34023117142E+03  0.34023117142E+03  0.00000000000E+00 0. -1.
         -2   -1    0    0    0  501 -0.00000000000E+00 -0.00000000000E+00 -0.59082200573E+02  0.59082200573E+02  0.00000000000E+00 0.  1.
         23    2    1    2    0    0  0.71658699153E+02  0.11659986166E+02  0.25173985180E+03  0.27726833738E+03  0.90740583480E+02 0.  0.
         23    2    1    2    0    0 -0.71658699153E+02 -0.11659986166E+02  0.29409119049E+02  0.12204503461E+03  0.93590436200E+02 0.  0.
          5    1    4    4  502    0 -0.27152588892E+02  0.40184468165E+02  0.20940950061E+02  0.53034592057E+02  0.47000000000E+01 0. -1.
         -5    1    3    3    0  503 -0.17497535877E+02  0.10245439939E+02  0.19770485882E+02  0.28707053372E+02  0.47000000000E+01 0.  1.
          5    1    3    3  503    0  0.89156235030E+02  0.14145462267E+01  0.23196936591E+03  0.24856128401E+03  0.47000000000E+01 0. -1.
         -5    1    4    4    0  502 -0.44506110261E+02 -0.51844454330E+02  0.84681689884E+01  0.69010442553E+02  0.47000000000E+01 0.  1.
<mgrwt>
<rscale>  0 0.11788503E+03</rscale>
<asrwt>0</asrwt>
<pdfrwt beam="1">  1        2 0.52343255E-01 0.11844870E+03</pdfrwt>
<pdfrwt beam="2">  1       -2 0.90895696E-02 0.11844870E+03</pdfrwt>
<totfact> 0.69614646E+03</totfact>
</mgrwt>
</event>
<event>
 8    1  0.7366917E-004  0.9350810E+02  0.7546771E-02  0.1295002E+00
          1   -1    0    0  501    0  0.00000000000E+00  0.00000000000E+00  0.16124098064E+03  0.16124098064E+03  0.00000000000E+00 0. -1.
         -1   -1    0    0    0  501 -0.00000000000E+00 -0.00000000000E+00 -0.54309720048E+02  0.54309720048E+02  0.00000000000E+00 0.  1.
         23    2    1    2    0    0  0.52368351929E+01  0.95340500507E+01  0.42781392026E+02  0.10215330257E+03  0.92123434422E+02 0.  0.
         23    2    1    2    0    0 -0.52368351929E+01 -0.95340500507E+01  0.64149868563E+02  0.11339739811E+03  0.92873256155E+02 0.  0.
          5    1    4    4  502    0  0.33936406740E+01  0.25592439958E+02  0.71522659016E+02  0.76184450728E+02  0.47000000000E+01 0. -1.
         -5    1    4    4    0  502 -0.86304758669E+01 -0.35126490009E+02 -0.73727904524E+01  0.37212947385E+02  0.47000000000E+01 0.  1.
          5    1    3    3  503    0  0.20125697465E+00 -0.41228796904E+02  0.17674113633E+02  0.45103419951E+02  0.47000000000E+01 0. -1.
         -5    1    3    3    0  503  0.50355782182E+01  0.50762846955E+02  0.25107278393E+02  0.57049882622E+02  0.47000000000E+01 0.  1.
<mgrwt>
<rscale>  0 0.93321366E+02</rscale>
<asrwt>0</asrwt>
<pdfrwt beam="1">  1        1 0.24806305E-01 0.93508097E+02</pdfrwt>
<pdfrwt beam="2">  1       -1 0.83553416E-02 0.93508097E+02</pdfrwt>
<totfact> 0.14035389E+04</totfact>
</mgrwt>
</event>
<event>
 8    1  0.7366917E-004  0.9658706E+02  0.7546771E-02  0.1288846E+00
          2   -1    0    0  501    0  0.00000000000E+00  0.00000000000E+00  0.10085490973E+04  0.10085490973E+04  0.00000000000E+00 0. -1.
         -2   -1    0    0    0  501 -0.00000000000E+00 -0.00000000000E+00 -0.15798252627E+02  0.15798252627E+02  0.00000000000E+00 0.  1.
         23    2    1    2    0    0  0.37724050186E+01 -0.17703955570E+02  0.16471693260E+03  0.19094692221E+03  0.94875698326E+02 0.  0.
         23    2    1    2    0    0 -0.37724050186E+01  0.17703955570E+02  0.82803391211E+03  0.83340042776E+03  0.92673903009E+02 0.  0.
          5    1    4    4  502    0 -0.25731782478E+02  0.49196978082E+02  0.47890795809E+03  0.48213835110E+03  0.47000000000E+01 0. -1.
         -5    1    4    4    0  502  0.21959377459E+02 -0.31493022511E+02  0.34912595403E+03  0.35126207666E+03  0.47000000000E+01 0.  1.
          5    1    3    3  503    0 -0.33439047446E+02 -0.44520802852E+01  0.14006845946E+03  0.14415011012E+03  0.47000000000E+01 0. -1.
         -5    1    3    3    0  503  0.37211452464E+02 -0.13251875285E+02  0.24648473138E+02  0.46796812083E+02  0.47000000000E+01 0.  1.
<mgrwt>
<rscale>  0 0.96041988E+02</rscale>
<asrwt>0</asrwt>
<pdfrwt beam="1">  1        2 0.15516135E+00 0.96587055E+02</pdfrwt>
<pdfrwt beam="2">  1       -2 0.24305012E-02 0.96587055E+02</pdfrwt>
<totfact> 0.14079114E+04</totfact>
</mgrwt>
</event>
<event>
 7    1  0.7366917E-004  0.1684405E+03  0.7546771E-02  0.1199413E+00
         -1   -1    0    0    0  501 -0.00000000000E+00  0.00000000000E+00  0.28139704020E+03  0.28139704020E+03  0.00000000000E+00 0.  1.
          1   -1    0    0  501    0  0.00000000000E+00 -0.00000000000E+00 -0.31476227623E+03  0.31476227623E+03  0.00000000000E+00 0. -1.
         23    2    1    2    0    0  0.44802518423E+02  0.37716637699E+02  0.24663135617E+03  0.26940205787E+03  0.91217501193E+02 0.  0.
          5    1    1    2  502    0  0.15450807255E+02 -0.50482361914E+02 -0.25445230765E+03  0.25991395342E+03  0.47000000000E+01 0. -1.
         -5    1    1    2    0  502 -0.60253325678E+02  0.12765724216E+02 -0.25544284544E+02  0.66843305146E+02  0.47000000000E+01 0.  1.
          5    1    3    3  503    0 -0.39529878079E+01  0.49947852589E+02  0.73628040589E+02  0.89182915695E+02  0.47000000000E+01 0. -1.
         -5    1    3    3    0  503  0.48755506230E+02 -0.12231214891E+02  0.17300331558E+03  0.18021914218E+03  0.47000000000E+01 0.  1.
<mgrwt>
<rscale>  0 0.15086613E+03</rscale>
<asrwt>0</asrwt>
<pdfrwt beam="1">  1        1 0.48424966E-01 0.16844054E+03</pdfrwt>
<pdfrwt beam="2">  1       -1 0.43291852E-01 0.16844054E+03</pdfrwt>
<totfact> 0.44557746E+02</totfact>
</mgrwt>
</event>
<event>
 8    1  0.7366917E-004  0.9340842E+02  0.7546771E-02  0.1295101E+00
          2   -1    0    0  501    0  0.00000000000E+00  0.00000000000E+00  0.37640660603E+03  0.37640660603E+03  0.00000000000E+00 0. -1.
         -2   -1    0    0    0  501 -0.00000000000E+00 -0.00000000000E+00 -0.23079378154E+02  0.23079378154E+02  0.00000000000E+00 0.  1.
         23    2    1    2    0    0  0.21645677866E+02  0.10742285224E+02  0.18310904931E+03  0.20532275079E+03  0.89691560313E+02 0.  0.
         23    2    1    2    0    0 -0.21645677866E+02 -0.10742285224E+02  0.17021817857E+03  0.19416323340E+03  0.90228603142E+02 0.  0.
          5    1    3    3  502    0  0.41213250636E+02  0.43843536978E+01  0.17903346204E+03  0.18382824896E+03  0.47000000000E+01 0. -1.
         -5    1    3    3    0  502 -0.19567572770E+02  0.63579315266E+01  0.40755872681E+01  0.21494501831E+02  0.47000000000E+01 0.  1.
          5    1    4    4  503    0  0.32033200648E+02 -0.19746688955E+02  0.57137277487E+02  0.68577081791E+02  0.47000000000E+01 0. -1.
         -5    1    4    4    0  503 -0.53678878514E+02  0.90044037305E+01  0.11308090108E+03  0.12558615161E+03  0.47000000000E+01 0.  1.
<mgrwt>
<rscale>  0 0.93278485E+02</rscale>
<asrwt>0</asrwt>
<pdfrwt beam="1">  1        2 0.57908704E-01 0.93408420E+02</pdfrwt>
<pdfrwt beam="2">  1       -2 0.35506738E-02 0.93408420E+02</pdfrwt>
<totfact> 0.25201455E+04</totfact>
</mgrwt>
</event>
<event>
 8    1  0.7366917E-004  0.9214947E+02  0.7546771E-02  0.1298991E+00
         -2   -1    0    0    0  501 -0.00000000000E+00  0.00000000000E+00  0.26379038201E+03  0.26379038201E+03  0.00000000000E+00 0.  1.
          2   -1    0    0  501    0  0.00000000000E+00 -0.00000000000E+00 -0.31611481981E+02  0.31611481981E+02  0.00000000000E+00 0. -1.
         23    2    1    2    0    0 -0.30997251436E+01 -0.39559499792E+01  0.12523357605E+03  0.15423236604E+03  0.89882792178E+02 0.  0.
         23    2    1    2    0    0  0.30997251436E+01  0.39559499792E+01  0.10694532398E+03  0.14116949794E+03  0.92012319786E+02 0.  0.
          5    1    3    3  502    0  0.41363716879E+02 -0.14504640324E+02  0.61193706429E+02  0.75419502594E+02  0.47000000000E+01 0. -1.
         -5    1    4    4    0  503 -0.36279082361E+02 -0.10399626527E+02  0.86094140792E+02  0.94120216359E+02  0.47000000000E+01 0.  1.
          5    1    4    4  503    0  0.39378807505E+02  0.14355576506E+02  0.20851183188E+02  0.47049281585E+02  0.47000000000E+01 0. -1.
         -5    1    3    3    0  502 -0.44463442023E+02  0.10548690344E+02  0.64039869616E+02  0.78812863449E+02  0.47000000000E+01 0.  1.
<mgrwt>
<rscale>  0 0.91613237E+02</rscale>
<asrwt>0</asrwt>
<pdfrwt beam="1">  1        2 0.48633051E-02 0.92149470E+02</pdfrwt>
<pdfrwt beam="2">  1       -2 0.40583134E-01 0.92149470E+02</pdfrwt>
<totfact> 0.85518735E+03</totfact>
</mgrwt>
</event>
<event>
 8    1  0.7366917E-004  0.1071502E+03  0.7546771E-02  0.1266276E+00
         -1   -1    0    0    0  501 -0.00000000000E+00  0.00000000000E+00  0.13235194308E+03  0.13235194308E+03  0.00000000000E+00 0.  1.
          1   -1    0    0  501    0  0.00000000000E+00 -0.00000000000E+00 -0.87043687547E+02  0.87043687547E+02  0.00000000000E+00 0. -1.
         23    2    1    2    0    0 -0.60372555338E+01  0.53233192136E+02  0.33489592835E+02  0.11159562358E+03  0.91988092570E+02 0.  0.
         23    2    1    2    0    0  0.60372555338E+01 -0.53233192136E+02  0.11818662694E+02  0.10780000704E+03  0.92795148209E+02 0.  0.
          5    1    4    4  502    0  0.45816316003E+02 -0.34062315199E+02 -0.10278460658E+02  0.58198907914E+02  0.47000000000E+01 0. -1.
         -5    1    3    3    0  503 -0.21592199349E+02  0.72945956469E+02  0.99664430300E+01  0.76868430611E+02  0.47000000000E+01 0.  1.
          5    1    3    3  503    0  0.15554943815E+02 -0.19712764333E+02  0.23523149805E+02  0.34727192969E+02  0.47000000000E+01 0. -1.
         -5    1    4    4    0  502 -0.39779060470E+02 -0.19170876937E+02  0.22097123351E+02  0.49601099129E+02  0.47000000000E+01 0.  1.
<mgrwt>
<rscale>  0 0.10697521E+03</rscale>
<asrwt>0</asrwt>
<pdfrwt beam="1">  1        1 0.13391337E-01 0.10715018E+03</pdfrwt>
<pdfrwt beam="2">  1       -1 0.20361837E-01 0.10715018E+03</pdfrwt>
<totfact> 0.78603862E+03</totfact>
</mgrwt>
</event>
<event>
 8    1  0.7366917E-004  0.1290370E+03  0.7546771E-02  0.1228980E+00
          2   -1    0    0  501    0  0.00000000000E+00  0.00000000000E+00  0.60952827969E+03  0.60952827969E+03  0.00000000000E+00 0. -1.
         -2   -1    0    0    0  501 -0.00000000000E+00 -0.00000000000E+00 -0.33418768183E+02  0.33418768183E+02  0.00000000000E+00 0.  1.
         23    2    1    2    0    0  0.24005584569E+02 -0.87263827583E+02  0.15034684857E+03  0.19812807434E+03  0.91974535994E+02 0.  0.
         23    2    1    2    0    0 -0.24005584569E+02  0.87263827583E+02  0.42576266294E+03  0.44481897353E+03  0.91645132825E+02 0.  0.
          5    1    3    3  502    0 -0.25949703496E+02 -0.21509558941E+02  0.88597776902E+02  0.94908926395E+02  0.47000000000E+01 0. -1.
         -5    1    3    3    0  502  0.49955288066E+02 -0.65754268642E+02  0.61749071665E+02  0.10321914794E+03  0.47000000000E+01 0.  1.
          5    1    4    4  503    0 -0.54299649039E+02  0.80500104609E+02  0.33197930801E+03  0.34592061181E+03  0.47000000000E+01 0. -1.
         -5    1    4    4    0  503  0.30294064470E+02  0.67637229734E+01  0.93783354924E+02  0.98898361722E+02  0.47000000000E+01 0.  1.
<mgrwt>
<rscale>  0 0.12897836E+03</rscale>
<asrwt>0</asrwt>
<pdfrwt beam="1">  1        2 0.93773573E-01 0.12903704E+03</pdfrwt>
<pdfrwt beam="2">  1       -2 0.51413494E-02 0.12903704E+03</pdfrwt>
<totfact> 0.88677899E+03</totfact>
</mgrwt>
</event>
<event>
 8    1  0.7366917E-004  0.1108054E+03  0.7546771E-02  0.1272475E+00
          1   -1    0    0  501    0  0.00000000000E+00  0.00000000000E+00  0.13109148852E+03  0.13109148852E+03  0.00000000000E+00 0. -1.
         -1   -1    0    0    0  501 -0.00000000000E+00 -0.00000000000E+00 -0.74096403410E+02  0.74096403410E+02  0.00000000000E+00 0.  1.
         23    2    1    2    0    0 -0.58215281554E+02  0.15146514587E+02  0.14950894417E+02  0.86673995049E+02  0.60583960447E+02 0.  0.
         23    2    1    2    0    0  0.58215281554E+02 -0.15146514587E+02  0.42044190690E+02  0.11851389688E+03  0.93055864252E+02 0.  0.
          5    1    3    3  502    0 -0.38626380357E+02  0.35395297153E+02  0.22374497347E+02  0.57162334203E+02  0.47000000000E+01 0. -1.
         -5    1    3    3    0  502 -0.19588901196E+02 -0.20248782565E+02 -0.74236029294E+01  0.29511660846E+02  0.47000000000E+01 0.  1.
          5    1    4    4  503    0  0.38793434938E+02  0.28503405785E+02  0.50323123158E+02  0.69798864317E+02  0.47000000000E+01 0. -1.
         -5    1    4    4    0  503  0.19421846616E+02 -0.43649920373E+02 -0.82789324679E+01  0.48715032560E+02  0.47000000000E+01 0.  1.
<mgrwt>
<rscale>  0 0.10381330E+03</rscale>
<asrwt>0</asrwt>
<pdfrwt beam="1">  1        1 0.20167921E-01 0.11080537E+03</pdfrwt>
<pdfrwt beam="2">  1       -1 0.11399447E-01 0.11080537E+03</pdfrwt>
<totfact> 0.11552356E+04</totfact>
</mgrwt>
</event>
<event>
 8    1  0.7366917E-004  0.1300955E+03  0.7546771E-02  0.1233736E+00
          2   -1    0    0  501    0  0.00000000000E+00  0.00000000000E+00  0.39863811287E+03  0.39863811287E+03  0.00000000000E+00 0. -1.
         -2   -1    0    0    0  501 -0.00000000000E+00 -0.00000000000E+00 -0.39921297323E+02  0.39921297323E+02  0.00000000000E+00 0.  1.
         23    2    1    2    0    0 -0.55727511363E+02  0.75575094297E+02  0.13494225994E+03  0.18744134940E+03  0.90042742880E+02 0.  0.
         23    2    1    2    0    0  0.55727511363E+02 -0.75575094297E+02  0.22377455560E+03  0.25111806079E+03  0.64560656135E+02 0.  0.
          5    1    3    3  502    0 -0.32379988290E+02 -0.11750056471E+02  0.62454819930E+02  0.71478822047E+02  0.47000000000E+01 0. -1.
         -5    1    3    3    0  502 -0.23347523073E+02  0.87325150768E+02  0.72487440012E+02  0.11596252735E+03  0.47000000000E+01 0.  1.
          5    1    4    4  503    0  0.21265133540E+02 -0.75837538590E+02  0.14717534828E+03  0.16699165041E+03  0.47000000000E+01 0. -1.
         -5    1    4    4    0  503  0.34462377823E+02  0.26244429318E+00  0.76599207321E+02  0.84126410386E+02  0.47000000000E+01 0.  1.
<mgrwt>
<rscale>  0 0.12585717E+03</rscale>
<asrwt>0</asrwt>
<pdfrwt beam="1">  1        2 0.61328938E-01 0.13009553E+03</pdfrwt>
<pdfrwt beam="2">  1       -2 0.61417383E-02 0.13009553E+03</pdfrwt>
<totfact> 0.10809741E+04</totfact>
</mgrwt>
</event>
<event>
 8    1  0.7366917E-004  0.1133129E+03  0.7546771E-02  0.1254755E+00
         -2   -1    0    0    0  501 -0.00000000000E+00  0.00000000000E+00  0.24107860767E+02  0.24107860767E+02  0.00000000000E+00 0.  1.
          2   -1    0    0  501    0  0.00000000000E+00 -0.00000000000E+00 -0.56980786300E+03  0.56980786300E+03  0.00000000000E+00 0. -1.
         23    2    1    2    0    0  0.67618369889E+02  0.70196056469E+01 -0.19434440010E+03  0.22474018280E+03  0.90093757310E+02 0.  0.
         23    2    1    2    0    0 -0.67618369889E+02 -0.70196056469E+01 -0.35135560213E+03  0.36917554096E+03  0.90654851418E+02 0.  0.
          5    1    4    4  502    0 -0.45121402376E+02  0.40198198205E+02 -0.19875765752E+03  0.20779444774E+03  0.47000000000E+01 0. -1.
         -5    1    4    4    0  502 -0.22496967514E+02 -0.47217803852E+02 -0.15259794462E+03  0.16138109322E+03  0.47000000000E+01 0.  1.
          5    1    3    3  503    0 -0.18986956913E+02 -0.11024371577E+02 -0.57444318639E+02  0.61676422118E+02  0.47000000000E+01 0. -1.
         -5    1    3    3    0  503  0.86605326802E+02  0.18043977224E+02 -0.13690008146E+03  0.16306376069E+03  0.47000000000E+01 0.  1.
<mgrwt>
<rscale>  0 0.11320067E+03</rscale>
<asrwt>0</asrwt>
<pdfrwt beam="1">  1        2 0.87662745E-01 0.11331293E+03</pdfrwt>
<pdfrwt beam="2">  1       -2 0.37089018E-02 0.11331293E+03</pdfrwt>
<totfact> 0.15405194E+04</totfact>
</mgrwt>
</event>
<event>
 8    1  0.7366917E-004  0.9287199E+02  0.7546771E-02  0.1296486E+00
         -2   -1    0    0    0  501 -0.00000000000E+00  0.00000000000E+00  0.25494592928E+02  0.25494592928E+02  0.00000000000E+00 0.  1.
          2   -1    0    0  501    0  0.00000000000E+00 -0.00000000000E+00 -0.33975751390E+03  0.33975751390E+03  0.00000000000E+00 0. -1.
         23    2    1    2    0    0  0.66440461687E+00  0.23543132345E+01 -0.17682018223E+03  0.19937349856E+03  0.92078395181E+02 0.  0.
         23    2    1    2    0    0 -0.66440461687E+00 -0.23543132345E+01 -0.13744273874E+03  0.16587860827E+03  0.92839765318E+02 0.  0.
          5    1    3    3  502    0 -0.20074628123E+01  0.45838311156E+02 -0.69066327588E+02  0.83050757270E+02  0.47000000000E+01 0. -1.
         -5    1    4    4    0  503 -0.18164404195E+02 -0.31178944447E+02 -0.15995957505E+02  0.39749626578E+02  0.47000000000E+01 0.  1.
          5    1    4    4  503    0  0.17499999578E+02  0.28824631212E+02 -0.12144678124E+03  0.12612898169E+03  0.47000000000E+01 0. -1.
         -5    1    3    3    0  502  0.26718674292E+01 -0.43483997921E+02 -0.10775385464E+03  0.11632274129E+03  0.47000000000E+01 0.  1.
<mgrwt>
<rscale>  0 0.92681125E+02</rscale>
<asrwt>0</asrwt>
<pdfrwt beam="1">  1        2 0.52270386E-01 0.92871989E+02</pdfrwt>
<pdfrwt beam="2">  1       -2 0.39222451E-02 0.92871989E+02</pdfrwt>
<totfact> 0.24233522E+04</totfact>
</mgrwt>
</event>
<event>
 8    1  0.7366917E-004  0.1280549E+03  0.7546771E-02  0.1230544E+00
          1   -1    0    0  501    0  0.00000000000E+00  0.00000000000E+00  0.91043107947E+02  0.91043107947E+02  0.00000000000E+00 0. -1.
         -1   -1    0    0    0  501 -0.00000000000E+00 -0.00000000000E+00 -0.22857139682E+03  0.22857139682E+03  0.00000000000E+00 0.  1.
         23    2    1    2    0    0  0.30834108727E+02 -0.84536763563E+02 -0.14292868336E+03  0.19190277888E+03  0.91109063002E+02 0.  0.
         23    2    1    2    0    0 -0.30834108727E+02  0.84536763563E+02  0.54003944817E+01  0.12771172589E+03  0.90464987780E+02 0.  0.
          5    1    3    3  502    0  0.16869189761E+02 -0.48506783595E+02 -0.88969438554E+01  0.52332812154E+02  0.47000000000E+01 0. -1.
         -5    1    3    3    0  502  0.13964918966E+02 -0.36029979967E+02 -0.13403173950E+03  0.13956996673E+03  0.47000000000E+01 0.  1.
          5    1    4    4  503    0 -0.77719822907E+01  0.99356588234E+02  0.34601545161E+01  0.99830846953E+02  0.47000000000E+01 0. -1.
         -5    1    4    4    0  503 -0.23062126437E+02 -0.14819824671E+02  0.19402399656E+01  0.27880878935E+02  0.47000000000E+01 0.  1.
<mgrwt>
<rscale>  0 0.12794043E+03</rscale>
<asrwt>0</asrwt>
<pdfrwt beam="1">  1        1 0.14006632E-01 0.12805494E+03</pdfrwt>
<pdfrwt beam="2">  1       -1 0.35164830E-01 0.12805494E+03</pdfrwt>
<totfact> 0.30439000E+03</totfact>
</mgrwt>
</event>
<event>
 8    1  0.7366917E-004  0.1098360E+03  0.7546771E-02  0.1261210E+00
         -1   -1    0    0    0  501 -0.00000000000E+00  0.00000000000E+00  0.10245152963E+04  0.10245152963E+04  0.00000000000E+00 0.  1.
          1   -1    0    0  501    0  0.00000000000E+00 -0.00000000000E+00 -0.13491719836E+02  0.13491719836E+02  0.00000000000E+00 0. -1.
         23    2    1    2    0    0  0.47460483681E+02 -0.37762935085E+02  0.31482910821E+03  0.33320159347E+03  0.90705003922E+02 0.  0.
         23    2    1    2    0    0 -0.47460483681E+02  0.37762935085E+02  0.69619446827E+03  0.70480542268E+03  0.91571881140E+02 0.  0.
          5    1    4    4  502    0  0.17646213452E+00  0.57677928896E+02  0.35065940316E+03  0.35540242211E+03  0.47000000000E+01 0. -1.
         -5    1    4    4    0  502 -0.47636945816E+02 -0.19914993811E+02  0.34553506511E+03  0.34940300057E+03  0.47000000000E+01 0.  1.
          5    1    3    3  503    0  0.70556840904E+02 -0.88176666593E+01  0.19060796023E+03  0.20349325185E+03  0.47000000000E+01 0. -1.
         -5    1    3    3    0  503 -0.23096357223E+02 -0.28945268426E+02  0.12422114798E+03  0.12970834162E+03  0.47000000000E+01 0.  1.
<mgrwt>
<rscale>  0 0.10965513E+03</rscale>
<asrwt>0</asrwt>
<pdfrwt beam="1">  1        1 0.20756500E-02 0.10983600E+03</pdfrwt>
<pdfrwt beam="2">  1       -1 0.15761768E+00 0.10983600E+03</pdfrwt>
<totfact> 0.18260422E+03</totfact>
</mgrwt>
</event>
<event>
 8    1  0.7366917E-004  0.2447706E+03  0.7546771E-02  0.1116712E+00
          1   -1    0    0  501    0  0.00000000000E+00  0.00000000000E+00  0.13619643344E+03  0.13619643344E+03  0.00000000000E+00 0. -1.
         -1   -1    0    0    0  501 -0.00000000000E+00 -0.00000000000E+00 -0.43987847090E+03  0.43987847090E+03  0.00000000000E+00 0.  1.
         23    2    1    2    0    0  0.11084869462E+03 -0.19824267665E+03 -0.14103342088E+03  0.28219192127E+03  0.90300956162E+02 0.  0.
         23    2    1    2    0    0 -0.11084869462E+03  0.19824267665E+03 -0.16264861658E+03  0.29388298307E+03  0.91241675352E+02 0.  0.
          5    1    3    3  502    0  0.75562335087E+02 -0.15787577070E+03 -0.60338543438E+02  0.18519518158E+03  0.47000000000E+01 0. -1.
         -5    1    3    3    0  502  0.35286359537E+02 -0.40366905946E+02 -0.80694877443E+02  0.96996739691E+02  0.47000000000E+01 0.  1.
          5    1    4    4  503    0 -0.87552239265E+02  0.64452782302E+02 -0.68919704424E+02  0.12880827382E+03  0.47000000000E+01 0. -1.
         -5    1    4    4    0  503 -0.23296455359E+02  0.13378989434E+03 -0.93728912155E+02  0.16507470925E+03  0.47000000000E+01 0.  1.
<mgrwt>
<rscale>  0 0.24468325E+03</rscale>
<asrwt>0</asrwt>
<pdfrwt beam="1">  1        1 0.20953297E-01 0.24477058E+03</pdfrwt>
<pdfrwt beam="2">  1       -1 0.67673611E-01 0.24477058E+03</pdfrwt>
<totfact> 0.55283109E+02</totfact>
</mgrwt>
</event>
<event>
 8    1  0.7366917E-004  0.1487852E+03  0.7546771E-02  0.1202049E+00
         -1   -1    0    0    0  501 -0.00000000000E+00  0.00000000000E+00  0.77724433056E+03  0.77724433056E+03  0.00000000000E+00 0.  1.
          1   -1    0    0  501    0  0.00000000000E+00 -0.00000000000E+00 -0.43577077509E+02  0.43577077509E+02  0.00000000000E+00 0. -1.
         23    2    1    2    0    0 -0.97756533946E+02 -0.65315563650E+02  0.60895393629E+03  0.62686675083E+03  0.91184231004E+02 0.  0.
         23    2    1    2    0    0  0.97756533946E+02  0.65315563650E+02  0.12471331676E+03  0.19395465724E+03  0.90788407321E+02 0.  0.
          5    1    3    3  502    0 -0.95035934129E-01 -0.44482779233E+02  0.12680788055E+03  0.13446581443E+03  0.47000000000E+01 0. -1.
         -5    1    4    4    0  503  0.26832719518E+01  0.44350224366E+02  0.67455611783E+02  0.80910394331E+02  0.47000000000E+01 0.  1.
          5    1    4    4  503    0  0.95073261994E+02  0.20965339284E+02  0.57257704974E+02  0.11304426291E+03  0.47000000000E+01 0. -1.
         -5    1    3    3    0  502 -0.97661498012E+02 -0.20832784418E+02  0.48214605574E+03  0.49240093640E+03  0.47000000000E+01 0.  1.
<mgrwt>
<rscale>  0 0.14872457E+03</rscale>
<asrwt>0</asrwt>
<pdfrwt beam="1">  1        1 0.67041663E-02 0.14878517E+03</pdfrwt>
<pdfrwt beam="2">  1       -1 0.11957604E+00 0.14878517E+03</pdfrwt>
<totfact> 0.73269699E+02</totfact>
</mgrwt>
</event>
<event>
 8    1  0.7366917E-004  0.9256713E+02  0.7546771E-02  0.1296864E+00
         -1   -1    0    0    0  501 -0.00000000000E+00  0.00000000000E+00  0.95086306660E+01  0.95086306660E+01  0.00000000000E+00 0.  1.
          1   -1    0    0  501    0  0.00000000000E+00 -0.00000000000E+00 -0.93586150596E+03  0.93586150596E+03  0.00000000000E+00 0. -1.
         23    2    1    2    0    0 -0.16088644228E+02  0.27870309633E+01 -0.55618348612E+03  0.56380225236E+03  0.90919181249E+02 0.  0.
         23    2    1    2    0    0  0.16088644228E+02 -0.27870309633E+01 -0.37016938918E+03  0.38156788427E+03  0.91115649628E+02 0.  0.
          5    1    3    3  502    0 -0.49525034316E+02  0.93216559001E+01 -0.43164788215E+03  0.43460511555E+03  0.47000000000E+01 0. -1.
         -5    1    4    4    0  503  0.25094232438E+02  0.40048858509E+02 -0.22056290809E+03  0.22561852317E+03  0.47000000000E+01 0.  1.
          5    1    4    4  503    0 -0.90055882105E+01 -0.42835889472E+02 -0.14960648108E+03  0.15594936110E+03  0.47000000000E+01 0. -1.
         -5    1    3    3    0  502  0.33436390088E+02 -0.65346249368E+01 -0.12453560397E+03  0.12919713681E+03  0.47000000000E+01 0.  1.
<mgrwt>
<rscale>  0 0.92518747E+02</rscale>
<asrwt>0</asrwt>
<pdfrwt beam="1">  1        1 0.14397877E+00 0.92567130E+02</pdfrwt>
<pdfrwt beam="2">  1       -1 0.14628655E-02 0.92567130E+02</pdfrwt>
<totfact> 0.17927507E+04</totfact>
</mgrwt>
</event>
<event>
 8    1  0.7366917E-004  0.9380525E+02  0.7546771E-02  0.1293918E+00
         -1   -1    0    0    0  501 -0.00000000000E+00  0.00000000000E+00  0.12959820383E+02  0.12959820383E+02  0.00000000000E+00 0.  1.
          1   -1    0    0  501    0  0.00000000000E+00 -0.00000000000E+00 -0.75626407343E+03  0.75626407343E+03  0.00000000000E+00 0. -1.
         23    2    1    2    0    0  0.92282527963E+01  0.22583725498E+02 -0.49480169038E+03  0.50360584251E+03  0.90525943806E+02 0.  0.
         23    2    1    2    0    0 -0.92282527963E+01 -0.22583725498E+02 -0.24850256267E+03  0.26561805131E+03  0.90577261042E+02 0.  0.
          5    1    3    3  502    0  0.46412242174E+02  0.14859365867E-01 -0.32151078883E+03  0.32487747502E+03  0.47000000000E+01 0. -1.
         -5    1    4    4    0  503 -0.10222612676E+02 -0.55601870457E+02 -0.18979168631E+03  0.19808847518E+03  0.47000000000E+01 0.  1.
          5    1    4    4  503    0  0.99435987924E+00  0.33018144958E+02 -0.58710876364E+02  0.67529576124E+02  0.47000000000E+01 0. -1.
         -5    1    3    3    0  502 -0.37183989377E+02  0.22568866132E+02 -0.17329090155E+03  0.17872836748E+03  0.47000000000E+01 0.  1.
<mgrwt>
<rscale>  0 0.93792863E+02</rscale>
<asrwt>0</asrwt>
<pdfrwt beam="1">  1        1 0.11634830E+00 0.93805253E+02</pdfrwt>
<pdfrwt beam="2">  1       -1 0.19938188E-02 0.93805253E+02</pdfrwt>
<totfact> 0.15967858E+04</totfact>
</mgrwt>
</event>
<event>
 7    1  0.7366917E-004  0.2063994E+03  0.7546771E-02  0.1169462E+00
          1   -1    0    0  501    0  0.00000000000E+00  0.00000000000E+00  0.45888708417E+02  0.45888708417E+02  0.00000000000E+00 0. -1.
         -1   -1    0    0    0  501 -0.00000000000E+00 -0.00000000000E+00 -0.71708739315E+03  0.71708739315E+03  0.00000000000E+00 0.  1.
         23    2    1    2    0    0  0.40238360949E+02 -0.50438118768E+02 -0.43204952154E+03  0.44707571772E+03  0.95114556155E+02 0.  0.
          5    1    3    3  502    0  0.16876250396E+02  0.12850869304E+02 -0.20054495818E+02  0.29567304101E+02  0.47000000000E+01 0. -1.
         -5    1    1    2    0  503 -0.19381896412E+02 -0.75702070587E+02 -0.84516798983E+02  0.11520260722E+03  0.47000000000E+01 0.  1.
          5    1    1    2  503    0 -0.20856464537E+02  0.12614018936E+03 -0.15463236421E+03  0.20069777663E+03  0.47000000000E+01 0. -1.
         -5    1    3    3    0  502  0.23362110553E+02 -0.63288988071E+02 -0.41199502572E+03  0.41750841362E+03  0.47000000000E+01 0.  1.
<mgrwt>
<rscale>  0 0.17829693E+03</rscale>
<asrwt>0</asrwt>
<pdfrwt beam="1">  1        1 0.70598021E-02 0.20639944E+03</pdfrwt>
<pdfrwt beam="2">  1       -1 0.11032112E+00 0.20639944E+03</pdfrwt>
<totfact> 0.82822438E+02</totfact>
</mgrwt>
</event>
<event>
 8    1  0.7654504E-004  0.1046877E+03  0.7546771E-02  0.1274462E+00
         -2   -1    0    0    0  501 -0.00000000000E+00  0.00000000000E+00  0.58338347697E+02  0.58338347697E+02  0.00000000000E+00 0.  1.
          2   -1    0    0  501    0  0.00000000000E+00 -0.00000000000E+00 -0.54479324235E+03  0.54479324235E+03  0.00000000000E+00 0. -1.
         23    2    1    2    0    0  0.38905373243E+02  0.16472284483E+02 -0.49440706301E+03  0.50536902439E+03  0.95783832830E+02 0.  0.
         23    2    1    2    0    0 -0.38905373243E+02 -0.16472284483E+02  0.79521683575E+01  0.97762565660E+02  0.87802722279E+02 0.  0.
          5    1    4    4  502    0  0.19657604802E+02 -0.15209585294E+02 -0.20418361723E+02  0.32507728416E+02  0.47000000000E+01 0. -1.
         -5    1    3    3    0  503  0.16103677090E+02  0.55605925244E+02 -0.24073051620E+03  0.24763808021E+03  0.47000000000E+01 0.  1.
          5    1    3    3  503    0  0.22801696153E+02 -0.39133640761E+02 -0.25367654681E+03  0.25773094418E+03  0.47000000000E+01 0. -1.
         -5    1    4    4    0  502 -0.58562978044E+02 -0.12626991897E+01  0.28370530081E+02  0.65254837244E+02  0.47000000000E+01 0.  1.
<mgrwt>
<rscale>  0 0.10282634E+03</rscale>
<asrwt>0</asrwt>
<pdfrwt beam="1">  1        2 0.83814345E-01 0.10468766E+03</pdfrwt>
<pdfrwt beam="2">  1       -2 0.89751304E-02 0.10468766E+03</pdfrwt>
<totfact> 0.42539235E+03</totfact>
</mgrwt>
</event>
<event>
 8    1  0.7366917E-004  0.9681512E+02  0.7546771E-02  0.1287622E+00
          2   -1    0    0  501    0  0.00000000000E+00  0.00000000000E+00  0.31250888613E+03  0.31250888613E+03  0.00000000000E+00 0. -1.
         -2   -1    0    0    0  501 -0.00000000000E+00 -0.00000000000E+00 -0.41447760430E+02  0.41447760430E+02  0.00000000000E+00 0.  1.
         23    2    1    2    0    0  0.22288289693E+02 -0.24374068915E+02  0.23009957571E+03  0.24963770219E+03  0.91007167402E+02 0.  0.
         23    2    1    2    0    0 -0.22288289693E+02  0.24374068915E+02  0.40961549987E+02  0.10431894437E+03  0.90076248168E+02 0.  0.
          5    1    4    4  502    0 -0.22283628847E+02  0.54497913988E+02  0.44039063226E+02  0.73675720787E+02  0.47000000000E+01 0. -1.
         -5    1    4    4    0  502 -0.46608455263E-02 -0.30123845073E+02 -0.30775132393E+01  0.30643223582E+02  0.47000000000E+01 0.  1.
          5    1    3    3  503    0  0.45936401871E+01  0.22904605444E+02  0.16700798861E+03  0.16869937979E+03  0.47000000000E+01 0. -1.
         -5    1    3    3    0  503  0.17694649505E+02 -0.47278674359E+02  0.63091587097E+02  0.80938322399E+02  0.47000000000E+01 0.  1.
<mgrwt>
<rscale>  0 0.96595739E+02</rscale>
<asrwt>0</asrwt>
<pdfrwt beam="1">  1        2 0.48078289E-01 0.96815121E+02</pdfrwt>
<pdfrwt beam="2">  1       -2 0.63765787E-02 0.96815121E+02</pdfrwt>
<totfact> 0.12887593E+04</totfact>
</mgrwt>
</event>
<event>
 8    1  0.7366917E-004  0.9404164E+02  0.7546771E-02  0.1294228E+00
         -2   -1    0    0    0  501 -0.00000000000E+00  0.00000000000E+00  0.35406260881E+02  0.35406260881E+02  0.00000000000E+00 0.  1.
          2   -1    0    0  501    0  0.00000000000E+00 -0.00000000000E+00 -0.30409465887E+03  0.30409465887E+03  0.00000000000E+00 0. -1.
         23    2    1    2    0    0  0.16336583193E+02 -0.83393767175E+01 -0.59100519955E+02  0.10978172590E+03  0.90679251919E+02 0.  0.
         23    2    1    2    0    0 -0.16336583193E+02  0.83393767175E+01 -0.20958787804E+03  0.22971919385E+03  0.92235569330E+02 0.  0.
          5    1    3    3  502    0 -0.33039860547E+02  0.67753479883E+01 -0.42753709455E+01  0.34320642798E+02  0.47000000000E+01 0. -1.
         -5    1    3    3    0  502  0.49376443740E+02 -0.15114724706E+02 -0.54825149009E+02  0.75461083104E+02  0.47000000000E+01 0.  1.
          5    1    4    4  503    0 -0.17044227397E+02  0.29804063345E+02 -0.20415234735E+03  0.20707259309E+03  0.47000000000E+01 0. -1.
         -5    1    4    4    0  503  0.70764420427E+00 -0.21464686628E+02 -0.54355306866E+01  0.22646600765E+02  0.47000000000E+01 0.  1.
<mgrwt>
<rscale>  0 0.93657810E+02</rscale>
<asrwt>0</asrwt>
<pdfrwt beam="1">  1        2 0.46783794E-01 0.94041637E+02</pdfrwt>
<pdfrwt beam="2">  1       -2 0.54471170E-02 0.94041637E+02</pdfrwt>
<totfact> 0.16752492E+04</totfact>
</mgrwt>
</event>
<event>
 8    1  0.7366917E-004  0.1509085E+03  0.7546771E-02  0.1202799E+00
         -3   -1    0    0    0  501 -0.00000000000E+00  0.00000000000E+00  0.86890601258E+02  0.86890601258E+02  0.00000000000E+00 0.  1.
          3   -1    0    0  501    0  0.00000000000E+00 -0.00000000000E+00 -0.28201770634E+03  0.28201770634E+03  0.00000000000E+00 0. -1.
         23    2    1    2    0    0 -0.86340401871E+02 -0.71147196939E+02 -0.26389424559E+02  0.14253301906E+03  0.84277346693E+02 0.  0.
         23    2    1    2    0    0  0.86340401871E+02  0.71147196939E+02 -0.16873768052E+03  0.22637528854E+03  0.10127575132E+03 0.  0.
          5    1    4    4  502    0  0.65995986797E+02  0.67522130902E+02 -0.17930101835E+03  0.20269596349E+03  0.47000000000E+01 0. -1.
         -5    1    4    4    0  502  0.20344415073E+02  0.36250660374E+01  0.10563337830E+02  0.23679325045E+02  0.47000000000E+01 0.  1.
          5    1    3    3  503    0 -0.37457124180E+02  0.86051094452E+01 -0.29726179683E+02  0.48814135442E+02  0.47000000000E+01 0. -1.
         -5    1    3    3    0  503 -0.48883277691E+02 -0.79752306384E+02  0.33367551243E+01  0.93718883616E+02  0.47000000000E+01 0.  1.
<mgrwt>
<rscale>  0 0.14812233E+03</rscale>
<asrwt>0</asrwt>
<pdfrwt beam="1">  1        3 0.43387340E-01 0.15090847E+03</pdfrwt>
<pdfrwt beam="2">  1       -3 0.13367785E-01 0.15090847E+03</pdfrwt>
<totfact> 0.56392836E+02</totfact>
</mgrwt>
</event>
<event>
 8    1  0.7366917E-004  0.9193925E+02  0.7546771E-02  0.1298929E+00
         -4   -1    0    0    0  501 -0.00000000000E+00  0.00000000000E+00  0.25016273310E+02  0.25016273310E+02  0.00000000000E+00 0.  1.
          4   -1    0    0  501    0  0.00000000000E+00 -0.00000000000E+00 -0.42737258351E+03  0.42737258351E+03  0.00000000000E+00 0. -1.
         23    2    1    2    0    0 -0.29127380082E+01  0.56119966062E+01 -0.94160036161E+02  0.13077142958E+03  0.90526658149E+02 0.  0.
         23    2    1    2    0    0  0.29127380082E+01 -0.56119966062E+01 -0.30819627403E+03  0.32161742724E+03  0.91721576662E+02 0.  0.
          5    1    3    3  502    0  0.29867394351E+02  0.29250065873E+02 -0.74562350995E+02  0.85611107835E+02  0.47000000000E+01 0. -1.
         -5    1    4    4    0  503 -0.43289711276E+02  0.49344899120E+01 -0.16438028999E+03  0.17012148021E+03  0.47000000000E+01 0.  1.
          5    1    4    4  503    0  0.46202449284E+02 -0.10546486518E+02 -0.14381598404E+03  0.15149594702E+03  0.47000000000E+01 0. -1.
         -5    1    3    3    0  502 -0.32780132359E+02 -0.23638069266E+02 -0.19597685166E+02  0.45160321744E+02  0.47000000000E+01 0.  1.
<mgrwt>
<rscale>  0 0.91639780E+02</rscale>
<asrwt>0</asrwt>
<pdfrwt beam="1">  1        4 0.65749621E-01 0.91939253E+02</pdfrwt>
<pdfrwt beam="2">  1       -4 0.38486578E-02 0.91939253E+02</pdfrwt>
<totfact> 0.11970381E+03</totfact>
</mgrwt>
</event>
<event>
 8    1  0.7366917E-004  0.9040614E+02  0.7546771E-02  0.1308095E+00
         -1   -1    0    0    0  501 -0.00000000000E+00  0.00000000000E+00  0.40994403340E+02  0.40994403340E+02  0.00000000000E+00 0.  1.
          1   -1    0    0  501    0  0.00000000000E+00 -0.00000000000E+00 -0.19794587759E+03  0.19794587759E+03  0.00000000000E+00 0. -1.
         23    2    1    2    0    0  0.75940897720E+01 -0.76247624857E+01 -0.11184315244E+03  0.13790547934E+03  0.79957634295E+02 0.  0.
         23    2    1    2    0    0 -0.75940897720E+01  0.76247624857E+01 -0.45108321810E+02  0.10103480159E+03  0.89763373562E+02 0.  0.
          5    1    4    4  502    0  0.36595610676E+02  0.22883265957E+02 -0.21170038824E+02  0.48302620275E+02  0.47000000000E+01 0. -1.
         -5    1    3    3    0  503 -0.32016829019E+02  0.14050992388E+02 -0.49387610005E+02  0.60693770270E+02  0.47000000000E+01 0.  1.
          5    1    3    3  503    0  0.39610918791E+02 -0.21675754874E+02 -0.62455542433E+02  0.77211709070E+02  0.47000000000E+01 0. -1.
         -5    1    4    4    0  502 -0.44189700448E+02 -0.15258503471E+02 -0.23938282987E+02  0.52732181315E+02  0.47000000000E+01 0.  1.
<mgrwt>
<rscale>  0 0.87869466E+02</rscale>
<asrwt>0</asrwt>
<pdfrwt beam="1">  1        1 0.30453212E-01 0.90406142E+02</pdfrwt>
<pdfrwt beam="2">  1       -1 0.63068313E-02 0.90406142E+02</pdfrwt>
<totfact> 0.16496573E+04</totfact>
</mgrwt>
</event>
<event>
 8    1  0.7366917E-004  0.1204995E+03  0.7546771E-02  0.1257058E+00
          1   -1    0    0  501    0  0.00000000000E+00  0.00000000000E+00  0.54458183990E+02  0.54458183990E+02  0.00000000000E+00 0. -1.
         -1   -1    0    0    0  501 -0.00000000000E+00 -0.00000000000E+00 -0.44202848969E+03  0.44202848969E+03  0.00000000000E+00 0.  1.
         23    2    1    2    0    0  0.16026245549E+01 -0.12104065314E+01 -0.38855537441E+03  0.40681127756E+03  0.12048279161E+03 0.  0.
         23    2    1    2    0    0 -0.16026245549E+01  0.12104065314E+01  0.98506871063E+00  0.89675396122E+02  0.89647491989E+02 0.  0.
          5    1    4    4  502    0  0.10928083967E+02  0.26625095735E+02  0.34737720063E+02  0.45355462044E+02  0.47000000000E+01 0. -1.
         -5    1    4    4    0  502 -0.12530708522E+02 -0.25414689203E+02 -0.33752651352E+02  0.44319934078E+02  0.47000000000E+01 0.  1.
          5    1    3    3  503    0  0.37171619315E+02  0.47040571300E+02 -0.20693373348E+03  0.21549525443E+03  0.47000000000E+01 0. -1.
         -5    1    3    3    0  503 -0.35568994760E+02 -0.48250977831E+02 -0.18162164093E+03  0.19131602313E+03  0.47000000000E+01 0.  1.
<mgrwt>
<rscale>  0 0.11191822E+03</rscale>
<asrwt>0</asrwt>
<pdfrwt beam="1">  1        1 0.83781820E-02 0.12049953E+03</pdfrwt>
<pdfrwt beam="2">  1       -1 0.68004385E-01 0.12049953E+03</pdfrwt>
<totfact> 0.17969134E+03</totfact>
</mgrwt>
</event>
<event>
 8    1  0.7366917E-004  0.1109561E+03  0.7546771E-02  0.1261540E+00
         -4   -1    0    0    0  501 -0.00000000000E+00  0.00000000000E+00  0.22440125935E+02  0.22440125935E+02  0.00000000000E+00 0.  1.
          4   -1    0    0  501    0  0.00000000000E+00 -0.00000000000E+00 -0.68603517143E+03  0.68603517143E+03  0.00000000000E+00 0. -1.
         23    2    1    2    0    0 -0.46067564352E+02 -0.34181475461E+02 -0.49909084909E+03  0.51004929631E+03  0.88136344825E+02 0.  0.
         23    2    1    2    0    0  0.46067564352E+02  0.34181475461E+02 -0.16450419641E+03  0.19842600105E+03  0.94977120966E+02 0.  0.
          5    1    4    4  502    0  0.73259524933E+02  0.25897466403E+02 -0.14172816488E+03  0.16169910166E+03  0.47000000000E+01 0. -1.
         -5    1    3    3    0  503 -0.35907506540E+02  0.24305330163E+02 -0.26134816733E+03  0.26496236085E+03  0.47000000000E+01 0.  1.
          5    1    3    3  503    0 -0.10160057812E+02 -0.58486805624E+02 -0.23774268176E+03  0.24508693547E+03  0.47000000000E+01 0. -1.
         -5    1    4    4    0  502 -0.27191960581E+02  0.82840090579E+01 -0.22776031534E+02  0.36726899389E+02  0.47000000000E+01 0.  1.
<mgrwt>
<rscale>  0 0.10947774E+03</rscale>
<asrwt>0</asrwt>
<pdfrwt beam="1">  1        4 0.10554388E+00 0.11095606E+03</pdfrwt>
<pdfrwt beam="2">  1       -4 0.34523268E-02 0.11095606E+03</pdfrwt>
<totfact> 0.51971973E+02</totfact>
</mgrwt>
</event>
<event>
 8    1  0.7366917E-004  0.9621285E+02  0.7546771E-02  0.1289804E+00
          3   -1    0    0  501    0  0.00000000000E+00  0.00000000000E+00  0.65763904089E+03  0.65763904089E+03  0.00000000000E+00 0. -1.
         -3   -1    0    0    0  501 -0.00000000000E+00 -0.00000000000E+00 -0.12949129568E+03  0.12949129568E+03  0.00000000000E+00 0.  1.
         23    2    1    2    0    0  0.20633143715E+02  0.10057088954E+02 -0.10768831393E+03  0.14440804863E+03  0.93434682501E+02 0.  0.
         23    2    1    2    0    0 -0.20633143715E+02 -0.10057088954E+02  0.63583605915E+03  0.64272228794E+03  0.90981171966E+02 0.  0.
          5    1    3    3  502    0  0.11830277270E+02 -0.31221332063E+02 -0.60511431942E+01  0.34255413733E+02  0.47000000000E+01 0. -1.
         -5    1    3    3    0  502  0.88028664450E+01  0.41278421017E+02 -0.10163717074E+03  0.11015263490E+03  0.47000000000E+01 0.  1.
          5    1    4    4  503    0  0.53823870796E+01  0.37679112552E+02  0.21944630285E+03  0.22277220529E+03  0.47000000000E+01 0. -1.
         -5    1    4    4    0  503 -0.26015530794E+02 -0.47736201505E+02  0.41638975629E+03  0.41995008265E+03  0.47000000000E+01 0.  1.
<mgrwt>
<rscale>  0 0.95612031E+02</rscale>
<asrwt>0</asrwt>
<pdfrwt beam="1">  1        3 0.10117523E+00 0.96212845E+02</pdfrwt>
<pdfrwt beam="2">  1       -3 0.19921738E-01 0.96212845E+02</pdfrwt>
<totfact> 0.45624931E+01</totfact>
</mgrwt>
</event>
<event>
 8    1  0.7366917E-004  0.9294083E+02  0.7546771E-02  0.1298497E+00
         -1   -1    0    0    0  501 -0.00000000000E+00  0.00000000000E+00  0.15292624124E+02  0.15292624124E+02  0.00000000000E+00 0.  1.
          1   -1    0    0  501    0  0.00000000000E+00 -0.00000000000E+00 -0.78536470244E+03  0.78536470244E+03  0.00000000000E+00 0. -1.
         23    2    1    2    0    0  0.71493778844E+01 -0.95370895226E+01 -0.61584077122E+03  0.62281446194E+03  0.92173362918E+02 0.  0.
         23    2    1    2    0    0 -0.71493778844E+01  0.95370895226E+01 -0.15423130710E+03  0.17784286462E+03  0.87742342835E+02 0.  0.
          5    1    3    3  502    0  0.89457751792E+01  0.40648761397E+02 -0.24409566373E+03  0.24766334357E+03  0.47000000000E+01 0. -1.
         -5    1    4    4    0  503 -0.36654380703E+02  0.17588624049E+02 -0.32560172999E+02  0.52298739816E+02  0.47000000000E+01 0.  1.
          5    1    4    4  503    0  0.29505002819E+02 -0.80515345264E+01 -0.12167113410E+03  0.12554412480E+03  0.47000000000E+01 0. -1.
         -5    1    3    3    0  502 -0.17963972948E+01 -0.50185850920E+02 -0.37174510749E+03  0.37515111837E+03  0.47000000000E+01 0.  1.
<mgrwt>
<rscale>  0 0.91822664E+02</rscale>
<asrwt>0</asrwt>
<pdfrwt beam="1">  1        1 0.12082536E+00 0.92940833E+02</pdfrwt>
<pdfrwt beam="2">  1       -1 0.23527111E-02 0.92940833E+02</pdfrwt>
<totfact> 0.11916379E+04</totfact>
</mgrwt>
</event>
<event>
 8    1  0.7366917E-004  0.1385121E+03  0.7546771E-02  0.1218174E+00
          2   -1    0    0  501    0  0.00000000000E+00  0.00000000000E+00  0.13908764857E+03  0.13908764857E+03  0.00000000000E+00 0. -1.
         -2   -1    0    0    0  501 -0.00000000000E+00 -0.00000000000E+00 -0.14678905936E+03  0.14678905936E+03  0.00000000000E+00 0.  1.
         23    2    1    2    0    0 -0.92830700653E+02 -0.80979816454E+01  0.44286700071E+02  0.14541979532E+03  0.10248165094E+03 0.  0.
         23    2    1    2    0    0  0.92830700653E+02  0.80979816454E+01 -0.51988110862E+02  0.14045691261E+03  0.91335996953E+02 0.  0.
          5    1    4    4  502    0  0.68372575577E+02 -0.35597786174E+02 -0.16687845407E+02  0.79010035160E+02  0.47000000000E+01 0. -1.
         -5    1    4    4    0  502  0.24458125076E+02  0.43695767820E+02 -0.35300265455E+02  0.61446877453E+02  0.47000000000E+01 0.  1.
          5    1    3    3  503    0 -0.23681212129E+02 -0.32222724364E+01  0.67820778511E+02  0.72061993071E+02  0.47000000000E+01 0. -1.
         -5    1    3    3    0  503 -0.69149488524E+02 -0.48757092089E+01 -0.23534078440E+02  0.73357802254E+02  0.47000000000E+01 0.  1.
<mgrwt>
<rscale>  0 0.13645923E+03</rscale>
<asrwt>0</asrwt>
<pdfrwt beam="1">  1        2 0.21398100E-01 0.13851211E+03</pdfrwt>
<pdfrwt beam="2">  1       -2 0.22582932E-01 0.13851211E+03</pdfrwt>
<totfact> 0.41900966E+03</totfact>
</mgrwt>
</event>
<event>
 8    1  0.7366917E-004  0.9878879E+02  0.7546771E-02  0.1284579E+00
          2   -1    0    0  501    0  0.00000000000E+00  0.00000000000E+00  0.66515204609E+03  0.66515204609E+03  0.00000000000E+00 0. -1.
         -2   -1    0    0    0  501 -0.00000000000E+00 -0.00000000000E+00 -0.21824548259E+02  0.21824548259E+02  0.00000000000E+00 0.  1.
         23    2    1    2    0    0 -0.29032859278E+02  0.17429995960E+02  0.12215325274E+03  0.15710074174E+03  0.92803632595E+02 0.  0.
         23    2    1    2    0    0  0.29032859278E+02 -0.17429995960E+02  0.52117424510E+03  0.52987585262E+03  0.89437764709E+02 0.  0.
          5    1    4    4  502    0  0.25201402830E+02 -0.51710895939E+02  0.38597387046E+03  0.39026535350E+03  0.47000000000E+01 0. -1.
         -5    1    4    4    0  502  0.38314564478E+01  0.34280899979E+02  0.13520037464E+03  0.13961049912E+03  0.47000000000E+01 0.  1.
          5    1    3    3  503    0  0.21628884714E+01 -0.35847610473E+02  0.36591649606E+02  0.51485610457E+02  0.47000000000E+01 0. -1.
         -5    1    3    3    0  503 -0.31195747749E+02  0.53277606434E+02  0.85561603131E+02  0.10561513128E+03  0.47000000000E+01 0.  1.
<mgrwt>
<rscale>  0 0.97990422E+02</rscale>
<asrwt>0</asrwt>
<pdfrwt beam="1">  1        2 0.10233107E+00 0.98788794E+02</pdfrwt>
<pdfrwt beam="2">  1       -2 0.33576233E-02 0.98788794E+02</pdfrwt>
<totfact> 0.14790532E+04</totfact>
</mgrwt>
</event>
<event>
 8    1  0.7366917E-004  0.1115628E+03  0.7546771E-02  0.1258672E+00
         -3   -1    0    0    0  501 -0.00000000000E+00  0.00000000000E+00  0.43029286621E+02  0.43029286621E+02  0.00000000000E+00 0.  1.
          3   -1    0    0  501    0  0.00000000000E+00 -0.00000000000E+00 -0.32937805706E+03  0.32937805706E+03  0.00000000000E+00 0. -1.
         23    2    1    2    0    0  0.62584781240E+02 -0.55575798477E+01 -0.21125691281E+03  0.23792671245E+03  0.89620844393E+02 0.  0.
         23    2    1    2    0    0 -0.62584781240E+02  0.55575798477E+01 -0.75091857633E+02  0.13448063124E+03  0.92187372012E+02 0.  0.
          5    1    3    3  502    0  0.57500202673E+02 -0.34469148372E+02 -0.85753295248E+02  0.10895004884E+03  0.47000000000E+01 0. -1.
         -5    1    4    4    0  503 -0.60544858750E+02  0.38082323320E+02 -0.27857742006E+02  0.76903101759E+02  0.47000000000E+01 0.  1.
          5    1    4    4  503    0 -0.20399224902E+01 -0.32524743472E+02 -0.47234115627E+02  0.57577529478E+02  0.47000000000E+01 0. -1.
         -5    1    3    3    0  502  0.50845785672E+01  0.28911568524E+02 -0.12550361756E+03  0.12897666360E+03  0.47000000000E+01 0.  1.
<mgrwt>
<rscale>  0 0.11103118E+03</rscale>
<asrwt>0</asrwt>
<pdfrwt beam="1">  1        3 0.50673546E-01 0.11156278E+03</pdfrwt>
<pdfrwt beam="2">  1       -3 0.66198904E-02 0.11156278E+03</pdfrwt>
<totfact> 0.12580325E+03</totfact>
</mgrwt>
</event>
<event>
 8    1  0.7366917E-004  0.1146641E+03  0.7546771E-02  0.1252941E+00
          2   -1    0    0  501    0  0.00000000000E+00  0.00000000000E+00  0.52035218260E+03  0.52035218260E+03  0.00000000000E+00 0. -1.
         -2   -1    0    0    0  501 -0.00000000000E+00 -0.00000000000E+00 -0.42549105115E+02  0.42549105115E+02  0.00000000000E+00 0.  1.
         23    2    1    2    0    0 -0.69752594929E+02 -0.22403277709E+01  0.58625946241E+02  0.12878218376E+03  0.90980249034E+02 0.  0.
         23    2    1    2    0    0  0.69752594929E+02  0.22403277709E+01  0.41917713124E+03  0.43411910395E+03  0.88766466026E+02 0.  0.
          5    1    3    3  502    0  0.49257713213E+01 -0.30194233691E+02  0.32158264537E+02  0.44634055936E+02  0.47000000000E+01 0. -1.
         -5    1    4    4    0  503 -0.85369178749E+01  0.28567050357E+02  0.11284569497E+03  0.11681265430E+03  0.47000000000E+01 0.  1.
          5    1    4    4  503    0  0.78289512804E+02 -0.26326722586E+02  0.30633143628E+03  0.31730644965E+03  0.47000000000E+01 0. -1.
         -5    1    3    3    0  502 -0.74678366250E+02  0.27953905920E+02  0.26467681704E+02  0.84148127827E+02  0.47000000000E+01 0.  1.
<mgrwt>
<rscale>  0 0.11422443E+03</rscale>
<asrwt>0</asrwt>
<pdfrwt beam="1">  1        2 0.80054177E-01 0.11466407E+03</pdfrwt>
<pdfrwt beam="2">  1       -2 0.65460165E-02 0.11466407E+03</pdfrwt>
<totfact> 0.72940705E+03</totfact>
</mgrwt>
</event>
<event>
 8    1  0.7366917E-004  0.1080489E+03  0.7546771E-02  0.1265368E+00
         -2   -1    0    0    0  501 -0.00000000000E+00  0.00000000000E+00  0.74111072192E+02  0.74111072192E+02  0.00000000000E+00 0.  1.
          2   -1    0    0  501    0  0.00000000000E+00 -0.00000000000E+00 -0.15415974733E+03  0.15415974733E+03  0.00000000000E+00 0. -1.
         23    2    1    2    0    0  0.38572924440E+02 -0.38490200048E+02 -0.43102535698E+02  0.11632885062E+03  0.93301698287E+02 0.  0.
         23    2    1    2    0    0 -0.38572924440E+02  0.38490200048E+02 -0.36946139442E+02  0.11194196890E+03  0.90535193062E+02 0.  0.
          5    1    4    4  502    0 -0.42735741998E+02  0.64137607336E+01 -0.58431713074E+02  0.72827433455E+02  0.47000000000E+01 0. -1.
         -5    1    3    3    0  503  0.46993368332E+02 -0.80923868292E+01  0.14864219238E+02  0.50168699459E+02  0.47000000000E+01 0.  1.
          5    1    3    3  503    0 -0.84204438923E+01 -0.30397813219E+02 -0.57966754936E+02  0.66160151161E+02  0.47000000000E+01 0. -1.
         -5    1    4    4    0  502  0.41628175574E+01  0.32076439314E+02  0.21485573632E+02  0.39114535449E+02  0.47000000000E+01 0.  1.
<mgrwt>
<rscale>  0 0.10744903E+03</rscale>
<asrwt>0</asrwt>
<pdfrwt beam="1">  1        2 0.23716884E-01 0.10804894E+03</pdfrwt>
<pdfrwt beam="2">  1       -2 0.11401704E-01 0.10804894E+03</pdfrwt>
<totfact> 0.11294440E+04</totfact>
</mgrwt>
</event>
<event>
 8    1  0.7366917E-004  0.1284686E+03  0.7546771E-02  0.1230632E+00
         -2   -1    0    0    0  501 -0.00000000000E+00  0.00000000000E+00  0.22651420021E+02  0.22651420021E+02  0.00000000000E+00 0.  1.
          2   -1    0    0  501    0  0.00000000000E+00 -0.00000000000E+00 -0.71766992106E+03  0.71766992106E+03  0.00000000000E+00 0. -1.
         23    2    1    2    0    0  0.40761610554E+02  0.77217453617E+02 -0.37114699426E+03  0.39275216803E+03  0.94234442228E+02 0.  0.
         23    2    1    2    0    0 -0.40761610554E+02 -0.77217453617E+02 -0.32387150678E+03  0.34756917305E+03  0.91035889169E+02 0.  0.
          5    1    4    4  502    0 -0.13809935431E+02 -0.54613408455E+02 -0.29884406011E+03  0.30414338882E+03  0.47000000000E+01 0. -1.
         -5    1    4    4    0  502 -0.26951675123E+02 -0.22604045162E+02 -0.25027446667E+02  0.43425784233E+02  0.47000000000E+01 0.  1.
          5    1    3    3  503    0  0.26769445899E+02  0.95797727866E+02 -0.24626672854E+03  0.26563734580E+03  0.47000000000E+01 0. -1.
         -5    1    3    3    0  503  0.13992164655E+02 -0.18580274249E+02 -0.12488026572E+03  0.12711482223E+03  0.47000000000E+01 0.  1.
<mgrwt>
<rscale>  0 0.12788271E+03</rscale>
<asrwt>0</asrwt>
<pdfrwt beam="1">  1        2 0.11041074E+00 0.12846857E+03</pdfrwt>
<pdfrwt beam="2">  1       -2 0.34848343E-02 0.12846857E+03</pdfrwt>
<totfact> 0.13071798E+04</totfact>
</mgrwt>
</event>
<event>
 8    1  0.7366917E-004  0.1025582E+03  0.7546771E-02  0.1277829E+00
         -2   -1    0    0    0  501 -0.00000000000E+00  0.00000000000E+00  0.13027736375E+02  0.13027736375E+02  0.00000000000E+00 0.  1.
          2   -1    0    0  501    0  0.00000000000E+00 -0.00000000000E+00 -0.79533492315E+03  0.79533492315E+03  0.00000000000E+00 0. -1.
         23    2    1    2    0    0  0.21675991252E+02  0.32566577451E+02 -0.32302605693E+03  0.33891595807E+03  0.94803811183E+02 0.  0.
         23    2    1    2    0    0 -0.21675991252E+02 -0.32566577451E+02 -0.45928112985E+03  0.46944670146E+03  0.88941659033E+02 0.  0.
          5    1    3    3  502    0 -0.35036064007E+02 -0.16478913610E+01 -0.13279455578E+03  0.13742898301E+03  0.47000000000E+01 0. -1.
         -5    1    3    3    0  502  0.56712055260E+02  0.34214468812E+02 -0.19023150116E+03  0.20148697506E+03  0.47000000000E+01 0.  1.
          5    1    4    4  503    0 -0.49379359439E+02 -0.27246719403E+01 -0.33286285909E+03  0.33654942866E+03  0.47000000000E+01 0. -1.
         -5    1    4    4    0  503  0.27703368186E+02 -0.29841905510E+02 -0.12641827076E+03  0.13289727279E+03  0.47000000000E+01 0.  1.
<mgrwt>
<rscale>  0 0.10118251E+03</rscale>
<asrwt>0</asrwt>
<pdfrwt beam="1">  1        2 0.12235929E+00 0.10255824E+03</pdfrwt>
<pdfrwt beam="2">  1       -2 0.20042659E-02 0.10255824E+03</pdfrwt>
<totfact> 0.25380569E+04</totfact>
</mgrwt>
</event>
<event>
 8    1  0.7366917E-004  0.1008834E+03  0.7546771E-02  0.1278476E+00
         -2   -1    0    0    0  501 -0.00000000000E+00  0.00000000000E+00  0.13105840275E+03  0.13105840275E+03  0.00000000000E+00 0.  1.
          2   -1    0    0  501    0  0.00000000000E+00 -0.00000000000E+00 -0.25605743071E+03  0.25605743071E+03  0.00000000000E+00 0. -1.
         23    2    1    2    0    0  0.15778423426E+02 -0.36447376010E+02  0.99085793971E+02  0.14136906224E+03  0.92681429252E+02 0.  0.
         23    2    1    2    0    0 -0.15778423426E+02  0.36447376010E+02 -0.22408482192E+03  0.24574677122E+03  0.92736714863E+02 0.  0.
          5    1    4    4  502    0  0.19737505439E+02 -0.11475677258E+02 -0.14348128856E+03  0.14536241074E+03  0.47000000000E+01 0. -1.
         -5    1    4    4    0  502 -0.35515928865E+02  0.47923053268E+02 -0.80603533362E+02  0.10038436048E+03  0.47000000000E+01 0.  1.
          5    1    3    3  503    0  0.11540611718E+02  0.28887179751E+02  0.15445772224E+02  0.35047350148E+02  0.47000000000E+01 0. -1.
         -5    1    3    3    0  503  0.42378117084E+01 -0.65334555761E+02  0.83640021747E+02  0.10632171209E+03  0.47000000000E+01 0.  1.
<mgrwt>
<rscale>  0 0.10087073E+03</rscale>
<asrwt>0</asrwt>
<pdfrwt beam="1">  1        2 0.39393450E-01 0.10088344E+03</pdfrwt>
<pdfrwt beam="2">  1       -2 0.20162832E-01 0.10088344E+03</pdfrwt>
<totfact> 0.25770106E+03</totfact>
</mgrwt>
</event>
<event>
 8    1  0.7366917E-004  0.1240823E+03  0.7546771E-02  0.1237242E+00
         -1   -1    0    0    0  501 -0.00000000000E+00  0.00000000000E+00  0.38356251467E+02  0.38356251467E+02  0.00000000000E+00 0.  1.
          1   -1    0    0  501    0  0.00000000000E+00 -0.00000000000E+00 -0.39684237345E+03  0.39684237345E+03  0.00000000000E+00 0. -1.
         23    2    1    2    0    0 -0.18641325944E+02  0.79674446257E+02 -0.16515029166E+03  0.20547019223E+03  0.90817755075E+02 0.  0.
         23    2    1    2    0    0  0.18641325944E+02 -0.79674446257E+02 -0.19333583031E+03  0.22972843269E+03  0.93278577832E+02 0.  0.
          5    1    4    4  502    0 -0.86299209171E+00 -0.94253755120E+02 -0.17520919326E+03  0.19900971461E+03  0.47000000000E+01 0. -1.
         -5    1    3    3    0  503 -0.52740257546E+01  0.50307771263E+02 -0.16692015804E+02  0.53473363357E+02  0.47000000000E+01 0.  1.
          5    1    3    3  503    0 -0.13367300190E+02  0.29366674994E+02 -0.14845827586E+03  0.15199682887E+03  0.47000000000E+01 0. -1.
         -5    1    4    4    0  502  0.19504318036E+02  0.14579308863E+02 -0.18126637058E+02  0.30718718072E+02  0.47000000000E+01 0.  1.
<mgrwt>
<rscale>  0 0.12361990E+03</rscale>
<asrwt>0</asrwt>
<pdfrwt beam="1">  1        1 0.61052670E-01 0.12408227E+03</pdfrwt>
<pdfrwt beam="2">  1       -1 0.59009620E-02 0.12408227E+03</pdfrwt>
<totfact> 0.79443802E+03</totfact>
</mgrwt>
</event>
<event>
 8    1  0.7366917E-004  0.1218743E+03  0.7546771E-02  0.1240228E+00
         -1   -1    0    0    0  501 -0.00000000000E+00  0.00000000000E+00  0.23202080473E+02  0.23202080473E+02  0.00000000000E+00 0.  1.
          1   -1    0    0  501    0  0.00000000000E+00 -0.00000000000E+00 -0.67326486281E+03  0.67326486281E+03  0.00000000000E+00 0. -1.
         23    2    1    2    0    0  0.44272358528E+02  0.67164462795E+02 -0.24558603452E+03  0.27416390199E+03  0.91554563036E+02 0.  0.
         23    2    1    2    0    0 -0.44272358528E+02 -0.67164462795E+02 -0.40447674781E+03  0.42230304129E+03  0.90924762116E+02 0.  0.
          5    1    3    3  502    0 -0.25039948309E+02  0.30511398023E+02 -0.11610241290E+03  0.12271839594E+03  0.47000000000E+01 0. -1.
         -5    1    3    3    0  502  0.69312306837E+02  0.36653064772E+02 -0.12948362162E+03  0.15144550606E+03  0.47000000000E+01 0.  1.
          5    1    4    4  503    0 -0.42791050490E+02 -0.20490767198E+00 -0.25267840408E+03  0.25631929673E+03  0.47000000000E+01 0. -1.
         -5    1    4    4    0  503 -0.14813080373E+01 -0.66959555123E+02 -0.15179834373E+03  0.16598374455E+03  0.47000000000E+01 0.  1.
<mgrwt>
<rscale>  0 0.12175603E+03</rscale>
<asrwt>0</asrwt>
<pdfrwt beam="1">  1        1 0.10357921E+00 0.12187430E+03</pdfrwt>
<pdfrwt beam="2">  1       -1 0.35695510E-02 0.12187430E+03</pdfrwt>
<totfact> 0.82945151E+03</totfact>
</mgrwt>
</event>
<event>
 8    1  0.7366917E-004  0.9568960E+02  0.7546771E-02  0.1292816E+00
          1   -1    0    0  501    0  0.00000000000E+00  0.00000000000E+00  0.50877007536E+03  0.50877007536E+03  0.00000000000E+00 0. -1.
         -1   -1    0    0    0  501 -0.00000000000E+00 -0.00000000000E+00 -0.17873584262E+02  0.17873584262E+02  0.00000000000E+00 0.  1.
         23    2    1    2    0    0 -0.14974113501E+02 -0.50643744257E+01  0.17939014533E+03  0.20077143937E+03  0.88760772091E+02 0.  0.
         23    2    1    2    0    0  0.14974113501E+02  0.50643744257E+01  0.31150634577E+03  0.32587222026E+03  0.94374935838E+02 0.  0.
          5    1    3    3  502    0  0.33363267015E+02  0.52443765924E+00  0.36152794617E+02  0.49421626636E+02  0.47000000000E+01 0. -1.
         -5    1    4    4    0  503 -0.21675206296E+02 -0.29195890301E+01  0.14926451378E+02  0.26892889744E+02  0.47000000000E+01 0.  1.
          5    1    4    4  503    0  0.36649319796E+02  0.79839634558E+01  0.29657989440E+03  0.29897933051E+03  0.47000000000E+01 0. -1.
         -5    1    3    3    0  502 -0.48337380516E+02 -0.55888120850E+01  0.14323735071E+03  0.15134981273E+03  0.47000000000E+01 0.  1.
<mgrwt>
<rscale>  0 0.94275501E+02</rscale>
<asrwt>0</asrwt>
<pdfrwt beam="1">  1        1 0.78272308E-01 0.95689605E+02</pdfrwt>
<pdfrwt beam="2">  1       -1 0.27497826E-02 0.95689605E+02</pdfrwt>
<totfact> 0.17300638E+04</totfact>
</mgrwt>
</event>
<event>
 8    1  0.7366917E-004  0.9596512E+02  0.7546771E-02  0.1289389E+00
         -1   -1    0    0    0  501 -0.00000000000E+00  0.00000000000E+00  0.41569704061E+02  0.41569704061E+02  0.00000000000E+00 0.  1.
          1   -1    0    0  501    0  0.00000000000E+00 -0.00000000000E+00 -0.27566188740E+03  0.27566188740E+03  0.00000000000E+00 0. -1.
         23    2    1    2    0    0 -0.28122032851E+01 -0.29951335220E+02 -0.18864424780E+03  0.21165055397E+03  0.91128007774E+02 0.  0.
         23    2    1    2    0    0  0.28122032851E+01  0.29951335220E+02 -0.45447935537E+02  0.10558103748E+03  0.90425934681E+02 0.  0.
          5    1    4    4  502    0 -0.34114945436E+02 -0.49177353407E+01 -0.41891382624E+02  0.54451736071E+02  0.47000000000E+01 0. -1.
         -5    1    4    4    0  502  0.36927148721E+02  0.34869070561E+02 -0.35565529125E+01  0.51129301414E+02  0.47000000000E+01 0.  1.
          5    1    3    3  503    0 -0.18360447953E+02 -0.50945859039E+02 -0.17184454101E+03  0.18023657475E+03  0.47000000000E+01 0. -1.
         -5    1    3    3    0  503  0.15548244668E+02  0.20994523819E+02 -0.16799706793E+02  0.31413979228E+02  0.47000000000E+01 0.  1.
<mgrwt>
<rscale>  0 0.95798079E+02</rscale>
<asrwt>0</asrwt>
<pdfrwt beam="1">  1        1 0.42409520E-01 0.95965123E+02</pdfrwt>
<pdfrwt beam="2">  1       -1 0.63953392E-02 0.95965123E+02</pdfrwt>
<totfact> 0.10838868E+04</totfact>
</mgrwt>
</event>
<event>
 8    1  0.7366917E-004  0.2145655E+03  0.7546771E-02  0.1138224E+00
          1   -1    0    0  501    0  0.00000000000E+00  0.00000000000E+00  0.12566200696E+03  0.12566200696E+03  0.00000000000E+00 0. -1.
         -1   -1    0    0    0  501 -0.00000000000E+00 -0.00000000000E+00 -0.12092751819E+04  0.12092751819E+04  0.00000000000E+00 0.  1.
         23    2    1    2    0    0  0.19318370468E+03 -0.19787216043E+02  0.15663821318E+02  0.21513651130E+03  0.91251769976E+02 0.  0.
         23    2    1    2    0    0 -0.19318370468E+03  0.19787216043E+02 -0.10992769963E+04  0.11198006776E+04  0.88499521403E+02 0.  0.
          5    1    4    4  502    0 -0.11189347806E+03 -0.31411452338E+02 -0.65270849119E+03  0.66299117207E+03  0.47000000000E+01 0. -1.
         -5    1    3    3    0  503  0.69869590742E+00 -0.21289159689E+02 -0.12365077708E+01  0.21848007865E+02  0.47000000000E+01 0.  1.
          5    1    3    3  503    0  0.19248500877E+03  0.15019436455E+01  0.16900329089E+02  0.19328850344E+03  0.47000000000E+01 0. -1.
         -5    1    4    4    0  502 -0.81290226617E+02  0.51198668381E+02 -0.44656850511E+03  0.45680950553E+03  0.47000000000E+01 0.  1.
<mgrwt>
<rscale>  0 0.21427595E+03</rscale>
<asrwt>0</asrwt>
<pdfrwt beam="1">  1        1 0.19332617E-01 0.21456552E+03</pdfrwt>
<pdfrwt beam="2">  1       -1 0.18604233E+00 0.21456552E+03</pdfrwt>
<totfact> 0.56396344E+01</totfact>
</mgrwt>
</event>
<event>
 8    1  0.7366917E-004  0.1032268E+03  0.7546771E-02  0.1274055E+00
          1   -1    0    0  501    0  0.00000000000E+00  0.00000000000E+00  0.65706058642E+03  0.65706058642E+03  0.00000000000E+00 0. -1.
         -1   -1    0    0    0  501 -0.00000000000E+00 -0.00000000000E+00 -0.16132479381E+02  0.16132479381E+02  0.00000000000E+00 0.  1.
         23    2    1    2    0    0  0.39833947699E+02  0.28423216076E+02  0.33594687103E+03  0.35121585815E+03  0.89986978280E+02 0.  0.
         23    2    1    2    0    0 -0.39833947699E+02 -0.28423216076E+02  0.30498123601E+03  0.32197720765E+03  0.90890842927E+02 0.  0.
          5    1    4    4  502    0  0.27479973251E+02 -0.50873462779E+01  0.12874607067E+03  0.13182818642E+03  0.47000000000E+01 0. -1.
         -5    1    3    3    0  503  0.26321498085E+02  0.53636391044E+02  0.12892248571E+03  0.14217166042E+03  0.47000000000E+01 0.  1.
          5    1    3    3  503    0  0.13512449614E+02 -0.25213174967E+02  0.20702438532E+03  0.20904419773E+03  0.47000000000E+01 0. -1.
         -5    1    4    4    0  502 -0.67313920950E+02 -0.23335869799E+02  0.17623516534E+03  0.19014902123E+03  0.47000000000E+01 0.  1.
<mgrwt>
<rscale>  0 0.10302746E+03</rscale>
<asrwt>0</asrwt>
<pdfrwt beam="1">  1        1 0.10108622E+00 0.10322678E+03</pdfrwt>
<pdfrwt beam="2">  1       -1 0.24819204E-02 0.10322678E+03</pdfrwt>
<totfact> 0.14351391E+04</totfact>
</mgrwt>
</event>
<event>
 8    1  0.7366917E-004  0.1205090E+03  0.7546771E-02  0.1242384E+00
          1   -1    0    0  501    0  0.00000000000E+00  0.00000000000E+00  0.68324633994E+03  0.68324633994E+03  0.00000000000E+00 0. -1.
         -1   -1    0    0    0  501 -0.00000000000E+00 -0.00000000000E+00 -0.28377794166E+02  0.28377794166E+02  0.00000000000E+00 0.  1.
         23    2    1    2    0    0  0.69487652973E+02 -0.31998368614E+02  0.14881384948E+03  0.19148888279E+03  0.93112839754E+02 0.  0.
         23    2    1    2    0    0 -0.69487652973E+02  0.31998368614E+02  0.50605469630E+03  0.52013525132E+03  0.92719439740E+02 0.  0.
          5    1    3    3  502    0  0.36476289189E+01  0.27348920109E+02  0.58532333260E+02  0.64879832496E+02  0.47000000000E+01 0. -1.
         -5    1    4    4    0  503 -0.60723618873E+02 -0.22218888169E+02  0.29020077803E+03  0.29735436511E+03  0.47000000000E+01 0.  1.
          5    1    4    4  503    0 -0.87640340995E+01  0.54217256783E+02  0.21585391827E+03  0.22278088620E+03  0.47000000000E+01 0. -1.
         -5    1    3    3    0  502  0.65840024054E+02 -0.59347288724E+02  0.90281516217E+02  0.12660905030E+03  0.47000000000E+01 0.  1.
<mgrwt>
<rscale>  0 0.12043305E+03</rscale>
<asrwt>0</asrwt>
<pdfrwt beam="1">  1        1 0.10511481E+00 0.12050905E+03</pdfrwt>
<pdfrwt beam="2">  1       -1 0.43658150E-02 0.12050905E+03</pdfrwt>
<totfact> 0.60469844E+03</totfact>
</mgrwt>
</event>
<event>
 8    1  0.7366917E-004  0.1351830E+03  0.7546771E-02  0.1220058E+00
         -1   -1    0    0    0  501 -0.00000000000E+00  0.00000000000E+00  0.48855629845E+02  0.48855629845E+02  0.00000000000E+00 0.  1.
          1   -1    0    0  501    0  0.00000000000E+00 -0.00000000000E+00 -0.37381959227E+03  0.37381959227E+03  0.00000000000E+00 0. -1.
         23    2    1    2    0    0  0.92653871541E+02  0.32503581632E+02 -0.17025386314E+03  0.21722532142E+03  0.92516158702E+02 0.  0.
         23    2    1    2    0    0 -0.92653871541E+02 -0.32503581632E+02 -0.15471009929E+03  0.20544990070E+03  0.92915144863E+02 0.  0.
          5    1    4    4  502    0 -0.16203515891E+02 -0.30579071776E+02 -0.24640958896E+01  0.35011359963E+02  0.47000000000E+01 0. -1.
         -5    1    3    3    0  503  0.10135987000E+02  0.45978627633E+02 -0.37993846518E+02  0.60682738935E+02  0.47000000000E+01 0.  1.
          5    1    3    3  503    0  0.82517884541E+02 -0.13475046001E+02 -0.13226001662E+03  0.15654258248E+03  0.47000000000E+01 0. -1.
         -5    1    4    4    0  502 -0.76450355650E+02 -0.19245098560E+01 -0.15224600340E+03  0.17043854074E+03  0.47000000000E+01 0.  1.
<mgrwt>
<rscale>  0 0.13511448E+03</rscale>
<asrwt>0</asrwt>
<pdfrwt beam="1">  1        1 0.57510709E-01 0.13518301E+03</pdfrwt>
<pdfrwt beam="2">  1       -1 0.75162504E-02 0.13518301E+03</pdfrwt>
<totfact> 0.59979720E+03</totfact>
</mgrwt>
</event>
<event>
 8    1  0.7366917E-004  0.1548768E+03  0.7546771E-02  0.1194798E+00
         -2   -1    0    0    0  501 -0.00000000000E+00  0.00000000000E+00  0.21376961922E+02  0.21376961922E+02  0.00000000000E+00 0.  1.
          2   -1    0    0  501    0  0.00000000000E+00 -0.00000000000E+00 -0.11174625408E+04  0.11174625408E+04  0.00000000000E+00 0. -1.
         23    2    1    2    0    0 -0.10210767466E+03 -0.71741922822E+02 -0.55235612691E+03  0.57348251276E+03  0.90620200793E+02 0.  0.
         23    2    1    2    0    0  0.10210767466E+03  0.71741922822E+02 -0.54372945199E+03  0.56535698999E+03  0.91727468342E+02 0.  0.
          5    1    4    4  502    0  0.89599777654E+02  0.37202252915E+02 -0.49340459624E+03  0.50287405318E+03  0.47000000000E+01 0. -1.
         -5    1    3    3    0  503 -0.49975556664E+02 -0.86258826572E+02 -0.36759538240E+03  0.38090234521E+03  0.47000000000E+01 0.  1.
          5    1    3    3  503    0 -0.52132117997E+02  0.14516903750E+02 -0.18476074452E+03  0.19258016756E+03  0.47000000000E+01 0. -1.
         -5    1    4    4    0  502  0.12507897007E+02  0.34539669907E+02 -0.50324855758E+02  0.62482936806E+02  0.47000000000E+01 0.  1.
<mgrwt>
<rscale>  0 0.15471319E+03</rscale>
<asrwt>0</asrwt>
<pdfrwt beam="1">  1        2 0.17191734E+00 0.15487675E+03</pdfrwt>
<pdfrwt beam="2">  1       -2 0.32887629E-02 0.15487675E+03</pdfrwt>
<totfact> 0.80415041E+03</totfact>
</mgrwt>
</event>
<event>
 8    1  0.7366917E-004  0.9497623E+02  0.7546771E-02  0.1292329E+00
         -1   -1    0    0    0  501 -0.00000000000E+00  0.00000000000E+00  0.73906456791E+02  0.73906456791E+02  0.00000000000E+00 0.  1.
          1   -1    0    0  501    0  0.00000000000E+00 -0.00000000000E+00 -0.17195368549E+03  0.17195368549E+03  0.00000000000E+00 0. -1.
         23    2    1    2    0    0 -0.19155712216E+02  0.63539032378E+01 -0.11651199044E+03  0.14910564893E+03  0.90830266047E+02 0.  0.
         23    2    1    2    0    0  0.19155712216E+02 -0.63539032378E+01  0.18464761741E+02  0.96754493349E+02  0.92807171922E+02 0.  0.
          5    1    4    4  502    0  0.37802069253E+02 -0.36429443646E+02 -0.66229210415E+01  0.53123007137E+02  0.47000000000E+01 0. -1.
         -5    1    4    4    0  502 -0.18646357037E+02  0.30075540408E+02  0.25087682783E+02  0.43631486211E+02  0.47000000000E+01 0.  1.
          5    1    3    3  503    0  0.35892126419E+02 -0.52793975075E+01 -0.46510847380E+02  0.59173183969E+02  0.47000000000E+01 0. -1.
         -5    1    3    3    0  503 -0.55047838635E+02  0.11633300745E+02 -0.70001143057E+02  0.89932464961E+02  0.47000000000E+01 0.  1.
<mgrwt>
<rscale>  0 0.94489805E+02</rscale>
<asrwt>0</asrwt>
<pdfrwt beam="1">  1        1 0.26454413E-01 0.94976232E+02</pdfrwt>
<pdfrwt beam="2">  1       -1 0.11370224E-01 0.94976232E+02</pdfrwt>
<totfact> 0.81515936E+03</totfact>
</mgrwt>
</event>
<event>
 8    1  0.7366917E-004  0.1061623E+03  0.7546771E-02  0.1268067E+00
          3   -1    0    0  501    0  0.00000000000E+00  0.00000000000E+00  0.19187716170E+03  0.19187716170E+03  0.00000000000E+00 0. -1.
         -3   -1    0    0    0  501 -0.00000000000E+00 -0.00000000000E+00 -0.12501064318E+03  0.12501064318E+03  0.00000000000E+00 0.  1.
         23    2    1    2    0    0  0.70478420601E+01 -0.54131564383E+02 -0.82114742264E+02  0.13421353009E+03  0.91052415801E+02 0.  0.
         23    2    1    2    0    0 -0.70478420601E+01  0.54131564383E+02  0.14898126079E+03  0.18267427478E+03  0.90523898845E+02 0.  0.
          5    1    4    4  502    0  0.24181199101E+02 -0.14761069721E+02  0.54016867533E+02  0.61176233517E+02  0.47000000000E+01 0. -1.
         -5    1    4    4    0  502 -0.31229041161E+02  0.68892634105E+02  0.94964393253E+02  0.12149804127E+03  0.47000000000E+01 0.  1.
          5    1    3    3  503    0  0.43444600511E+02 -0.29363056522E+02 -0.16716141692E+02  0.55237141445E+02  0.47000000000E+01 0. -1.
         -5    1    3    3    0  503 -0.36396758451E+02 -0.24768507861E+02 -0.65398600573E+02  0.78976388650E+02  0.47000000000E+01 0.  1.
<mgrwt>
<rscale>  0 0.10604891E+03</rscale>
<asrwt>0</asrwt>
<pdfrwt beam="1">  1        3 0.29519563E-01 0.10616233E+03</pdfrwt>
<pdfrwt beam="2">  1       -3 0.19232407E-01 0.10616233E+03</pdfrwt>
<totfact> 0.59331930E+02</totfact>
</mgrwt>
</event>
<event>
 8    1  0.7366917E-004  0.1011751E+03  0.7546771E-02  0.1278657E+00
          2   -1    0    0  501    0  0.00000000000E+00  0.00000000000E+00  0.31820340924E+03  0.31820340924E+03  0.00000000000E+00 0. -1.
         -2   -1    0    0    0  501 -0.00000000000E+00 -0.00000000000E+00 -0.37215450078E+02  0.37215450078E+02  0.00000000000E+00 0.  1.
         23    2    1    2    0    0  0.43727586727E+02  0.11422827560E+02  0.72862080053E+02  0.12468072073E+03  0.90519702721E+02 0.  0.
         23    2    1    2    0    0 -0.43727586727E+02 -0.11422827560E+02  0.20812587911E+03  0.23073813859E+03  0.88775696086E+02 0.  0.
          5    1    4    4  502    0 -0.69339683765E+02  0.28634091740E+01  0.15451342683E+03  0.16944816295E+03  0.47000000000E+01 0. -1.
         -5    1    3    3    0  503  0.55616149638E+02  0.40592127967E+02  0.54330818100E+02  0.87833961250E+02  0.47000000000E+01 0.  1.
          5    1    3    3  503    0 -0.11888562911E+02 -0.29169300407E+02  0.18531261953E+02  0.36846759476E+02  0.47000000000E+01 0. -1.
         -5    1    4    4    0  502  0.25612097038E+02 -0.14286236734E+02  0.53612452273E+02  0.61289975636E+02  0.47000000000E+01 0.  1.
<mgrwt>
<rscale>  0 0.10078350E+03</rscale>
<asrwt>0</asrwt>
<pdfrwt beam="1">  1        2 0.48954369E-01 0.10117509E+03</pdfrwt>
<pdfrwt beam="2">  1       -2 0.57254541E-02 0.10117509E+03</pdfrwt>
<totfact> 0.14930558E+04</totfact>
</mgrwt>
</event>
<event>
 8    1  0.7366917E-004  0.9399714E+02  0.7546771E-02  0.1295119E+00
          2   -1    0    0  501    0  0.00000000000E+00  0.00000000000E+00  0.68695003115E+02  0.68695003115E+02  0.00000000000E+00 0. -1.
         -2   -1    0    0    0  501 -0.00000000000E+00 -0.00000000000E+00 -0.22231344251E+03  0.22231344251E+03  0.00000000000E+00 0.  1.
         23    2    1    2    0    0 -0.95572850252E+01  0.70678558726E+01 -0.17254055803E+03  0.19512566083E+03  0.90346461273E+02 0.  0.
         23    2    1    2    0    0  0.95572850252E+01 -0.70678558726E+01  0.18922118629E+02  0.95882784801E+02  0.93242509426E+02 0.  0.
          5    1    4    4  502    0  0.36173624223E+02  0.95394557653E+01  0.42159259792E+02  0.56559928324E+02  0.47000000000E+01 0. -1.
         -5    1    4    4    0  502 -0.26616339198E+02 -0.16607311638E+02 -0.23237141163E+02  0.39322856478E+02  0.47000000000E+01 0.  1.
          5    1    3    3  503    0  0.31605601213E+02 -0.20449266482E+02 -0.10190003677E+03  0.10873267228E+03  0.47000000000E+01 0. -1.
         -5    1    3    3    0  503 -0.41162886238E+02  0.27517122355E+02 -0.70640521258E+02  0.86392988545E+02  0.47000000000E+01 0.  1.
<mgrwt>
<rscale>  0 0.93270745E+02</rscale>
<asrwt>0</asrwt>
<pdfrwt beam="1">  1        2 0.10568462E-01 0.93997137E+02</pdfrwt>
<pdfrwt beam="2">  1       -2 0.34202068E-01 0.93997137E+02</pdfrwt>
<totfact> 0.44501249E+03</totfact>
</mgrwt>
</event>
<event>
 8    1  0.7366917E-004  0.9941319E+02  0.7546771E-02  0.1281882E+00
         -1   -1    0    0    0  501 -0.00000000000E+00  0.00000000000E+00  0.57160341896E+03  0.57160341896E+03  0.00000000000E+00 0.  1.
          1   -1    0    0  501    0  0.00000000000E+00 -0.00000000000E+00 -0.30880519158E+02  0.30880519158E+02  0.00000000000E+00 0. -1.
         23    2    1    2    0    0 -0.19653544572E+02 -0.30192155344E+02  0.47054152218E+03  0.48079413668E+03  0.91955694295E+02 0.  0.
         23    2    1    2    0    0  0.19653544572E+02  0.30192155344E+02  0.70181377629E+02  0.12168980144E+03  0.92656105847E+02 0.  0.
          5    1    4    4  502    0  0.37568700893E+02 -0.10565790137E+02  0.10423754607E+01  0.39322000898E+02  0.47000000000E+01 0. -1.
         -5    1    3    3    0  503  0.10682044164E+02 -0.50014412183E+02  0.37504679195E+03  0.37854687114E+03  0.47000000000E+01 0.  1.
          5    1    3    3  503    0 -0.30335588735E+02  0.19822256839E+02  0.95494730224E+02  0.10224726554E+03  0.47000000000E+01 0. -1.
         -5    1    4    4    0  502 -0.17915156321E+02  0.40757945481E+02  0.69139002168E+02  0.82367800545E+02  0.47000000000E+01 0.  1.
<mgrwt>
<rscale>  0 0.99249666E+02</rscale>
<asrwt>0</asrwt>
<pdfrwt beam="1">  1        1 0.47508495E-02 0.99413188E+02</pdfrwt>
<pdfrwt beam="2">  1       -1 0.87938980E-01 0.99413188E+02</pdfrwt>
<totfact> 0.22734208E+03</totfact>
</mgrwt>
</event>
<event>
 8    1  0.7366917E-004  0.1052898E+03  0.7546771E-02  0.1270054E+00
          1   -1    0    0  501    0  0.00000000000E+00  0.00000000000E+00  0.14208670448E+03  0.14208670448E+03  0.00000000000E+00 0. -1.
         -1   -1    0    0    0  501 -0.00000000000E+00 -0.00000000000E+00 -0.17659519288E+03  0.17659519288E+03  0.00000000000E+00 0.  1.
         23    2    1    2    0    0 -0.49317885139E+02 -0.83814838941E+01 -0.13671837833E+03  0.17194132770E+03  0.91484436550E+02 0.  0.
         23    2    1    2    0    0  0.49317885139E+02  0.83814838941E+01  0.10220988994E+03  0.14674056966E+03  0.92646803052E+02 0.  0.
          5    1    4    4  502    0  0.68646163755E+02  0.26319958411E+02  0.53136194973E+02  0.90832710106E+02  0.47000000000E+01 0. -1.
         -5    1    3    3    0  503 -0.93195261586E+01 -0.27601997718E+02 -0.12112893669E+03  0.12467170147E+03  0.47000000000E+01 0.  1.
          5    1    3    3  503    0 -0.39998358980E+02  0.19220513824E+02 -0.15589441647E+02  0.47269626227E+02  0.47000000000E+01 0. -1.
         -5    1    4    4    0  502 -0.19328278616E+02 -0.17938474516E+02  0.49073694964E+02  0.55907859552E+02  0.47000000000E+01 0.  1.
<mgrwt>
<rscale>  0 0.10503349E+03</rscale>
<asrwt>0</asrwt>
<pdfrwt beam="1">  1        1 0.21859493E-01 0.10528976E+03</pdfrwt>
<pdfrwt beam="2">  1       -1 0.27168491E-01 0.10528976E+03</pdfrwt>
<totfact> 0.26338693E+03</totfact>
</mgrwt>
</event>
<event>
 8    1  0.7366917E-004  0.1526828E+03  0.7546771E-02  0.1197835E+00
          4   -1    0    0  501    0  0.00000000000E+00  0.00000000000E+00  0.17486820937E+03  0.17486820937E+03  0.00000000000E+00 0. -1.
         -4   -1    0    0    0  501 -0.00000000000E+00 -0.00000000000E+00 -0.23949604289E+03  0.23949604289E+03  0.00000000000E+00 0.  1.
         23    2    1    2    0    0  0.12040566623E+03 -0.19358786601E+02  0.10691259852E+03  0.18471633511E+03  0.88416817724E+02 0.  0.
         23    2    1    2    0    0 -0.12040566623E+03  0.19358786601E+02 -0.17154043203E+03  0.22964791715E+03  0.91868160702E+02 0.  0.
          5    1    4    4  502    0 -0.39489750144E+02  0.50568917871E+02 -0.57383447111E+02  0.86206762052E+02  0.47000000000E+01 0. -1.
         -5    1    4    4    0  502 -0.80915916083E+02 -0.31210131269E+02 -0.11415698492E+03  0.14344115510E+03  0.47000000000E+01 0.  1.
          5    1    3    3  503    0  0.10197483537E+03 -0.33670423453E+02  0.11698319932E+03  0.15887014630E+03  0.47000000000E+01 0. -1.
         -5    1    3    3    0  503  0.18430830860E+02  0.14311636852E+02 -0.10070600797E+02  0.25846188809E+02  0.47000000000E+01 0.  1.
<mgrwt>
<rscale>  0 0.15216737E+03</rscale>
<asrwt>0</asrwt>
<pdfrwt beam="1">  1        4 0.26902802E-01 0.15268283E+03</pdfrwt>
<pdfrwt beam="2">  1       -4 0.36845545E-01 0.15268283E+03</pdfrwt>
<totfact> 0.15930327E+02</totfact>
</mgrwt>
</event>
<event>
 8    1  0.7366917E-004  0.9482678E+02  0.7546771E-02  0.1292191E+00
         -2   -1    0    0    0  501 -0.00000000000E+00  0.00000000000E+00  0.18453802627E+02  0.18453802627E+02  0.00000000000E+00 0.  1.
          2   -1    0    0  501    0  0.00000000000E+00 -0.00000000000E+00 -0.48294720489E+03  0.48294720489E+03  0.00000000000E+00 0. -1.
         23    2    1    2    0    0  0.24530413065E+02 -0.99494824976E+01 -0.24659696222E+03  0.26420102152E+03  0.91057040518E+02 0.  0.
         23    2    1    2    0    0 -0.24530413065E+02  0.99494824976E+01 -0.21789644004E+03  0.23719998600E+03  0.89912409640E+02 0.  0.
          5    1    4    4  502    0 -0.25421276159E+01  0.27888282505E+02 -0.20267915020E+03  0.20465860999E+03  0.47000000000E+01 0. -1.
         -5    1    4    4    0  502 -0.21988285450E+02 -0.17938800008E+02 -0.15217289838E+02  0.32541376012E+02  0.47000000000E+01 0.  1.
          5    1    3    3  503    0 -0.25762646753E+02 -0.26449959852E+02 -0.64078553469E+02  0.74104421990E+02  0.47000000000E+01 0. -1.
         -5    1    3    3    0  503  0.50293059818E+02  0.16500477355E+02 -0.18251840875E+03  0.19009659953E+03  0.47000000000E+01 0.  1.
<mgrwt>
<rscale>  0 0.94550932E+02</rscale>
<asrwt>0</asrwt>
<pdfrwt beam="1">  1        2 0.74299568E-01 0.94826779E+02</pdfrwt>
<pdfrwt beam="2">  1       -2 0.28390466E-02 0.94826779E+02</pdfrwt>
<totfact> 0.26848297E+04</totfact>
</mgrwt>
</event>
<event>
 8    1  0.7366917E-004  0.9810162E+02  0.7546771E-02  0.1285430E+00
          3   -1    0    0  501    0  0.00000000000E+00  0.00000000000E+00  0.12708872028E+03  0.12708872028E+03  0.00000000000E+00 0. -1.
         -3   -1    0    0    0  501 -0.00000000000E+00 -0.00000000000E+00 -0.78894737665E+02  0.78894737665E+02  0.00000000000E+00 0.  1.
         23    2    1    2    0    0 -0.27843617509E+02 -0.10077057471E+02 -0.81814346302E+00  0.98105029038E+02  0.93526003018E+02 0.  0.
         23    2    1    2    0    0  0.27843617509E+02  0.10077057471E+02  0.49012126075E+02  0.10787842890E+03  0.91426215044E+02 0.  0.
          5    1    3    3  502    0 -0.16856878708E+01  0.36910520871E+02 -0.18115594263E+02  0.41418508545E+02  0.47000000000E+01 0. -1.
         -5    1    4    4    0  503  0.20998672577E+02  0.35619249552E+02 -0.10211748629E+02  0.42849095658E+02  0.47000000000E+01 0.  1.
          5    1    4    4  503    0  0.68449449321E+01 -0.25542192082E+02  0.59223874704E+02  0.65029333246E+02  0.47000000000E+01 0. -1.
         -5    1    3    3    0  502 -0.26157929638E+02 -0.46987578342E+02  0.17297450800E+02  0.56686520493E+02  0.47000000000E+01 0.  1.
<mgrwt>
<rscale>  0 0.97597810E+02</rscale>
<asrwt>0</asrwt>
<pdfrwt beam="1">  1        3 0.19552111E-01 0.98101618E+02</pdfrwt>
<pdfrwt beam="2">  1       -3 0.12137652E-01 0.98101618E+02</pdfrwt>
<totfact> 0.26735713E+03</totfact>
</mgrwt>
</event>
<event>
 8    1  0.1517090E-003  0.9043832E+02  0.7546771E-02  0.1309297E+00
          1   -1    0    0  501    0  0.00000000000E+00  0.00000000000E+00  0.34036921106E+03  0.34036921106E+03  0.00000000000E+00 0. -1.
         -1   -1    0    0    0  501 -0.00000000000E+00 -0.00000000000E+00 -0.43791514751E+02  0.43791514751E+02  0.00000000000E+00 0.  1.
         23    2    1    2    0    0  0.32515076748E+01  0.80343191360E+01  0.28167469667E+03  0.29250272352E+03  0.78371461247E+02 0.  0.
         23    2    1    2    0    0 -0.32515076748E+01 -0.80343191360E+01  0.14902999641E+02  0.91658002290E+02  0.90022038410E+02 0.  0.
          5    1    3    3  502    0  0.17548008690E+02 -0.28691591098E+02  0.18337240302E+03  0.18649039707E+03  0.47000000000E+01 0. -1.
         -5    1    3    3    0  502 -0.14296501015E+02  0.36725910234E+02  0.98302293650E+02  0.10601232646E+03  0.47000000000E+01 0.  1.
          5    1    4    4  503    0  0.73791176128E+01 -0.32444653059E+02  0.41725067409E+02  0.53574043521E+02  0.47000000000E+01 0. -1.
         -5    1    4    4    0  503 -0.10630625288E+02  0.24410333923E+02 -0.26822067768E+02  0.38083958770E+02  0.47000000000E+01 0.  1.
<mgrwt>
<rscale>  0 0.87390414E+02</rscale>
<asrwt>0</asrwt>
<pdfrwt beam="1">  1        1 0.52364492E-01 0.90438321E+02</pdfrwt>
<pdfrwt beam="2">  1       -1 0.67371563E-02 0.90438321E+02</pdfrwt>
<totfact> 0.77151908E+03</totfact>
</mgrwt>
</event>
<event>
 8    1  0.7366917E-004  0.1014492E+03  0.7546771E-02  0.1277789E+00
         -1   -1    0    0    0  501 -0.00000000000E+00  0.00000000000E+00  0.12033174342E+03  0.12033174342E+03  0.00000000000E+00 0.  1.
          1   -1    0    0  501    0  0.00000000000E+00 -0.00000000000E+00 -0.11223001898E+03  0.11223001898E+03  0.00000000000E+00 0. -1.
         23    2    1    2    0    0 -0.89530102732E+01 -0.43452924130E+02  0.61626305659E+02  0.11785855971E+03  0.90136150019E+02 0.  0.
         23    2    1    2    0    0  0.89530102732E+01  0.43452924130E+02 -0.53524581214E+02  0.11470320269E+03  0.91233935046E+02 0.  0.
          5    1    4    4  502    0  0.16295582792E+02 -0.26176915741E+02 -0.18653256741E+02  0.36342962500E+02  0.47000000000E+01 0. -1.
         -5    1    3    3    0  503 -0.39630975780E+02  0.52157054826E+01  0.12739645000E+02  0.42216186229E+02  0.47000000000E+01 0.  1.
          5    1    3    3  503    0  0.30677965507E+02 -0.48668629613E+02  0.48886660659E+02  0.75642373485E+02  0.47000000000E+01 0. -1.
         -5    1    4    4    0  502 -0.73425725183E+01  0.69629839871E+02 -0.34871324473E+02  0.78360240187E+02  0.47000000000E+01 0.  1.
<mgrwt>
<rscale>  0 0.10120179E+03</rscale>
<asrwt>0</asrwt>
<pdfrwt beam="1">  1        1 0.17266157E-01 0.10144922E+03</pdfrwt>
<pdfrwt beam="2">  1       -1 0.18512576E-01 0.10144922E+03</pdfrwt>
<totfact> 0.65712768E+03</totfact>
</mgrwt>
</event>
<event>
 8    1  0.7366917E-004  0.9949802E+02  0.7546771E-02  0.1281469E+00
         -1   -1    0    0    0  501 -0.00000000000E+00  0.00000000000E+00  0.68478322247E+02  0.68478322247E+02  0.00000000000E+00 0.  1.
          1   -1    0    0  501    0  0.00000000000E+00 -0.00000000000E+00 -0.14428305568E+03  0.14428305568E+03  0.00000000000E+00 0. -1.
         23    2    1    2    0    0  0.29033486974E+02 -0.28350028798E+02 -0.39317454804E+02  0.10678412651E+03  0.90610815712E+02 0.  0.
         23    2    1    2    0    0 -0.29033486974E+02  0.28350028798E+02 -0.36487278624E+02  0.10597725141E+03  0.90847062784E+02 0.  0.
          5    1    4    4  502    0 -0.24102967231E+02 -0.26678805993E+02 -0.35167203748E+02  0.50512710657E+02  0.47000000000E+01 0. -1.
         -5    1    4    4    0  502 -0.49305197431E+01  0.55028834790E+02 -0.13200748765E+01  0.55464540754E+02  0.47000000000E+01 0.  1.
          5    1    3    3  503    0 -0.19266013902E+02 -0.21667412284E+02  0.15547111078E+02  0.33233397503E+02  0.47000000000E+01 0. -1.
         -5    1    3    3    0  503  0.48299500876E+02 -0.66826165138E+01 -0.54864565882E+02  0.73550729009E+02  0.47000000000E+01 0.  1.
<mgrwt>
<rscale>  0 0.99444063E+02</rscale>
<asrwt>0</asrwt>
<pdfrwt beam="1">  1        1 0.22197393E-01 0.99498022E+02</pdfrwt>
<pdfrwt beam="2">  1       -1 0.10535127E-01 0.99498022E+02</pdfrwt>
<totfact> 0.11434167E+04</totfact>
</mgrwt>
</event>
<event>
 8    1  0.7366917E-004  0.9857588E+02  0.7546771E-02  0.1285415E+00
         -1   -1    0    0    0  501 -0.00000000000E+00  0.00000000000E+00  0.18621171086E+02  0.18621171086E+02  0.00000000000E+00 0.  1.
          1   -1    0    0  501    0  0.00000000000E+00 -0.00000000000E+00 -0.75559422755E+03  0.75559422755E+03  0.00000000000E+00 0. -1.
         23    2    1    2    0    0  0.18679823427E+02  0.16757718666E+02 -0.13930501246E+03  0.16847263540E+03  0.91364027072E+02 0.  0.
         23    2    1    2    0    0 -0.18679823427E+02 -0.16757718666E+02 -0.59766804400E+03  0.60574276324E+03  0.95328104232E+02 0.  0.
          5    1    4    4  502    0  0.84808723025E+01 -0.52469942007E+02 -0.33772117867E+03  0.34191037500E+03  0.47000000000E+01 0. -1.
         -5    1    3    3    0  503  0.42031833699E+02  0.34086225213E+02 -0.47845680742E+02  0.72386773370E+02  0.47000000000E+01 0.  1.
          5    1    3    3  503    0 -0.23352010272E+02 -0.17328506547E+02 -0.91459331718E+02  0.96085862026E+02  0.47000000000E+01 0. -1.
         -5    1    4    4    0  502 -0.27160695729E+02  0.35712223342E+02 -0.25994686533E+03  0.26383238824E+03  0.47000000000E+01 0.  1.
<mgrwt>
<rscale>  0 0.97604595E+02</rscale>
<asrwt>0</asrwt>
<pdfrwt beam="1">  1        1 0.11624525E+00 0.98575881E+02</pdfrwt>
<pdfrwt beam="2">  1       -1 0.28647959E-02 0.98575881E+02</pdfrwt>
<totfact> 0.95423470E+03</totfact>
</mgrwt>
</event>
<event>
 8    1  0.7366917E-004  0.1112086E+03  0.7546771E-02  0.1259346E+00
         -2   -1    0    0    0  501 -0.00000000000E+00  0.00000000000E+00  0.12884884031E+02  0.12884884031E+02  0.00000000000E+00 0.  1.
          2   -1    0    0  501    0  0.00000000000E+00 -0.00000000000E+00 -0.11644883164E+04  0.11644883164E+04  0.00000000000E+00 0. -1.
         23    2    1    2    0    0  0.59390069126E+02 -0.16475461515E+02 -0.32262901984E+03  0.34125772204E+03  0.92567420126E+02 0.  0.
         23    2    1    2    0    0 -0.59390069126E+02  0.16475461515E+02 -0.82897441252E+03  0.83611547838E+03  0.89954963337E+02 0.  0.
          5    1    3    3  502    0 -0.19426854222E+02 -0.24709080279E+02 -0.96552137613E+02  0.10164815095E+03  0.47000000000E+01 0. -1.
         -5    1    3    3    0  502  0.78816923348E+02  0.82336187642E+01 -0.22607688223E+03  0.23960957110E+03  0.47000000000E+01 0.  1.
          5    1    4    4  503    0 -0.39911159158E+02  0.53488794343E+02 -0.49629367355E+03  0.50078283931E+03  0.47000000000E+01 0. -1.
         -5    1    4    4    0  503 -0.19478909968E+02 -0.37013332828E+02 -0.33268073897E+03  0.33533263906E+03  0.47000000000E+01 0.  1.
<mgrwt>
<rscale>  0 0.11066335E+03</rscale>
<asrwt>0</asrwt>
<pdfrwt beam="1">  1        2 0.17915202E+00 0.11120858E+03</pdfrwt>
<pdfrwt beam="2">  1       -2 0.19822902E-02 0.11120858E+03</pdfrwt>
<totfact> 0.15564446E+04</totfact>
</mgrwt>
</event>
<event>
 8    1  0.7366917E-004  0.9122644E+02  0.7546771E-02  0.1301388E+00
          1   -1    0    0  501    0  0.00000000000E+00  0.00000000000E+00  0.67834944267E+02  0.67834944267E+02  0.00000000000E+00 0. -1.
         -1   -1    0    0    0  501 -0.00000000000E+00 -0.00000000000E+00 -0.13915533963E+03  0.13915533963E+03  0.00000000000E+00 0.  1.
         23    2    1    2    0    0  0.51908929059E+01  0.13865850111E+01 -0.75061821584E+02  0.11813780024E+03  0.91068077819E+02 0.  0.
         23    2    1    2    0    0 -0.51908929059E+01 -0.13865850111E+01  0.37414262247E+01  0.88852483657E+02  0.88610933833E+02 0.  0.
          5    1    3    3  502    0  0.37549639098E+02 -0.11802539254E+02 -0.72694810159E+02  0.82800366867E+02  0.47000000000E+01 0.  1.
         -5    1    4    4    0  503 -0.98878216871E+01 -0.24749963154E+02 -0.34316356652E+02  0.43703913185E+02  0.47000000000E+01 0.  1.
          5    1    4    4  503    0  0.46969287811E+01  0.23363378143E+02  0.38057782876E+02  0.45148570472E+02  0.47000000000E+01 0. -1.
         -5    1    3    3    0  502 -0.32358746192E+02  0.13189124265E+02 -0.23670114251E+01  0.35337433368E+02  0.47000000000E+01 0. -1.
<mgrwt>
<rscale>  0 0.90606965E+02</rscale>
<asrwt>0</asrwt>
<pdfrwt beam="1">  1        1 0.10436145E-01 0.91226437E+02</pdfrwt>
<pdfrwt beam="2">  1       -1 0.21408514E-01 0.91226437E+02</pdfrwt>
<totfact> 0.98921562E+03</totfact>
</mgrwt>
</event>
<event>
 8    1  0.7366917E-004  0.1238287E+03  0.7546771E-02  0.1237061E+00
         -1   -1    0    0    0  501 -0.00000000000E+00  0.00000000000E+00  0.49581192061E+02  0.49581192061E+02  0.00000000000E+00 0.  1.
          1   -1    0    0  501    0  0.00000000000E+00 -0.00000000000E+00 -0.65118698430E+03  0.65118698430E+03  0.00000000000E+00 0. -1.
         23    2    1    2    0    0 -0.83024859733E+02  0.10605128524E+02 -0.46773588719E+02  0.13236806535E+03  0.91257547846E+02 0.  0.
         23    2    1    2    0    0  0.83024859733E+02 -0.10605128524E+02 -0.55483220351E+03  0.56840011100E+03  0.90743132234E+02 0.  0.
          5    1    3    3  502    0 -0.56456623023E+02 -0.19436410691E+02 -0.64719660467E+02  0.88180773384E+02  0.47000000000E+01 0. -1.
         -5    1    4    4    0  503  0.30436419124E+02 -0.46027993545E+02 -0.18388498543E+03  0.19204356189E+03  0.47000000000E+01 0.  1.
          5    1    4    4  503    0  0.52588440609E+02  0.35422865021E+02 -0.37094721809E+03  0.37635654911E+03  0.47000000000E+01 0. -1.
         -5    1    3    3    0  502 -0.26568236711E+02  0.30041539216E+02  0.17946071748E+02  0.44187291969E+02  0.47000000000E+01 0.  1.
<mgrwt>
<rscale>  0 0.12373389E+03</rscale>
<asrwt>0</asrwt>
<pdfrwt beam="1">  1        1 0.10018260E+00 0.12382866E+03</pdfrwt>
<pdfrwt beam="2">  1       -1 0.76278766E-02 0.12382866E+03</pdfrwt>
<totfact> 0.28297548E+03</totfact>
</mgrwt>
</event>
<event>
 8    1  0.7366917E-004  0.1263866E+03  0.7546771E-02  0.1235013E+00
          1   -1    0    0  501    0  0.00000000000E+00  0.00000000000E+00  0.62154254324E+02  0.62154254324E+02  0.00000000000E+00 0. -1.
         -1   -1    0    0    0  501 -0.00000000000E+00 -0.00000000000E+00 -0.26987958087E+03  0.26987958087E+03  0.00000000000E+00 0.  1.
         23    2    1    2    0    0  0.82177846786E+02  0.11821157864E+02 -0.56840968584E+02  0.13858019735E+03  0.95292376983E+02 0.  0.
         23    2    1    2    0    0 -0.82177846786E+02 -0.11821157864E+02 -0.15088435797E+03  0.19345363785E+03  0.88120838874E+02 0.  0.
          5    1    4    4  502    0 -0.63813942153E+02  0.64477862473E+01 -0.32270322478E+02  0.71953157495E+02  0.47000000000E+01 0. -1.
         -5    1    3    3    0  503  0.97566890110E+02  0.28904481554E+02 -0.52899701931E+02  0.11478342896E+03  0.47000000000E+01 0.  1.
          5    1    3    3  503    0 -0.15389043325E+02 -0.17083323689E+02 -0.39412666530E+01  0.23796768384E+02  0.47000000000E+01 0. -1.
         -5    1    4    4    0  502 -0.18363904632E+02 -0.18268944112E+02 -0.11861403549E+03  0.12150048036E+03  0.47000000000E+01 0.  1.
<mgrwt>
<rscale>  0 0.12503625E+03</rscale>
<asrwt>0</asrwt>
<pdfrwt beam="1">  1        1 0.95621930E-02 0.12638661E+03</pdfrwt>
<pdfrwt beam="2">  1       -1 0.41519935E-01 0.12638661E+03</pdfrwt>
<totfact> 0.37612040E+03</totfact>
</mgrwt>
</event>
<event>
 8    1  0.7366917E-004  0.9384867E+02  0.7546771E-02  0.1294005E+00
          1   -1    0    0  501    0  0.00000000000E+00  0.00000000000E+00  0.61909121435E+03  0.61909121435E+03  0.00000000000E+00 0. -1.
         -1   -1    0    0    0  501 -0.00000000000E+00 -0.00000000000E+00 -0.26660743257E+02  0.26660743257E+02  0.00000000000E+00 0.  1.
         23    2    1    2    0    0 -0.71637892925E+01 -0.14057118353E+02  0.75528693910E+02  0.12046640882E+03  0.92512969890E+02 0.  0.
         23    2    1    2    0    0  0.71637892925E+01  0.14057118353E+02  0.51690177718E+03  0.52528554878E+03  0.92133262460E+02 0.  0.
          5    1    4    4  502    0 -0.38960291123E+02  0.19216535544E+02  0.18319290502E+03  0.18833191437E+03  0.47000000000E+01 0. -1.
         -5    1    3    3    0  503 -0.30187066597E+02  0.28987248550E+02  0.20768357277E+02  0.46956727230E+02  0.47000000000E+01 0.  1.
          5    1    3    3  503    0  0.23023277304E+02 -0.43044366903E+02  0.54760336632E+02  0.73509681593E+02  0.47000000000E+01 0. -1.
         -5    1    4    4    0  502  0.46124080415E+02 -0.51594171913E+01  0.33370887216E+03  0.33695363441E+03  0.47000000000E+01 0.  1.
<mgrwt>
<rscale>  0 0.93754955E+02</rscale>
<asrwt>0</asrwt>
<pdfrwt beam="1">  1        1 0.95244791E-01 0.93848666E+02</pdfrwt>
<pdfrwt beam="2">  1       -1 0.41016533E-02 0.93848666E+02</pdfrwt>
<totfact> 0.74749681E+03</totfact>
</mgrwt>
</event>
<event>
 8    1  0.7366917E-004  0.9925978E+02  0.7546771E-02  0.1283243E+00
          1   -1    0    0  501    0  0.00000000000E+00  0.00000000000E+00  0.28174696796E+03  0.28174696796E+03  0.00000000000E+00 0. -1.
         -1   -1    0    0    0  501 -0.00000000000E+00 -0.00000000000E+00 -0.41351342444E+02  0.41351342444E+02  0.00000000000E+00 0.  1.
         23    2    1    2    0    0  0.98025269250E+01 -0.27347417608E+02  0.53712514317E+02  0.11286070265E+03  0.94913293195E+02 0.  0.
         23    2    1    2    0    0 -0.98025269250E+01  0.27347417608E+02  0.18668311120E+03  0.21023760776E+03  0.92224166692E+02 0.  0.
          5    1    4    4  502    0  0.23180888426E+02 -0.21178059723E+02  0.10403315977E+03  0.10876972067E+03  0.47000000000E+01 0. -1.
         -5    1    4    4    0  502 -0.32983415351E+02  0.48525477331E+02  0.82649951432E+02  0.10146788709E+03  0.47000000000E+01 0.  1.
          5    1    3    3  503    0 -0.27636738610E+01 -0.56063047961E+02  0.75018867883E+01  0.56824920108E+02  0.47000000000E+01 0. -1.
         -5    1    3    3    0  503  0.12566200786E+02  0.28715630353E+02  0.46210627528E+02  0.56035782544E+02  0.47000000000E+01 0.  1.
<mgrwt>
<rscale>  0 0.98611413E+02</rscale>
<asrwt>0</asrwt>
<pdfrwt beam="1">  1        1 0.43345686E-01 0.99259780E+02</pdfrwt>
<pdfrwt beam="2">  1       -1 0.63617452E-02 0.99259780E+02</pdfrwt>
<totfact> 0.10667286E+04</totfact>
</mgrwt>
</event>
<event>
 8    1  0.7366917E-004  0.9444461E+02  0.7546771E-02  0.1294989E+00
          1   -1    0    0  501    0  0.00000000000E+00  0.00000000000E+00  0.10260559293E+03  0.10260559293E+03  0.00000000000E+00 0. -1.
         -1   -1    0    0    0  501 -0.00000000000E+00 -0.00000000000E+00 -0.88445413305E+02  0.88445413305E+02  0.00000000000E+00 0.  1.
         23    2    1    2    0    0  0.92402569478E+01  0.13252401845E+02 -0.16593912987E+02  0.95891309058E+02  0.93052548066E+02 0.  0.
         23    2    1    2    0    0 -0.92402569478E+01 -0.13252401845E+02  0.30754092607E+02  0.95159697173E+02  0.88592015728E+02 0.  0.
          5    1    4    4  502    0  0.92250843888E+01 -0.48429958953E+02  0.22081211700E+02  0.54223915539E+02  0.47000000000E+01 0.  1.
         -5    1    3    3    0  503  0.37715369551E+02  0.14376527028E+02 -0.41259516755E+02  0.57910028084E+02  0.47000000000E+01 0.  1.
          5    1    3    3  503    0 -0.28475112604E+02 -0.11241251834E+01  0.24665603768E+02  0.37981280975E+02  0.47000000000E+01 0. -1.
         -5    1    4    4    0  502 -0.18465341337E+02  0.35177557108E+02  0.86728809071E+01  0.40935781634E+02  0.47000000000E+01 0. -1.
<mgrwt>
<rscale>  0 0.93327046E+02</rscale>
<asrwt>0</asrwt>
<pdfrwt beam="1">  1        1 0.15785476E-01 0.94444614E+02</pdfrwt>
<pdfrwt beam="2">  1       -1 0.13606987E-01 0.94444614E+02</pdfrwt>
<totfact> 0.11836117E+04</totfact>
</mgrwt>
</event>
<event>
 8    1  0.7366917E-004  0.2014100E+03  0.7546771E-02  0.1148700E+00
         -1   -1    0    0    0  501 -0.00000000000E+00  0.00000000000E+00  0.62532911289E+02  0.62532911289E+02  0.00000000000E+00 0.  1.
          1   -1    0    0  501    0  0.00000000000E+00 -0.00000000000E+00 -0.14278697116E+04  0.14278697116E+04  0.00000000000E+00 0. -1.
         23    2    1    2    0    0 -0.17803394755E+03  0.11395187229E+02 -0.12344683543E+04  0.12507909970E+04  0.93488307466E+02 0.  0.
         23    2    1    2    0    0  0.17803394755E+03 -0.11395187229E+02 -0.13086844601E+03  0.23961162589E+03  0.91985022310E+02 0.  0.
          5    1    4    4  502    0  0.37442198614E+02  0.22570953817E+02  0.77768025760E+00  0.43977960160E+02  0.47000000000E+01 0. -1.
         -5    1    4    4    0  502  0.14059174893E+03 -0.33966141046E+02 -0.13164612627E+03  0.19563366573E+03  0.47000000000E+01 0.  1.
          5    1    3    3  503    0 -0.11860734418E+03 -0.38306563714E+01 -0.10415539547E+04  0.10483029651E+04  0.47000000000E+01 0. -1.
         -5    1    3    3    0  503 -0.59426603369E+02  0.15225843601E+02 -0.19291439959E+03  0.20248803192E+03  0.47000000000E+01 0.  1.
<mgrwt>
<rscale>  0 0.20123647E+03</rscale>
<asrwt>0</asrwt>
<pdfrwt beam="1">  1        1 0.21967223E+00 0.20141003E+03</pdfrwt>
<pdfrwt beam="2">  1       -1 0.96204492E-02 0.20141003E+03</pdfrwt>
<totfact> 0.52360883E+02</totfact>
</mgrwt>
</event>
<event>
 8    1  0.7366917E-004  0.9598637E+02  0.7546771E-02  0.1289655E+00
          2   -1    0    0  501    0  0.00000000000E+00  0.00000000000E+00  0.36581958082E+03  0.36581958082E+03  0.00000000000E+00 0. -1.
         -2   -1    0    0    0  501 -0.00000000000E+00 -0.00000000000E+00 -0.38243357756E+02  0.38243357756E+02  0.00000000000E+00 0.  1.
         23    2    1    2    0    0  0.22960455973E+02  0.20265349695E+02  0.28259520680E+03  0.29805975459E+03  0.89675523213E+02 0.  0.
         23    2    1    2    0    0 -0.22960455973E+02 -0.20265349695E+02  0.44981016263E+02  0.10600318398E+03  0.90969864537E+02 0.  0.
          5    1    4    4  502    0  0.91580581801E+01 -0.42021532382E+02  0.50544449844E+02  0.66532027050E+02  0.47000000000E+01 0. -1.
         -5    1    3    3    0  503 -0.29935633983E+02 -0.59268993600E+01  0.14522937323E+03  0.14847535542E+03  0.47000000000E+01 0.  1.
          5    1    3    3  503    0  0.52896089955E+02  0.26192249055E+02  0.13736583356E+03  0.14958439917E+03  0.47000000000E+01 0. -1.
         -5    1    4    4    0  502 -0.32118514153E+02  0.21756182687E+02 -0.55634335803E+01  0.39471156934E+02  0.47000000000E+01 0.  1.
<mgrwt>
<rscale>  0 0.95678442E+02</rscale>
<asrwt>0</asrwt>
<pdfrwt beam="1">  1        2 0.56279933E-01 0.95986370E+02</pdfrwt>
<pdfrwt beam="2">  1       -2 0.58835937E-02 0.95986370E+02</pdfrwt>
<totfact> 0.12322058E+04</totfact>
</mgrwt>
</event>
<event>
 8    1  0.7366917E-004  0.9600334E+02  0.7546771E-02  0.1290168E+00
          2   -1    0    0  501    0  0.00000000000E+00  0.00000000000E+00  0.38894040495E+03  0.38894040495E+03  0.00000000000E+00 0. -1.
         -2   -1    0    0    0  501 -0.00000000000E+00 -0.00000000000E+00 -0.38402681552E+02  0.38402681552E+02  0.00000000000E+00 0.  1.
         23    2    1    2    0    0 -0.21385928858E+02 -0.61415269426E+01  0.30866735040E+03  0.32260642287E+03  0.91127902230E+02 0.  0.
         23    2    1    2    0    0  0.21385928858E+02  0.61415269426E+01  0.41870372989E+02  0.10473666363E+03  0.93389315596E+02 0.  0.
          5    1    3    3  502    0 -0.10467759358E+02 -0.47007807618E+02  0.20306053799E+03  0.20874620967E+03  0.47000000000E+01 0. -1.
         -5    1    3    3    0  502 -0.10918169500E+02  0.40866280675E+02  0.10560681242E+03  0.11386021320E+03  0.47000000000E+01 0.  1.
          5    1    4    4  503    0  0.22653572651E+02  0.41879094696E+02 -0.20695344691E+01  0.47889622042E+02  0.47000000000E+01 0. -1.
         -5    1    4    4    0  503 -0.12676437929E+01 -0.35737567753E+02  0.43939907458E+02  0.56847041587E+02  0.47000000000E+01 0.  1.
<mgrwt>
<rscale>  0 0.95448959E+02</rscale>
<asrwt>0</asrwt>
<pdfrwt beam="1">  1        2 0.59836983E-01 0.96003336E+02</pdfrwt>
<pdfrwt beam="2">  1       -2 0.59081051E-02 0.96003336E+02</pdfrwt>
<totfact> 0.11481335E+04</totfact>
</mgrwt>
</event>
<event>
 8    1  0.7366917E-004  0.1270892E+03  0.7546771E-02  0.1246823E+00
          1   -1    0    0  501    0  0.00000000000E+00  0.00000000000E+00  0.19879505911E+02  0.19879505911E+02  0.00000000000E+00 0. -1.
         -1   -1    0    0    0  501 -0.00000000000E+00 -0.00000000000E+00 -0.62677283960E+03  0.62677283960E+03  0.00000000000E+00 0.  1.
         23    2    1    2    0    0  0.11011923094E+02 -0.98612787197E+01 -0.21139764118E+03  0.23123869591E+03  0.92541150407E+02 0.  0.
         23    2    1    2    0    0 -0.11011923094E+02  0.98612787197E+01 -0.39549569250E+03  0.41541364960E+03  0.12622658285E+03 0.  0.
          5    1    3    3  502    0  0.37796555584E+02 -0.36536671678E+02 -0.14967095851E+03  0.15870410774E+03  0.47000000000E+01 0. -1.
         -5    1    3    3    0  502 -0.26784632490E+02  0.26675392958E+02 -0.61726682672E+02  0.72534588168E+02  0.47000000000E+01 0.  1.
          5    1    4    4  503    0  0.42848636289E+02 -0.86912163984E+01 -0.30653005800E+03  0.30966806315E+03  0.47000000000E+01 0.  1.
         -5    1    4    4    0  503 -0.53860559384E+02  0.18552495118E+02 -0.88965634497E+02  0.10574558645E+03  0.47000000000E+01 0.  1.
<mgrwt>
<rscale>  0 0.11776952E+03</rscale>
<asrwt>0</asrwt>
<pdfrwt beam="1">  1        1 0.30583858E-02 0.12708917E+03</pdfrwt>
<pdfrwt beam="2">  1       -1 0.96426581E-01 0.12708917E+03</pdfrwt>
<totfact> 0.34683845E+03</totfact>
</mgrwt>
</event>
<event>
 8    1  0.7366917E-004  0.1010344E+03  0.7546771E-02  0.1281275E+00
         -2   -1    0    0    0  501 -0.00000000000E+00  0.00000000000E+00  0.21733808225E+02  0.21733808225E+02  0.00000000000E+00 0.  1.
          2   -1    0    0  501    0  0.00000000000E+00 -0.00000000000E+00 -0.46186487872E+03  0.46186487872E+03  0.00000000000E+00 0. -1.
         23    2    1    2    0    0  0.18490766210E+02  0.18008766675E+02 -0.16469011325E+03  0.19021211611E+03  0.91605630837E+02 0.  0.
         23    2    1    2    0    0 -0.18490766210E+02 -0.18008766675E+02 -0.27544095724E+03  0.29338657083E+03  0.97681804372E+02 0.  0.
          5    1    4    4  502    0 -0.11501255133E+02 -0.53758610204E+02 -0.10067976523E+03  0.11480754403E+03  0.47000000000E+01 0. -1.
         -5    1    3    3    0  503 -0.89429717236E+01  0.39882714734E+02 -0.29923132007E+02  0.50873288737E+02  0.47000000000E+01 0.  1.
          5    1    3    3  503    0  0.27433737933E+02 -0.21873948059E+02 -0.13476698125E+03  0.13933882738E+03  0.47000000000E+01 0. -1.
         -5    1    4    4    0  502 -0.69895110767E+01  0.35749843530E+02 -0.17476119201E+03  0.17857902680E+03  0.47000000000E+01 0.  1.
<mgrwt>
<rscale>  0 0.99535965E+02</rscale>
<asrwt>0</asrwt>
<pdfrwt beam="1">  1        2 0.71056139E-01 0.10103444E+03</pdfrwt>
<pdfrwt beam="2">  1       -2 0.33436626E-02 0.10103444E+03</pdfrwt>
<totfact> 0.22333555E+04</totfact>
</mgrwt>
</event>
<event>
 8    1  0.7366917E-004  0.1833822E+03  0.7546771E-02  0.1164586E+00
         -2   -1    0    0    0  501 -0.00000000000E+00  0.00000000000E+00  0.52539414033E+02  0.52539414033E+02  0.00000000000E+00 0.  1.
          2   -1    0    0  501    0  0.00000000000E+00 -0.00000000000E+00 -0.11247416721E+04  0.11247416721E+04  0.00000000000E+00 0. -1.
         23    2    1    2    0    0  0.15540688826E+03 -0.30586845914E+02 -0.14953817395E+03  0.23656962662E+03  0.92285788232E+02 0.  0.
         23    2    1    2    0    0 -0.15540688826E+03  0.30586845914E+02 -0.92266408408E+03  0.94071145948E+03  0.92423924823E+02 0.  0.
          5    1    4    4  502    0 -0.95137971815E+02  0.20473263526E+02 -0.77098441272E+03  0.77711610642E+03  0.47000000000E+01 0. -1.
         -5    1    3    3    0  503  0.75616622804E+02 -0.40803605328E+02 -0.12607766657E+03  0.15264493394E+03  0.47000000000E+01 0.  1.
          5    1    3    3  503    0  0.79790265455E+02  0.10216759415E+02 -0.23460507388E+02  0.83924692679E+02  0.47000000000E+01 0. -1.
         -5    1    4    4    0  502 -0.60268916443E+02  0.10113582388E+02 -0.15167967136E+03  0.16359535306E+03  0.47000000000E+01 0.  1.
<mgrwt>
<rscale>  0 0.18336482E+03</rscale>
<asrwt>0</asrwt>
<pdfrwt beam="1">  1        2 0.17303718E+00 0.18338222E+03</pdfrwt>
<pdfrwt beam="2">  1       -2 0.80829867E-02 0.18338222E+03</pdfrwt>
<totfact> 0.20501153E+03</totfact>
</mgrwt>
</event>
<event>
 8    1  0.7366917E-004  0.1033226E+03  0.7546771E-02  0.1277501E+00
          2   -1    0    0  501    0  0.00000000000E+00  0.00000000000E+00  0.60654577488E+02  0.60654577488E+02  0.00000000000E+00 0. -1.
         -2   -1    0    0    0  501 -0.00000000000E+00 -0.00000000000E+00 -0.19541947991E+03  0.19541947991E+03  0.00000000000E+00 0.  1.
         23    2    1    2    0    0 -0.37275435065E+02 -0.15157764005E+02 -0.11721690144E+03  0.15127192271E+03  0.86742012593E+02 0.  0.
         23    2    1    2    0    0  0.37275435065E+02  0.15157764005E+02 -0.17548000985E+02  0.10480213469E+03  0.95164800364E+02 0.  0.
          5    1    4    4  502    0  0.43869977613E+01  0.44284348118E+02  0.17861040008E+02  0.48181490095E+02  0.47000000000E+01 0. -1.
         -5    1    4    4    0  502  0.32888437304E+02 -0.29126584113E+02 -0.35409040993E+02  0.56620644596E+02  0.47000000000E+01 0.  1.
          5    1    3    3  503    0 -0.19034663237E+02  0.33214263541E+02 -0.75099683606E+02  0.84424867100E+02  0.47000000000E+01 0. -1.
         -5    1    3    3    0  503 -0.18240771828E+02 -0.48372027546E+02 -0.42117217835E+02  0.66847055612E+02  0.47000000000E+01 0.  1.
<mgrwt>
<rscale>  0 0.10134092E+03</rscale>
<asrwt>0</asrwt>
<pdfrwt beam="1">  1        2 0.93314736E-02 0.10332258E+03</pdfrwt>
<pdfrwt beam="2">  1       -2 0.30064535E-01 0.10332258E+03</pdfrwt>
<totfact> 0.65848347E+03</totfact>
</mgrwt>
</event>
<event>
 8    1  0.7366917E-004  0.1257688E+03  0.7546771E-02  0.1234828E+00
          1   -1    0    0  501    0  0.00000000000E+00  0.00000000000E+00  0.10815233356E+03  0.10815233356E+03  0.00000000000E+00 0. -1.
         -1   -1    0    0    0  501 -0.00000000000E+00 -0.00000000000E+00 -0.16031611577E+03  0.16031611577E+03  0.00000000000E+00 0.  1.
         23    2    1    2    0    0 -0.82927978798E+02  0.91678737548E+01 -0.69870063519E+02  0.14387362907E+03  0.94110019605E+02 0.  0.
         23    2    1    2    0    0  0.82927978798E+02 -0.91678737548E+01  0.17706281309E+02  0.12459482026E+03  0.90825421890E+02 0.  0.
          5    1    4    4  502    0  0.90920262997E+02 -0.32269571126E+02  0.51858312912E+01  0.96730565439E+02  0.47000000000E+01 0. -1.
         -5    1    4    4    0  502 -0.79922841983E+01  0.23101697371E+02  0.12520450018E+02  0.27864254822E+02  0.47000000000E+01 0.  1.
          5    1    3    3  503    0  0.20919640447E+02  0.69289854520E+00 -0.12833689263E+02  0.24998100827E+02  0.47000000000E+01 0. -1.
         -5    1    3    3    0  503 -0.10384761925E+03  0.84749752096E+01 -0.57036374256E+02  0.11887552825E+03  0.47000000000E+01 0.  1.
<mgrwt>
<rscale>  0 0.12515470E+03</rscale>
<asrwt>0</asrwt>
<pdfrwt beam="1">  1        1 0.16638821E-01 0.12576882E+03</pdfrwt>
<pdfrwt beam="2">  1       -1 0.24664018E-01 0.12576882E+03</pdfrwt>
<totfact> 0.44086570E+03</totfact>
</mgrwt>
</event>
<event>
 8    1  0.7366917E-004  0.1011137E+03  0.7546771E-02  0.1278094E+00
         -1   -1    0    0    0  501 -0.00000000000E+00  0.00000000000E+00  0.25314360283E+02  0.25314360283E+02  0.00000000000E+00 0.  1.
          1   -1    0    0  501    0  0.00000000000E+00 -0.00000000000E+00 -0.46141792987E+03  0.46141792987E+03  0.00000000000E+00 0. -1.
         23    2    1    2    0    0  0.24594478602E+02 -0.37382686206E+02 -0.30447137315E+03  0.32074731306E+03  0.90408341245E+02 0.  0.
         23    2    1    2    0    0 -0.24594478602E+02  0.37382686206E+02 -0.13163219644E+03  0.16598497709E+03  0.90673170637E+02 0.  0.
          5    1    4    4  502    0 -0.44800228064E+02  0.42614233421E+02 -0.13059062024E+03  0.14456497992E+03  0.47000000000E+01 0. -1.
         -5    1    4    4    0  502  0.20205749462E+02 -0.52315472152E+01 -0.10415761984E+01  0.21419997166E+02  0.47000000000E+01 0.  1.
          5    1    3    3  503    0 -0.27573134655E+02 -0.34702690652E+02 -0.97016029610E+02  0.10676494975E+03  0.47000000000E+01 0. -1.
         -5    1    3    3    0  503  0.52167613257E+02 -0.26799955542E+01 -0.20745534354E+03  0.21398236332E+03  0.47000000000E+01 0.  1.
<mgrwt>
<rscale>  0 0.10105428E+03</rscale>
<asrwt>0</asrwt>
<pdfrwt beam="1">  1        1 0.70987372E-01 0.10111369E+03</pdfrwt>
<pdfrwt beam="2">  1       -1 0.38945171E-02 0.10111369E+03</pdfrwt>
<totfact> 0.11907558E+04</totfact>
</mgrwt>
</event>
<event>
 8    1  0.7366917E-004  0.1111478E+03  0.7546771E-02  0.1258825E+00
         -1   -1    0    0    0  501 -0.00000000000E+00  0.00000000000E+00  0.67748954325E+02  0.67748954325E+02  0.00000000000E+00 0.  1.
          1   -1    0    0  501    0  0.00000000000E+00 -0.00000000000E+00 -0.27295686292E+03  0.27295686292E+03  0.00000000000E+00 0. -1.
         23    2    1    2    0    0  0.34387808525E+02  0.51465580048E+02 -0.20121405589E+03  0.22948624577E+03  0.91354328866E+02 0.  0.
         23    2    1    2    0    0 -0.34387808525E+02 -0.51465580048E+02 -0.39938526977E+01  0.11121957147E+03  0.92318009697E+02 0.  0.
          5    1    3    3  502    0  0.56796853450E+02  0.60871226872E+01 -0.12919175248E+03  0.14133483128E+03  0.47000000000E+01 0. -1.
         -5    1    3    3    0  502 -0.22409044925E+02  0.45378457361E+02 -0.72022303410E+02  0.88151414483E+02  0.47000000000E+01 0.  1.
          5    1    4    4  503    0 -0.34636593625E+02 -0.76996275395E+02  0.19724192384E+01  0.84581915800E+02  0.47000000000E+01 0. -1.
         -5    1    4    4    0  503  0.24878510087E+00  0.25530695347E+02 -0.59662719361E+01  0.26637655673E+02  0.47000000000E+01 0.  1.
<mgrwt>
<rscale>  0 0.11094752E+03</rscale>
<asrwt>0</asrwt>
<pdfrwt beam="1">  1        1 0.41993364E-01 0.11114784E+03</pdfrwt>
<pdfrwt beam="2">  1       -1 0.10422916E-01 0.11114784E+03</pdfrwt>
<totfact> 0.53335315E+03</totfact>
</mgrwt>
</event>
<event>
 8    1  0.7366917E-004  0.8530080E+02  0.7546771E-02  0.1324319E+00
          3   -1    0    0  501    0  0.00000000000E+00  0.00000000000E+00  0.87331795686E+02  0.87331795686E+02  0.00000000000E+00 0. -1.
         -3   -1    0    0    0  501 -0.00000000000E+00 -0.00000000000E+00 -0.74613195507E+02  0.74613195507E+02  0.00000000000E+00 0.  1.
         23    2    1    2    0    0 -0.93902683871E+01  0.10266027101E+02  0.24527370356E+02  0.75830684452E+02  0.70392701007E+02 0.  0.
         23    2    1    2    0    0  0.93902683871E+01 -0.10266027101E+02 -0.11808770177E+02  0.86114306741E+02  0.84158530878E+02 0.  0.
          5    1    3    3  502    0 -0.38481458958E+02  0.15565168362E+02  0.15501031516E+02  0.44558603297E+02  0.47000000000E+01 0. -1.
         -5    1    3    3    0  502  0.29091190571E+02 -0.52991412615E+01  0.90263388395E+01  0.31272081155E+02  0.47000000000E+01 0.  1.
          5    1    4    4  503    0 -0.28300792080E+02 -0.26499627673E+02 -0.20192018884E+02  0.43965585698E+02  0.47000000000E+01 0. -1.
         -5    1    4    4    0  503  0.37691060467E+02  0.16233600572E+02  0.83832487063E+01  0.42148721043E+02  0.47000000000E+01 0.  1.
<mgrwt>
<rscale>  0 0.81691532E+02</rscale>
<asrwt>0</asrwt>
<pdfrwt beam="1">  1        3 0.13435661E-01 0.85300802E+02</pdfrwt>
<pdfrwt beam="2">  1       -3 0.11478953E-01 0.85300802E+02</pdfrwt>
<totfact> 0.53989845E+03</totfact>
</mgrwt>
</event>
<event>
 8    1  0.7366917E-004  0.1754437E+03  0.7546771E-02  0.1172551E+00
         -1   -1    0    0    0  501 -0.00000000000E+00  0.00000000000E+00  0.76520991803E+02  0.76520991803E+02  0.00000000000E+00 0.  1.
          1   -1    0    0  501    0  0.00000000000E+00 -0.00000000000E+00 -0.47966790450E+03  0.47966790450E+03  0.00000000000E+00 0. -1.
         23    2    1    2    0    0  0.13929196946E+03 -0.51759590729E+02 -0.88629997371E+02  0.19655983293E+03  0.93269413514E+02 0.  0.
         23    2    1    2    0    0 -0.13929196946E+03  0.51759590729E+02 -0.31451691532E+03  0.35962906337E+03  0.91273573436E+02 0.  0.
          5    1    4    4  502    0 -0.12901869073E+03  0.71899948322E+02 -0.24227773363E+03  0.28378868078E+03  0.47000000000E+01 0. -1.
         -5    1    4    4    0  502 -0.10273278735E+02 -0.20140357593E+02 -0.72239181695E+02  0.75840382594E+02  0.47000000000E+01 0.  1.
          5    1    3    3  503    0  0.50213936737E+02  0.26294286120E+02 -0.30640307614E+02  0.64604546093E+02  0.47000000000E+01 0. -1.
         -5    1    3    3    0  503  0.89078032727E+02 -0.78053876849E+02 -0.57989689757E+02  0.13195528684E+03  0.47000000000E+01 0.  1.
<mgrwt>
<rscale>  0 0.17517990E+03</rscale>
<asrwt>0</asrwt>
<pdfrwt beam="1">  1        1 0.73795063E-01 0.17544370E+03</pdfrwt>
<pdfrwt beam="2">  1       -1 0.11772460E-01 0.17544370E+03</pdfrwt>
<totfact> 0.22247841E+03</totfact>
</mgrwt>
</event>
<event>
 8    1  0.7366917E-004  0.1170115E+03  0.7546771E-02  0.1249145E+00
         -1   -1    0    0    0  501 -0.00000000000E+00  0.00000000000E+00  0.36048939840E+02  0.36048939840E+02  0.00000000000E+00 0.  1.
          1   -1    0    0  501    0  0.00000000000E+00 -0.00000000000E+00 -0.48697408269E+03  0.48697408269E+03  0.00000000000E+00 0. -1.
         23    2    1    2    0    0  0.59398942471E+02  0.37124552595E+02 -0.10021658021E+03  0.15406187030E+03  0.93729558622E+02 0.  0.
         23    2    1    2    0    0 -0.59398942471E+02 -0.37124552595E+02 -0.35070856264E+03  0.36896115223E+03  0.90715870570E+02 0.  0.
          5    1    3    3  502    0  0.47567346629E+02 -0.77920974482E+01 -0.95575957075E+02  0.10714580169E+03  0.47000000000E+01 0. -1.
         -5    1    3    3    0  502  0.11831595842E+02  0.44916650043E+02 -0.46406231349E+01  0.46916068615E+02  0.47000000000E+01 0.  1.
          5    1    4    4  503    0 -0.37588614467E+02 -0.50324215563E+02 -0.32950330568E+03  0.33546974389E+03  0.47000000000E+01 0. -1.
         -5    1    4    4    0  503 -0.21810328004E+02  0.13199662968E+02 -0.21205256964E+02  0.33491408346E+02  0.47000000000E+01 0.  1.
<mgrwt>
<rscale>  0 0.11640689E+03</rscale>
<asrwt>0</asrwt>
<pdfrwt beam="1">  1        1 0.74919089E-01 0.11701152E+03</pdfrwt>
<pdfrwt beam="2">  1       -1 0.55459908E-02 0.11701152E+03</pdfrwt>
<totfact> 0.66879231E+03</totfact>
</mgrwt>
</event>
<event>
 8    1  0.7366917E-004  0.1055777E+03  0.7546771E-02  0.1270249E+00
         -1   -1    0    0    0  501 -0.00000000000E+00  0.00000000000E+00  0.54414943679E+02  0.54414943679E+02  0.00000000000E+00 0.  1.
          1   -1    0    0  501    0  0.00000000000E+00 -0.00000000000E+00 -0.23243658077E+03  0.23243658077E+03  0.00000000000E+00 0. -1.
         23    2    1    2    0    0  0.38868178339E+02 -0.30410526848E+02 -0.14170872241E+03  0.17520355322E+03  0.90439966964E+02 0.  0.
         23    2    1    2    0    0 -0.38868178339E+02  0.30410526848E+02 -0.36312914681E+02  0.11164797122E+03  0.93333307428E+02 0.  0.
          5    1    3    3  502    0 -0.81046775543E+01 -0.48815902135E+02 -0.89962387245E+02  0.10278131746E+03  0.47000000000E+01 0. -1.
         -5    1    4    4    0  503  0.30456627032E+02  0.39738038385E+01 -0.79057260227E+01  0.32062248067E+02  0.47000000000E+01 0.  1.
          5    1    4    4  503    0 -0.69324805371E+02  0.26436723010E+02 -0.28407188658E+02  0.79585723158E+02  0.47000000000E+01 0. -1.
         -5    1    3    3    0  502  0.46972855893E+02  0.18405375287E+02 -0.51746335161E+02  0.72422235762E+02  0.47000000000E+01 0.  1.
<mgrwt>
<rscale>  0 0.10493458E+03</rscale>
<asrwt>0</asrwt>
<pdfrwt beam="1">  1        1 0.35759474E-01 0.10557766E+03</pdfrwt>
<pdfrwt beam="2">  1       -1 0.83715297E-02 0.10557766E+03</pdfrwt>
<totfact> 0.90137810E+03</totfact>
</mgrwt>
</event>
<event>
 8    1  0.7366917E-004  0.9559641E+02  0.7546771E-02  0.1292296E+00
          1   -1    0    0  501    0  0.00000000000E+00  0.00000000000E+00  0.51177352059E+03  0.51177352059E+03  0.00000000000E+00 0. -1.
         -1   -1    0    0    0  501 -0.00000000000E+00 -0.00000000000E+00 -0.11141133044E+03  0.11141133044E+03  0.00000000000E+00 0.  1.
         23    2    1    2    0    0 -0.78092829740E+01  0.23692618695E+02 -0.87251065027E+02  0.12628912808E+03  0.87828642485E+02 0.  0.
         23    2    1    2    0    0  0.78092829740E+01 -0.23692618695E+02  0.48761325517E+03  0.49689572295E+03  0.92284060297E+02 0.  0.
          5    1    3    3  502    0  0.33983847018E+02  0.33568322401E+02 -0.42905321771E+02  0.64379272777E+02  0.47000000000E+01 0. -1.
         -5    1    3    3    0  502 -0.41793129992E+02 -0.98757037061E+01 -0.44345743256E+02  0.61909855299E+02  0.47000000000E+01 0.  1.
          5    1    4    4  503    0  0.27432957876E+02  0.23740665840E+02  0.30369660320E+03  0.30589197961E+03  0.47000000000E+01 0. -1.
         -5    1    4    4    0  503 -0.19623674902E+02 -0.47433284535E+02  0.18391665197E+03  0.19100374334E+03  0.47000000000E+01 0.  1.
<mgrwt>
<rscale>  0 0.94504429E+02</rscale>
<asrwt>0</asrwt>
<pdfrwt beam="1">  1        1 0.78734387E-01 0.95596406E+02</pdfrwt>
<pdfrwt beam="2">  1       -1 0.17140205E-01 0.95596406E+02</pdfrwt>
<totfact> 0.11226449E+03</totfact>
</mgrwt>
</event>
<event>
 8    1  0.7366917E-004  0.1037399E+03  0.7546771E-02  0.1273627E+00
         -2   -1    0    0    0  501 -0.00000000000E+00  0.00000000000E+00  0.16403773265E+03  0.16403773265E+03  0.00000000000E+00 0.  1.
          2   -1    0    0  501    0  0.00000000000E+00 -0.00000000000E+00 -0.13267371978E+03  0.13267371978E+03  0.00000000000E+00 0. -1.
         23    2    1    2    0    0 -0.25597738602E+02 -0.37586503306E+02  0.12221040767E+03  0.16030395036E+03  0.93241532073E+02 0.  0.
         23    2    1    2    0    0  0.25597738602E+02  0.37586503306E+02 -0.90846394802E+02  0.13640750207E+03  0.91027192199E+02 0.  0.
          5    1    4    4  502    0  0.17464721654E+01  0.42923811779E+02 -0.10074471638E+03  0.10962249614E+03  0.47000000000E+01 0. -1.
         -5    1    3    3    0  503  0.15883330095E+01 -0.47686870698E+02  0.12182672034E+03  0.13092135130E+03  0.47000000000E+01 0.  1.
          5    1    3    3  503    0 -0.27186071612E+02  0.10100367392E+02  0.38368733665E+00  0.29382599053E+02  0.47000000000E+01 0. -1.
         -5    1    4    4    0  502  0.23851266437E+02 -0.53373084725E+01  0.98983215761E+01  0.26785005925E+02  0.47000000000E+01 0.  1.
<mgrwt>
<rscale>  0 0.10323992E+03</rscale>
<asrwt>0</asrwt>
<pdfrwt beam="1">  1        2 0.20411342E-01 0.10373993E+03</pdfrwt>
<pdfrwt beam="2">  1       -2 0.25236574E-01 0.10373993E+03</pdfrwt>
<totfact> 0.35814793E+03</totfact>
</mgrwt>
</event>
<event>
 8    1  0.7366917E-004  0.1168440E+03  0.7546771E-02  0.1248701E+00
         -1   -1    0    0    0  501 -0.00000000000E+00  0.00000000000E+00  0.27950333446E+02  0.27950333446E+02  0.00000000000E+00 0.  1.
          1   -1    0    0  501    0  0.00000000000E+00 -0.00000000000E+00 -0.55616164677E+03  0.55616164677E+03  0.00000000000E+00 0. -1.
         23    2    1    2    0    0 -0.18039195247E+02 -0.71476591672E+02 -0.15929611930E+03  0.19713532554E+03  0.89737212056E+02 0.  0.
         23    2    1    2    0    0  0.18039195247E+02  0.71476591672E+02 -0.36891519402E+03  0.38697665468E+03  0.90654261701E+02 0.  0.
          5    1    4    4  502    0 -0.24023849234E+02  0.69905701059E+02 -0.25015869815E+03  0.26089349673E+03  0.47000000000E+01 0. -1.
         -5    1    4    4    0  502  0.42063044481E+02  0.15708906122E+01 -0.11875649587E+03  0.12608315795E+03  0.47000000000E+01 0.  1.
          5    1    3    3  503    0  0.58497068184E+01 -0.29219180323E+02 -0.14234093402E+03  0.14550261533E+03  0.47000000000E+01 0. -1.
         -5    1    3    3    0  503 -0.23888902066E+02 -0.42257411349E+02 -0.16955185282E+02  0.51632710211E+02  0.47000000000E+01 0.  1.
<mgrwt>
<rscale>  0 0.11666604E+03</rscale>
<asrwt>0</asrwt>
<pdfrwt beam="1">  1        1 0.85563330E-01 0.11684396E+03</pdfrwt>
<pdfrwt beam="2">  1       -1 0.43000513E-02 0.11684396E+03</pdfrwt>
<totfact> 0.81750944E+03</totfact>
</mgrwt>
</event>
<event>
 8    1  0.7366917E-004  0.9607260E+02  0.7546771E-02  0.1292407E+00
         -2   -1    0    0    0  501 -0.00000000000E+00  0.00000000000E+00  0.33178965909E+02  0.33178965909E+02  0.00000000000E+00 0.  1.
          2   -1    0    0  501    0  0.00000000000E+00 -0.00000000000E+00 -0.26140482748E+03  0.26140482748E+03  0.00000000000E+00 0. -1.
         23    2    1    2    0    0  0.30488952345E+02 -0.67417833555E+01 -0.12785957726E+03  0.15993128649E+03  0.90856574035E+02 0.  0.
         23    2    1    2    0    0 -0.30488952345E+02  0.67417833555E+01 -0.10036628431E+03  0.13465250690E+03  0.84159840353E+02 0.  0.
          5    1    3    3  502    0 -0.83805858827E+01 -0.28214810170E+02 -0.10619556103E+03  0.11029912473E+03  0.47000000000E+01 0. -1.
         -5    1    4    4    0  503  0.28357513366E+02  0.46616641896E+01 -0.45571903964E+02  0.54081125249E+02  0.47000000000E+01 0.  1.
          5    1    4    4  503    0 -0.58846465711E+02  0.20801191659E+01 -0.54794380351E+02  0.80571381647E+02  0.47000000000E+01 0. -1.
         -5    1    3    3    0  502  0.38869538227E+02  0.21473026814E+02 -0.21664016223E+02  0.49632161765E+02  0.47000000000E+01 0.  1.
<mgrwt>
<rscale>  0 0.94455542E+02</rscale>
<asrwt>0</asrwt>
<pdfrwt beam="1">  1        2 0.40216127E-01 0.96072602E+02</pdfrwt>
<pdfrwt beam="2">  1       -2 0.51044563E-02 0.96072602E+02</pdfrwt>
<totfact> 0.21672667E+04</totfact>
</mgrwt>
</event>
<event>
 8    1  0.7366917E-004  0.1001973E+03  0.7546771E-02  0.1281135E+00
         -1   -1    0    0    0  501 -0.00000000000E+00  0.00000000000E+00  0.43006697840E+03  0.43006697840E+03  0.00000000000E+00 0.  1.
          1   -1    0    0  501    0  0.00000000000E+00 -0.00000000000E+00 -0.50270849112E+02  0.50270849112E+02  0.00000000000E+00 0. -1.
         23    2    1    2    0    0 -0.27712319151E+02 -0.31577377931E+02  0.36846544583E+03  0.38184589530E+03  0.90963726639E+02 0.  0.
         23    2    1    2    0    0  0.27712319151E+02  0.31577377931E+02  0.11330683466E+02  0.98491932211E+02  0.88358207842E+02 0.  0.
          5    1    3    3  502    0 -0.58963226008E+02 -0.72029808785E+01  0.24224945167E+03  0.24947030242E+03  0.47000000000E+01 0. -1.
         -5    1    4    4    0  503  0.42544982925E+02  0.51059258915E+02  0.23626071939E+02  0.70692324677E+02  0.47000000000E+01 0.  1.
          5    1    4    4  503    0 -0.14832663774E+02 -0.19481880984E+02 -0.12295388473E+02  0.27799607533E+02  0.47000000000E+01 0. -1.
         -5    1    3    3    0  502  0.31250906857E+02 -0.24374397052E+02  0.12621599415E+03  0.13237559288E+03  0.47000000000E+01 0.  1.
<mgrwt>
<rscale>  0 0.99602212E+02</rscale>
<asrwt>0</asrwt>
<pdfrwt beam="1">  1        1 0.77339771E-02 0.10019732E+03</pdfrwt>
<pdfrwt beam="2">  1       -1 0.66164148E-01 0.10019732E+03</pdfrwt>
<totfact> 0.20898587E+03</totfact>
</mgrwt>
</event>
<event>
 8    1  0.7366917E-004  0.1006955E+03  0.7546771E-02  0.1288727E+00
         -3   -1    0    0    0  501 -0.00000000000E+00  0.00000000000E+00  0.19226877942E+03  0.19226877942E+03  0.00000000000E+00 0.  1.
          3   -1    0    0  501    0  0.00000000000E+00 -0.00000000000E+00 -0.44633058426E+02  0.44633058426E+02  0.00000000000E+00 0. -1.
         23    2    1    2    0    0  0.38386084615E+02 -0.52682216266E+01  0.93206449867E+02  0.13721162244E+03  0.92942677945E+02 0.  0.
         23    2    1    2    0    0 -0.38386084615E+02  0.52682216266E+01  0.54429271123E+02  0.99690215405E+02  0.73988835924E+02 0.  0.
          5    1    4    4  502    0 -0.56116655771E+02 -0.88515141011E+01  0.24993575852E+02  0.62243049336E+02  0.47000000000E+01 0. -1.
         -5    1    4    4    0  502  0.17730571156E+02  0.14119735728E+02  0.29435695271E+02  0.37447166069E+02  0.47000000000E+01 0.  1.
          5    1    3    3  503    0  0.38072483672E+01 -0.24234861447E+02 -0.97854265775E+01  0.26826632714E+02  0.47000000000E+01 0. -1.
         -5    1    3    3    0  503  0.34578836247E+02  0.18966639820E+02  0.10299187644E+03  0.11038498972E+03  0.47000000000E+01 0.  1.
<mgrwt>
<rscale>  0 0.96095986E+02</rscale>
<asrwt>0</asrwt>
<pdfrwt beam="1">  1        3 0.68666244E-02 0.10069552E+03</pdfrwt>
<pdfrwt beam="2">  1       -3 0.29579812E-01 0.10069552E+03</pdfrwt>
<totfact> 0.32479254E+03</totfact>
</mgrwt>
</event>
<event>
 8    1  0.7366917E-004  0.1380605E+03  0.7546771E-02  0.1216156E+00
         -2   -1    0    0    0  501 -0.00000000000E+00  0.00000000000E+00  0.31876722851E+02  0.31876722851E+02  0.00000000000E+00 0.  1.
          2   -1    0    0  501    0  0.00000000000E+00 -0.00000000000E+00 -0.60396924766E+03  0.60396924766E+03  0.00000000000E+00 0. -1.
         23    2    1    2    0    0  0.21012724892E+02  0.10165924546E+03 -0.32424381649E+03  0.35241276464E+03  0.91019598755E+02 0.  0.
         23    2    1    2    0    0 -0.21012724892E+02 -0.10165924546E+03 -0.24784870832E+03  0.28343320587E+03  0.90162426639E+02 0.  0.
          5    1    4    4  502    0  0.15036384914E+02 -0.34783761869E+02 -0.17121266122E+03  0.17541912188E+03  0.47000000000E+01 0. -1.
         -5    1    3    3    0  503 -0.99838903492E+01  0.55004808371E+02 -0.59539215918E+02  0.81805960923E+02  0.47000000000E+01 0.  1.
          5    1    3    3  503    0  0.30996615241E+02  0.46654437091E+02 -0.26470460057E+03  0.27060680372E+03  0.47000000000E+01 0. -1.
         -5    1    4    4    0  502 -0.36049109806E+02 -0.66875483593E+02 -0.76636047104E+02  0.10801408399E+03  0.47000000000E+01 0.  1.
<mgrwt>
<rscale>  0 0.13791939E+03</rscale>
<asrwt>0</asrwt>
<pdfrwt beam="1">  1        2 0.92918333E-01 0.13806051E+03</pdfrwt>
<pdfrwt beam="2">  1       -2 0.49041119E-02 0.13806051E+03</pdfrwt>
<totfact> 0.96612420E+03</totfact>
</mgrwt>
</event>
<event>
 8    1  0.7366917E-004  0.9448984E+02  0.7546771E-02  0.1293826E+00
         -1   -1    0    0    0  501 -0.00000000000E+00  0.00000000000E+00  0.13483786626E+02  0.13483786626E+02  0.00000000000E+00 0.  1.
          1   -1    0    0  501    0  0.00000000000E+00 -0.00000000000E+00 -0.89021918023E+03  0.89021918023E+03  0.00000000000E+00 0. -1.
         23    2    1    2    0    0  0.93575908758E+01 -0.19163147982E+02 -0.19635818548E+03  0.21679578575E+03  0.89381681364E+02 0.  0.
         23    2    1    2    0    0 -0.93575908758E+01  0.19163147982E+02 -0.68037720812E+03  0.68690718111E+03  0.92051829873E+02 0.  0.
          5    1    4    4  502    0  0.35698057841E+02 -0.10829077594E+02 -0.35976438595E+03  0.36172382235E+03  0.47000000000E+01 0. -1.
         -5    1    4    4    0  502 -0.45055648717E+02  0.29992225577E+02 -0.32061282217E+03  0.32518335876E+03  0.47000000000E+01 0.  1.
          5    1    3    3  503    0  0.28523564926E+02 -0.47900765397E+02 -0.10430198587E+03  0.11835992285E+03  0.47000000000E+01 0. -1.
         -5    1    3    3    0  503 -0.19165974050E+02  0.28737617415E+02 -0.92056199619E+02  0.98435862897E+02  0.47000000000E+01 0.  1.
<mgrwt>
<rscale>  0 0.93833209E+02</rscale>
<asrwt>0</asrwt>
<pdfrwt beam="1">  1        1 0.13695678E+00 0.94489841E+02</pdfrwt>
<pdfrwt beam="2">  1       -1 0.20744290E-02 0.94489841E+02</pdfrwt>
<totfact> 0.11816582E+04</totfact>
</mgrwt>
</event>
<event>
 8    1  0.7366917E-004  0.1047130E+03  0.7546771E-02  0.1271315E+00
          2   -1    0    0  501    0  0.00000000000E+00  0.00000000000E+00  0.15502371362E+03  0.15502371362E+03  0.00000000000E+00 0. -1.
         -2   -1    0    0    0  501 -0.00000000000E+00 -0.00000000000E+00 -0.11704278659E+03  0.11704278659E+03  0.00000000000E+00 0.  1.
         23    2    1    2    0    0  0.27782135701E+02 -0.43843112374E+02 -0.67292603418E+02  0.12447131673E+03  0.90943656439E+02 0.  0.
         23    2    1    2    0    0 -0.27782135701E+02  0.43843112374E+02  0.10527353044E+03  0.14759518348E+03  0.89486068225E+02 0.  0.
          5    1    3    3  502    0 -0.21039184203E+02  0.40468588798E+01  0.73447136025E+01  0.23131345759E+02  0.47000000000E+01 0. -1.
         -5    1    3    3    0  502  0.48821319904E+02 -0.47889971254E+02 -0.74637317020E+02  0.10133997097E+03  0.47000000000E+01 0.  1.
          5    1    4    4  503    0 -0.52079156013E+02  0.48803330684E+01  0.77841164419E+02  0.93900974542E+02  0.47000000000E+01 0. -1.
         -5    1    4    4    0  503  0.24297020313E+02  0.38962779305E+02  0.27432366026E+02  0.53694208934E+02  0.47000000000E+01 0.  1.
<mgrwt>
<rscale>  0 0.10439572E+03</rscale>
<asrwt>0</asrwt>
<pdfrwt beam="1">  1        2 0.23849802E-01 0.10471301E+03</pdfrwt>
<pdfrwt beam="2">  1       -2 0.18006583E-01 0.10471301E+03</pdfrwt>
<totfact> 0.53473129E+03</totfact>
</mgrwt>
</event>
<event>
 8    1  0.7366917E-004  0.3211073E+03  0.7546771E-02  0.1075290E+00
          1   -1    0    0  501    0  0.00000000000E+00  0.00000000000E+00  0.12252107017E+03  0.12252107017E+03  0.00000000000E+00 0. -1.
         -1   -1    0    0    0  501 -0.00000000000E+00 -0.00000000000E+00 -0.83817183680E+03  0.83817183680E+03  0.00000000000E+00 0.  1.
         23    2    1    2    0    0  0.28336099048E+03  0.11800417336E+03 -0.35531795860E+03  0.47804435089E+03  0.89761427461E+02 0.  0.
         23    2    1    2    0    0 -0.28336099048E+03 -0.11800417336E+03 -0.36033280802E+03  0.48264855607E+03  0.94294540053E+02 0.  0.
          5    1    4    4  502    0 -0.33223043486E+02 -0.14531665752E+02 -0.10232635126E+03  0.10866329688E+03  0.47000000000E+01 0. -1.
         -5    1    3    3    0  503  0.17316786806E+02  0.17951962594E+02 -0.73473242369E+02  0.77733849837E+02  0.47000000000E+01 0.  1.
          5    1    3    3  503    0  0.26604420367E+03  0.10005221077E+03 -0.28184471623E+03  0.40031050106E+03  0.47000000000E+01 0. -1.
         -5    1    4    4    0  502 -0.25013794699E+03 -0.10347250761E+03 -0.25800645677E+03  0.37398525919E+03  0.47000000000E+01 0.  1.
<mgrwt>
<rscale>  0 0.32078135E+03</rscale>
<asrwt>0</asrwt>
<pdfrwt beam="1">  1        1 0.18849396E-01 0.32110730E+03</pdfrwt>
<pdfrwt beam="2">  1       -1 0.12894951E+00 0.32110730E+03</pdfrwt>
<totfact> 0.15317515E+02</totfact>
</mgrwt>
</event>
<event>
 8    1  0.7366917E-004  0.9944708E+02  0.7546771E-02  0.1283585E+00
         -1   -1    0    0    0  501 -0.00000000000E+00  0.00000000000E+00  0.14144188591E+03  0.14144188591E+03  0.00000000000E+00 0.  1.
          1   -1    0    0  501    0  0.00000000000E+00 -0.00000000000E+00 -0.67808105467E+02  0.67808105467E+02  0.00000000000E+00 0. -1.
         23    2    1    2    0    0 -0.35894259076E+02 -0.11714269581E+02  0.26104166604E+02  0.99028460507E+02  0.87747287877E+02 0.  0.
         23    2    1    2    0    0  0.35894259076E+02  0.11714269581E+02  0.47529613838E+02  0.11022153087E+03  0.92000542006E+02 0.  0.
          5    1    3    3  502    0 -0.51703462149E+02  0.22792320561E+02  0.20907731668E+02  0.60431458019E+02  0.47000000000E+01 0. -1.
         -5    1    3    3    0  502  0.15809203073E+02 -0.34506590142E+02  0.51964349367E+01  0.38597002488E+02  0.47000000000E+01 0.  1.
          5    1    4    4  503    0 -0.17546780030E+02  0.33613432028E+02  0.32992019346E+02  0.50480844314E+02  0.47000000000E+01 0. -1.
         -5    1    4    4    0  503  0.53441039106E+02 -0.21899162447E+02  0.14537594491E+02  0.59740686556E+02  0.47000000000E+01 0.  1.
<mgrwt>
<rscale>  0 0.98451962E+02</rscale>
<asrwt>0</asrwt>
<pdfrwt beam="1">  1        1 0.10432016E-01 0.99447080E+02</pdfrwt>
<pdfrwt beam="2">  1       -1 0.21760290E-01 0.99447080E+02</pdfrwt>
<totfact> 0.97194116E+03</totfact>
</mgrwt>
</event>
<event>
 8    1  0.7366917E-004  0.9299805E+02  0.7546771E-02  0.1295957E+00
         -1   -1    0    0    0  501 -0.00000000000E+00  0.00000000000E+00  0.52809505806E+03  0.52809505806E+03  0.00000000000E+00 0.  1.
          1   -1    0    0  501    0  0.00000000000E+00 -0.00000000000E+00 -0.19134412997E+02  0.19134412997E+02  0.00000000000E+00 0. -1.
         23    2    1    2    0    0  0.40685626803E+01  0.67705835396E+01  0.14985286289E+03  0.17636472915E+03  0.92661983405E+02 0.  0.
         23    2    1    2    0    0 -0.40685626803E+01 -0.67705835396E+01  0.35910778218E+03  0.37086474191E+03  0.92303107032E+02 0.  0.
          5    1    4    4  502    0 -0.12951045548E+02 -0.43190452190E+02  0.11106458157E+03  0.11996072699E+03  0.47000000000E+01 0. -1.
         -5    1    3    3    0  503  0.85838363731E+01  0.43024043282E+02  0.12330055980E+03  0.13095750683E+03  0.47000000000E+01 0.  1.
          5    1    3    3  503    0 -0.45152736927E+01 -0.36253459742E+02  0.26552303087E+02  0.45407222322E+02  0.47000000000E+01 0. -1.
         -5    1    4    4    0  502  0.88824828672E+01  0.36419868650E+02  0.24804320061E+03  0.25090401492E+03  0.47000000000E+01 0.  1.
<mgrwt>
<rscale>  0 0.92908526E+02</rscale>
<asrwt>0</asrwt>
<pdfrwt beam="1">  1        1 0.29437562E-02 0.92998049E+02</pdfrwt>
<pdfrwt beam="2">  1       -1 0.81245383E-01 0.92998049E+02</pdfrwt>
<totfact> 0.51186567E+03</totfact>
</mgrwt>
</event>
<event>
 8    1  0.7366917E-004  0.9526264E+02  0.7546771E-02  0.1292460E+00
         -1   -1    0    0    0  501 -0.00000000000E+00  0.00000000000E+00  0.14275237986E+02  0.14275237986E+02  0.00000000000E+00 0.  1.
          1   -1    0    0  501    0  0.00000000000E+00 -0.00000000000E+00 -0.69624987234E+03  0.69624987234E+03  0.00000000000E+00 0. -1.
         23    2    1    2    0    0 -0.61813971349E+01  0.25744052092E+02 -0.46832426861E+03  0.47791483576E+03  0.91509583010E+02 0.  0.
         23    2    1    2    0    0  0.61813971349E+01 -0.25744052092E+02 -0.21365036575E+03  0.23261027457E+03  0.88091402317E+02 0.  0.
          5    1    3    3  502    0 -0.19461639707E+02 -0.30908543504E+02 -0.17307029489E+03  0.17694493622E+03  0.47000000000E+01 0. -1.
         -5    1    4    4    0  503  0.40562205492E+02 -0.61097120060E+01 -0.53543304407E+02  0.67613582526E+02  0.47000000000E+01 0.  1.
          5    1    4    4  503    0 -0.34380808357E+02 -0.19634340086E+02 -0.16010706134E+03  0.16499669204E+03  0.47000000000E+01 0. -1.
         -5    1    3    3    0  502  0.13280242572E+02  0.56652595595E+02 -0.29525397372E+03  0.30096989954E+03  0.47000000000E+01 0.  1.
<mgrwt>
<rscale>  0 0.94432187E+02</rscale>
<asrwt>0</asrwt>
<pdfrwt beam="1">  1        1 0.10711537E+00 0.95262635E+02</pdfrwt>
<pdfrwt beam="2">  1       -1 0.21961903E-02 0.95262635E+02</pdfrwt>
<totfact> 0.15669283E+04</totfact>
</mgrwt>
</event>
<event>
 8    1  0.7366917E-004  0.1586033E+03  0.7546771E-02  0.1191051E+00
         -1   -1    0    0    0  501 -0.00000000000E+00  0.00000000000E+00  0.87245555932E+03  0.87245555932E+03  0.00000000000E+00 0.  1.
          1   -1    0    0  501    0  0.00000000000E+00 -0.00000000000E+00 -0.36151436476E+03  0.36151436476E+03  0.00000000000E+00 0. -1.
         23    2    1    2    0    0  0.12933753894E+03 -0.16431155181E+02  0.84793816478E+03  0.86264368886E+03  0.90315119493E+02 0.  0.
         23    2    1    2    0    0 -0.12933753894E+03  0.16431155181E+02 -0.33699697021E+03  0.37132623522E+03  0.85545503639E+02 0.  0.
          5    1    3    3  502    0  0.44082339996E+02  0.16525735565E+02  0.12025451233E+03  0.12922689492E+03  0.47000000000E+01 0. -1.
         -5    1    4    4    0  503 -0.10032830758E+00 -0.20759423843E+02 -0.41889935330E+02  0.46987449665E+02  0.47000000000E+01 0.  1.
          5    1    4    4  503    0 -0.12923721063E+03  0.37190579024E+02 -0.29510703488E+03  0.32433878556E+03  0.47000000000E+01 0. -1.
         -5    1    3    3    0  502  0.85255198945E+02 -0.32956890746E+02  0.72768365245E+03  0.73341679394E+03  0.47000000000E+01 0.  1.
<mgrwt>
<rscale>  0 0.15793236E+03</rscale>
<asrwt>0</asrwt>
<pdfrwt beam="1">  1        1 0.55617595E-01 0.15860329E+03</pdfrwt>
<pdfrwt beam="2">  1       -1 0.13422393E+00 0.15860329E+03</pdfrwt>
<totfact> 0.36455727E+01</totfact>
</mgrwt>
</event>
<event>
 8    1  0.7366917E-004  0.9717487E+02  0.7546771E-02  0.1286593E+00
          1   -1    0    0  501    0  0.00000000000E+00  0.00000000000E+00  0.10481324498E+03  0.10481324498E+03  0.00000000000E+00 0. -1.
         -1   -1    0    0    0  501 -0.00000000000E+00 -0.00000000000E+00 -0.11722579589E+03  0.11722579589E+03  0.00000000000E+00 0.  1.
         23    2    1    2    0    0 -0.12023549574E+02  0.35576522000E+02 -0.60028645892E+02  0.11422081012E+03  0.89625333892E+02 0.  0.
         23    2    1    2    0    0  0.12023549574E+02 -0.35576522000E+02  0.47616094982E+02  0.10781823074E+03  0.89147202521E+02 0.  0.
          5    1    4    4  502    0  0.26104022382E+02 -0.60872127829E+02  0.25678502828E+02  0.71192074267E+02  0.47000000000E+01 0. -1.
         -5    1    3    3    0  503  0.27364730226E+02  0.40986664357E+02 -0.10626743836E+02  0.50633514593E+02  0.47000000000E+01 0.  1.
          5    1    3    3  503    0 -0.39388279800E+02 -0.54101423565E+01 -0.49401902056E+02  0.63587295529E+02  0.47000000000E+01 0. -1.
         -5    1    4    4    0  502 -0.14080472808E+02  0.25295605829E+02  0.21937592154E+02  0.36626156477E+02  0.47000000000E+01 0.  1.
<mgrwt>
<rscale>  0 0.97064479E+02</rscale>
<asrwt>0</asrwt>
<pdfrwt beam="1">  1        1 0.16125115E-01 0.97174869E+02</pdfrwt>
<pdfrwt beam="2">  1       -1 0.18034738E-01 0.97174869E+02</pdfrwt>
<totfact> 0.74455368E+03</totfact>
</mgrwt>
</event>
<event>
 8    1  0.7366917E-004  0.9691778E+02  0.7546771E-02  0.1287178E+00
          2   -1    0    0  501    0  0.00000000000E+00  0.00000000000E+00  0.41053344779E+03  0.41053344779E+03  0.00000000000E+00 0. -1.
         -2   -1    0    0    0  501 -0.00000000000E+00 -0.00000000000E+00 -0.22983899808E+02  0.22983899808E+02  0.00000000000E+00 0.  1.
         23    2    1    2    0    0  0.30752621627E+02 -0.17760693636E+01  0.17225086733E+03  0.19741021632E+03  0.91386837408E+02 0.  0.
         23    2    1    2    0    0 -0.30752621627E+02  0.17760693636E+01  0.21529868065E+03  0.23610713128E+03  0.91892205284E+02 0.  0.
          5    1    3    3  502    0  0.81327488267E+01  0.40201344951E+02  0.43215700308E+02  0.59766014527E+02  0.47000000000E+01 0. -1.
         -5    1    3    3    0  502  0.22619872801E+02 -0.41977414315E+02  0.12903516703E+03  0.13764420179E+03  0.47000000000E+01 0.  1.
          5    1    4    4  503    0 -0.93661438712E+01  0.20006847151E+02  0.20433264478E+03  0.20557703740E+03  0.47000000000E+01 0. -1.
         -5    1    4    4    0  503 -0.21386477756E+02 -0.18230777788E+02  0.10966035872E+02  0.30530093880E+02  0.47000000000E+01 0.  1.
<mgrwt>
<rscale>  0 0.96797797E+02</rscale>
<asrwt>0</asrwt>
<pdfrwt beam="1">  1        2 0.63158987E-01 0.96917777E+02</pdfrwt>
<pdfrwt beam="2">  1       -2 0.35359849E-02 0.96917777E+02</pdfrwt>
<totfact> 0.23229408E+04</totfact>
</mgrwt>
</event>
<event>
 8    1  0.7366917E-004  0.1346410E+03  0.7546771E-02  0.1221713E+00
         -2   -1    0    0    0  501 -0.00000000000E+00  0.00000000000E+00  0.46845867030E+02  0.46845867030E+02  0.00000000000E+00 0.  1.
          2   -1    0    0  501    0  0.00000000000E+00 -0.00000000000E+00 -0.47258809524E+03  0.47258809524E+03  0.00000000000E+00 0. -1.
         23    2    1    2    0    0 -0.94850696878E+02 -0.17355007444E+02 -0.32661417668E+03  0.35223772361E+03  0.89981901205E+02 0.  0.
         23    2    1    2    0    0  0.94850696878E+02  0.17355007444E+02 -0.99128051532E+02  0.16719623866E+03  0.93969998619E+02 0.  0.
          5    1    3    3  502    0 -0.81650463203E+02 -0.41408194944E+02 -0.16973522979E+03  0.19290820351E+03  0.47000000000E+01 0. -1.
         -5    1    3    3    0  502 -0.13200233675E+02  0.24053187500E+02 -0.15687894689E+03  0.15932952010E+03  0.47000000000E+01 0.  1.
          5    1    4    4  503    0  0.22742354637E+02 -0.37351444705E+02 -0.30883875492E+02  0.53742430922E+02  0.47000000000E+01 0. -1.
         -5    1    4    4    0  503  0.72108342241E+02  0.54706452148E+02 -0.68244176040E+02  0.11345380774E+03  0.47000000000E+01 0.  1.
<mgrwt>
<rscale>  0 0.13394759E+03</rscale>
<asrwt>0</asrwt>
<pdfrwt beam="1">  1        2 0.72705863E-01 0.13464105E+03</pdfrwt>
<pdfrwt beam="2">  1       -2 0.72070563E-02 0.13464105E+03</pdfrwt>
<totfact> 0.70686584E+03</totfact>
</mgrwt>
</event>
<event>
 8    1  0.7366917E-004  0.1076946E+03  0.7546771E-02  0.1265111E+00
          1   -1    0    0  501    0  0.00000000000E+00  0.00000000000E+00  0.62655069757E+03  0.62655069757E+03  0.00000000000E+00 0. -1.
         -1   -1    0    0    0  501 -0.00000000000E+00 -0.00000000000E+00 -0.35542660343E+02  0.35542660343E+02  0.00000000000E+00 0.  1.
         23    2    1    2    0    0 -0.16948063923E+01  0.60290492430E+02  0.52549335271E+03  0.53641530769E+03  0.89220528666E+02 0.  0.
         23    2    1    2    0    0  0.16948063923E+01 -0.60290492430E+02  0.65514684514E+02  0.12567805022E+03  0.88684736984E+02 0.  0.
          5    1    3    3  502    0 -0.38214941583E+02  0.56759232492E+02  0.38891782323E+03  0.39491917585E+03  0.47000000000E+01 0. -1.
         -5    1    4    4    0  503  0.37656807587E+02 -0.68853133786E+01  0.83766850269E+01  0.39467727956E+02  0.47000000000E+01 0.  1.
          5    1    4    4  503    0 -0.35962001195E+02 -0.53405179051E+02  0.57137999487E+02  0.86210322264E+02  0.47000000000E+01 0. -1.
         -5    1    3    3    0  502  0.36520135190E+02  0.35312599378E+01  0.13657552948E+03  0.14149613184E+03  0.47000000000E+01 0.  1.
<mgrwt>
<rscale>  0 0.10758352E+03</rscale>
<asrwt>0</asrwt>
<pdfrwt beam="1">  1        1 0.96392406E-01 0.10769456E+03</pdfrwt>
<pdfrwt beam="2">  1       -1 0.54681021E-02 0.10769456E+03</pdfrwt>
<totfact> 0.48671213E+03</totfact>
</mgrwt>
</event>
<event>
 8    1  0.7366917E-004  0.1133305E+03  0.7546771E-02  0.1257529E+00
          1   -1    0    0  501    0  0.00000000000E+00  0.00000000000E+00  0.37688035680E+03  0.37688035680E+03  0.00000000000E+00 0. -1.
         -1   -1    0    0    0  501 -0.00000000000E+00 -0.00000000000E+00 -0.36874079654E+02  0.36874079654E+02  0.00000000000E+00 0.  1.
         23    2    1    2    0    0 -0.62355551725E+02  0.26000388370E+01  0.10031496538E+03  0.15135024290E+03  0.94598249004E+02 0.  0.
         23    2    1    2    0    0  0.62355551725E+02 -0.26000388370E+01  0.23969131176E+03  0.26240419355E+03  0.86654837278E+02 0.  0.
          5    1    4    4  502    0 -0.98727606719E+01 -0.27704812722E+02  0.57368204772E+02  0.64639221608E+02  0.47000000000E+01 0. -1.
         -5    1    3    3    0  503 -0.84334830927E+02 -0.88820236310E+01  0.90923611732E+02  0.12442044535E+03  0.47000000000E+01 0.  1.
          5    1    3    3  503    0  0.21979279202E+02  0.11482062468E+02  0.93913536461E+01  0.26929797549E+02  0.47000000000E+01 0. -1.
         -5    1    4    4    0  502  0.72228312397E+02  0.25104773885E+02  0.18232310699E+03  0.19776497194E+03  0.47000000000E+01 0.  1.
<mgrwt>
<rscale>  0 0.11165867E+03</rscale>
<asrwt>0</asrwt>
<pdfrwt beam="1">  1        1 0.57981591E-01 0.11333051E+03</pdfrwt>
<pdfrwt beam="2">  1       -1 0.56729356E-02 0.11333051E+03</pdfrwt>
<totfact> 0.89253910E+03</totfact>
</mgrwt>
</event>
<event>
 8    1  0.7366917E-004  0.1270328E+03  0.7546771E-02  0.1232117E+00
         -2   -1    0    0    0  501 -0.00000000000E+00  0.00000000000E+00  0.41654388116E+02  0.41654388116E+02  0.00000000000E+00 0.  1.
          2   -1    0    0  501    0  0.00000000000E+00 -0.00000000000E+00 -0.49077873605E+03  0.49077873605E+03  0.00000000000E+00 0. -1.
         23    2    1    2    0    0 -0.55000663950E+02 -0.65373250861E+02 -0.10114755235E+03  0.16199394471E+03  0.93340643956E+02 0.  0.
         23    2    1    2    0    0  0.55000663950E+02  0.65373250861E+02 -0.34797679558E+03  0.37043917945E+03  0.94013831133E+02 0.  0.
          5    1    4    4  502    0  0.63933451858E+02  0.32964540238E+02 -0.12028388450E+03  0.14022998984E+03  0.47000000000E+01 0. -1.
         -5    1    3    3    0  503 -0.36079009672E+02 -0.82796303372E+02 -0.47131863252E+02  0.10198247558E+03  0.47000000000E+01 0.  1.
          5    1    3    3  503    0 -0.18921654278E+02  0.17423052511E+02 -0.54015689094E+02  0.60011469134E+02  0.47000000000E+01 0. -1.
         -5    1    4    4    0  502 -0.89327879079E+01  0.32408710623E+02 -0.22769291109E+03  0.23020918962E+03  0.47000000000E+01 0.  1.
<mgrwt>
<rscale>  0 0.12690828E+03</rscale>
<asrwt>0</asrwt>
<pdfrwt beam="1">  1        2 0.75504422E-01 0.12703281E+03</pdfrwt>
<pdfrwt beam="2">  1       -2 0.64083673E-02 0.12703281E+03</pdfrwt>
<totfact> 0.80854197E+03</totfact>
</mgrwt>
</event>
<event>
 8    1  0.7366917E-004  0.1303666E+03  0.7546771E-02  0.1226979E+00
          1   -1    0    0  501    0  0.00000000000E+00  0.00000000000E+00  0.22828001764E+03  0.22828001764E+03  0.00000000000E+00 0. -1.
         -1   -1    0    0    0  501 -0.00000000000E+00 -0.00000000000E+00 -0.11299307699E+03  0.11299307699E+03  0.00000000000E+00 0.  1.
         23    2    1    2    0    0 -0.25009818575E+02  0.89282294500E+02 -0.42121907099E+02  0.13700258821E+03  0.91644066808E+02 0.  0.
         23    2    1    2    0    0  0.25009818575E+02 -0.89282294500E+02  0.15740884775E+03  0.20427050643E+03  0.91389689298E+02 0.  0.
          5    1    3    3  502    0 -0.43648412514E+02  0.65963615902E+02 -0.62188722841E+02  0.10072690696E+03  0.47000000000E+01 0. -1.
         -5    1    4    4    0  503 -0.32028803508E+02 -0.45354549074E+02  0.49913646503E+02  0.74808699247E+02  0.47000000000E+01 0.  1.
          5    1    4    4  503    0  0.57038622082E+02 -0.43927745426E+02  0.10749520125E+03  0.12946180718E+03  0.47000000000E+01 0. -1.
         -5    1    3    3    0  502  0.18638593939E+02  0.23318678597E+02  0.20066815742E+02  0.36275681242E+02  0.47000000000E+01 0.  1.
<mgrwt>
<rscale>  0 0.13032192E+03</rscale>
<asrwt>0</asrwt>
<pdfrwt beam="1">  1        1 0.35120003E-01 0.13036661E+03</pdfrwt>
<pdfrwt beam="2">  1       -1 0.17383550E-01 0.13036661E+03</pdfrwt>
<totfact> 0.30338443E+03</totfact>
</mgrwt>
</event>
<event>
 8    1  0.7366917E-004  0.1252714E+03  0.7546771E-02  0.1236261E+00
          2   -1    0    0  501    0  0.00000000000E+00  0.00000000000E+00  0.10002089287E+04  0.10002089287E+04  0.00000000000E+00 0. -1.
         -2   -1    0    0    0  501 -0.00000000000E+00 -0.00000000000E+00 -0.18863130634E+02  0.18863130634E+02  0.00000000000E+00 0.  1.
         23    2    1    2    0    0  0.32945796763E+02  0.74662369491E+02  0.70916180346E+03  0.71944387593E+03  0.89605425032E+02 0.  0.
         23    2    1    2    0    0 -0.32945796763E+02 -0.74662369491E+02  0.27218399462E+03  0.29962818341E+03  0.95042234949E+02 0.  0.
          5    1    4    4  502    0  0.25600690506E+02 -0.25335618887E+02  0.15767684659E+03  0.16180657245E+03  0.47000000000E+01 0. -1.
         -5    1    3    3    0  503 -0.30670626426E+02  0.27952089407E+02  0.21896702031E+03  0.22291400273E+03  0.47000000000E+01 0.  1.
          5    1    3    3  503    0  0.63616423189E+02  0.46710280084E+02  0.49019478314E+03  0.49652987321E+03  0.47000000000E+01 0. -1.
         -5    1    4    4    0  502 -0.58546487269E+02 -0.49326750604E+02  0.11450714803E+03  0.13782161096E+03  0.47000000000E+01 0.  1.
<mgrwt>
<rscale>  0 0.12424046E+03</rscale>
<asrwt>0</asrwt>
<pdfrwt beam="1">  1        2 0.15387826E+00 0.12527139E+03</pdfrwt>
<pdfrwt beam="2">  1       -2 0.29020209E-02 0.12527139E+03</pdfrwt>
<totfact> 0.11191842E+04</totfact>
</mgrwt>
</event>
<event>
 8    1  0.7366917E-004  0.1287647E+03  0.7546771E-02  0.1229438E+00
         -3   -1    0    0    0  501 -0.00000000000E+00  0.00000000000E+00  0.45450897226E+02  0.45450897226E+02  0.00000000000E+00 0.  1.
          3   -1    0    0  501    0  0.00000000000E+00 -0.00000000000E+00 -0.43264245629E+03  0.43264245629E+03  0.00000000000E+00 0. -1.
         23    2    1    2    0    0 -0.33303025367E+02  0.87674331166E+02 -0.97982122577E+02  0.16151406984E+03  0.87695031594E+02 0.  0.
         23    2    1    2    0    0  0.33303025367E+02 -0.87674331166E+02 -0.28920943649E+03  0.31657928368E+03  0.88229614408E+02 0.  0.
          5    1    3    3  502    0  0.11608746358E+02  0.47601431451E+02 -0.87275018446E+02  0.10019819416E+03  0.47000000000E+01 0. -1.
         -5    1    3    3    0  502 -0.44911771725E+02  0.40072899715E+02 -0.10707104131E+02  0.61315875676E+02  0.47000000000E+01 0.  1.
          5    1    4    4  503    0  0.98844216335E+01 -0.84484670273E+02 -0.27651878429E+03  0.28934424025E+03  0.47000000000E+01 0. -1.
         -5    1    4    4    0  503  0.23418603733E+02 -0.31896608927E+01 -0.12690652201E+02  0.27235043431E+02  0.47000000000E+01 0.  1.
<mgrwt>
<rscale>  0 0.12867316E+03</rscale>
<asrwt>0</asrwt>
<pdfrwt beam="1">  1        3 0.66560379E-01 0.12876469E+03</pdfrwt>
<pdfrwt beam="2">  1       -3 0.69924456E-02 0.12876469E+03</pdfrwt>
<totfact> 0.67619578E+02</totfact>
</mgrwt>
</event>
<event>
 8    1  0.7366917E-004  0.1098976E+03  0.7546771E-02  0.1262979E+00
          2   -1    0    0  501    0  0.00000000000E+00  0.00000000000E+00  0.75314653673E+02  0.75314653673E+02  0.00000000000E+00 0. -1.
         -2   -1    0    0    0  501 -0.00000000000E+00 -0.00000000000E+00 -0.17437853658E+03  0.17437853658E+03  0.00000000000E+00 0.  1.
         23    2    1    2    0    0 -0.25480010267E+02 -0.56839991731E+02 -0.55060041239E+01  0.10536521441E+03  0.84802693022E+02 0.  0.
         23    2    1    2    0    0  0.25480010267E+02  0.56839991731E+02 -0.93557878778E+02  0.14432797583E+03  0.90539893659E+02 0.  0.
          5    1    3    3  502    0 -0.46546190889E+02 -0.53076767638E+02 -0.25987315845E+02  0.75373216290E+02  0.47000000000E+01 0. -1.
         -5    1    4    4    0  503 -0.19762829736E+02  0.58781254684E+02 -0.67860729734E+02  0.92048758717E+02  0.47000000000E+01 0.  1.
          5    1    4    4  503    0  0.45242840003E+02 -0.19412629532E+01 -0.25697149045E+02  0.52279217117E+02  0.47000000000E+01 0. -1.
         -5    1    3    3    0  502  0.21066180622E+02 -0.37632240929E+01  0.20481311721E+02  0.29991998123E+02  0.47000000000E+01 0.  1.
<mgrwt>
<rscale>  0 0.10870940E+03</rscale>
<asrwt>0</asrwt>
<pdfrwt beam="1">  1        2 0.11586870E-01 0.10989762E+03</pdfrwt>
<pdfrwt beam="2">  1       -2 0.26827467E-01 0.10989762E+03</pdfrwt>
<totfact> 0.62297243E+03</totfact>
</mgrwt>
</event>
<event>
 8    1  0.7366917E-004  0.1291005E+03  0.7546771E-02  0.1229060E+00
         -1   -1    0    0    0  501 -0.00000000000E+00  0.00000000000E+00  0.44399581515E+02  0.44399581515E+02  0.00000000000E+00 0.  1.
          1   -1    0    0  501    0  0.00000000000E+00 -0.00000000000E+00 -0.79842268421E+03  0.79842268421E+03  0.00000000000E+00 0. -1.
         23    2    1    2    0    0  0.97461423058E+01 -0.89878192165E+02 -0.69046843697E+02  0.14578610763E+03  0.91175906004E+02 0.  0.
         23    2    1    2    0    0 -0.97461423058E+01  0.89878192165E+02 -0.68497625900E+03  0.69703615810E+03  0.92162104951E+02 0.  0.
          5    1    3    3  502    0 -0.10364797786E+02 -0.27017212209E+02 -0.73839145059E+02  0.79446007652E+02  0.47000000000E+01 0. -1.
         -5    1    3    3    0  502  0.20110940092E+02 -0.62860979955E+02  0.47923013621E+01  0.66340099975E+02  0.47000000000E+01 0.  1.
          5    1    4    4  503    0  0.18328033711E+02  0.62653845043E+02 -0.59783192256E+03  0.60140379010E+03  0.47000000000E+01 0. -1.
         -5    1    4    4    0  503 -0.28074176016E+02  0.27224347122E+02 -0.87144336439E+02  0.95632367996E+02  0.47000000000E+01 0.  1.
<mgrwt>
<rscale>  0 0.12892456E+03</rscale>
<asrwt>0</asrwt>
<pdfrwt beam="1">  1        1 0.12283426E+00 0.12910047E+03</pdfrwt>
<pdfrwt beam="2">  1       -1 0.68307046E-02 0.12910047E+03</pdfrwt>
<totfact> 0.24914815E+03</totfact>
</mgrwt>
</event>
<event>
 8    1  0.7366917E-004  0.1027814E+03  0.7546771E-02  0.1284927E+00
          2   -1    0    0  501    0  0.00000000000E+00  0.00000000000E+00  0.82079255861E+02  0.82079255861E+02  0.00000000000E+00 0. -1.
         -2   -1    0    0    0  501 -0.00000000000E+00 -0.00000000000E+00 -0.11218748316E+03  0.11218748316E+03  0.00000000000E+00 0.  1.
         23    2    1    2    0    0 -0.75544443315E+01 -0.17088148385E+00  0.77926914345E+01  0.84719958062E+02  0.84021702105E+02 0.  0.
         23    2    1    2    0    0  0.75544443315E+01  0.17088148385E+00 -0.37900918736E+02  0.10954678096E+03  0.10250326214E+03 0.  0.
          5    1    3    3  502    0  0.32303219309E+02  0.29312944007E+01  0.24720211450E+02  0.41052031846E+02  0.47000000000E+01 0.  1.
         -5    1    4    4    0  503  0.33478258221E+02  0.11337756309E+02 -0.62404880453E+02  0.71873483261E+02  0.47000000000E+01 0.  1.
          5    1    4    4  503    0 -0.25923813889E+02 -0.11166874825E+02  0.24503961717E+02  0.37673297702E+02  0.47000000000E+01 0. -1.
         -5    1    3    3    0  502 -0.39857663640E+02 -0.31021758845E+01 -0.16927520016E+02  0.43667926216E+02  0.47000000000E+01 0. -1.
<mgrwt>
<rscale>  0 0.97829784E+02</rscale>
<asrwt>0</asrwt>
<pdfrwt beam="1">  1        2 0.12627578E-01 0.10278141E+03</pdfrwt>
<pdfrwt beam="2">  1       -2 0.17259613E-01 0.10278141E+03</pdfrwt>
<totfact> 0.11832473E+04</totfact>
</mgrwt>
</event>
<event>
 8    1  0.7366917E-004  0.2631742E+03  0.7546771E-02  0.1105331E+00
          2   -1    0    0  501    0  0.00000000000E+00  0.00000000000E+00  0.79274054301E+03  0.79274054301E+03  0.00000000000E+00 0. -1.
         -2   -1    0    0    0  501 -0.00000000000E+00 -0.00000000000E+00 -0.89358575541E+02  0.89358575541E+02  0.00000000000E+00 0.  1.
         23    2    1    2    0    0  0.24546236062E+03  0.27901559916E+02  0.28263292423E+03  0.38582256910E+03  0.89148289044E+02 0.  0.
         23    2    1    2    0    0 -0.24546236062E+03 -0.27901559916E+02  0.42074904324E+03  0.49627654945E+03  0.90721489315E+02 0.  0.
          5    1    3    3  502    0  0.20106379171E+03 -0.41857371780E+00  0.25898018616E+03  0.32790189137E+03  0.47000000000E+01 0. -1.
         -5    1    4    4    0  503 -0.27758511328E+02 -0.35469432172E+02  0.73359946605E+02  0.86211294710E+02  0.47000000000E+01 0.  1.
          5    1    4    4  503    0 -0.21770384929E+03  0.75678722555E+01  0.34738909663E+03  0.41006525474E+03  0.47000000000E+01 0. -1.
         -5    1    3    3    0  502  0.44398568907E+02  0.28320133634E+02  0.23652738072E+02  0.57920677727E+02  0.47000000000E+01 0.  1.
<mgrwt>
<rscale>  0 0.26303955E+03</rscale>
<asrwt>0</asrwt>
<pdfrwt beam="1">  1        2 0.12196008E+00 0.26317419E+03</pdfrwt>
<pdfrwt beam="2">  1       -2 0.13747474E-01 0.26317419E+03</pdfrwt>
<totfact> 0.14201963E+03</totfact>
</mgrwt>
</event>
<event>
 8    1  0.7366917E-004  0.1300330E+03  0.7546771E-02  0.1227685E+00
         -2   -1    0    0    0  501 -0.00000000000E+00  0.00000000000E+00  0.39536023892E+03  0.39536023892E+03  0.00000000000E+00 0.  1.
          2   -1    0    0  501    0  0.00000000000E+00 -0.00000000000E+00 -0.43056756095E+02  0.43056756095E+02  0.00000000000E+00 0. -1.
         23    2    1    2    0    0  0.51085675457E+02  0.75046817595E+02  0.15222278248E+03  0.20020081589E+03  0.93095757752E+02 0.  0.
         23    2    1    2    0    0 -0.51085675457E+02 -0.75046817595E+02  0.20008070035E+03  0.23821617912E+03  0.92048304033E+02 0.  0.
          5    1    4    4  502    0 -0.17050398336E+02 -0.89741790639E+02  0.13275562531E+03  0.16121554243E+03  0.47000000000E+01 0. -1.
         -5    1    3    3    0  503  0.77222666041E+02  0.55612311212E+02  0.12684706360E+03  0.15864531778E+03  0.47000000000E+01 0.  1.
          5    1    3    3  503    0 -0.26136990584E+02  0.19434506384E+02  0.25375718875E+02  0.41555498115E+02  0.47000000000E+01 0. -1.
         -5    1    4    4    0  502 -0.34035277122E+02  0.14694973044E+02  0.67325075044E+02  0.77000636693E+02  0.47000000000E+01 0.  1.
<mgrwt>
<rscale>  0 0.12984567E+03</rscale>
<asrwt>0</asrwt>
<pdfrwt beam="1">  1        2 0.66241166E-02 0.13003304E+03</pdfrwt>
<pdfrwt beam="2">  1       -2 0.60824650E-01 0.13003304E+03</pdfrwt>
<totfact> 0.26678962E+03</totfact>
</mgrwt>
</event>
<event>
 8    1  0.7366917E-004  0.1033224E+03  0.7546771E-02  0.1273788E+00
         -2   -1    0    0    0  501 -0.00000000000E+00  0.00000000000E+00  0.94370126562E+02  0.94370126562E+02  0.00000000000E+00 0.  1.
          2   -1    0    0  501    0  0.00000000000E+00 -0.00000000000E+00 -0.12199072387E+03  0.12199072387E+03  0.00000000000E+00 0. -1.
         23    2    1    2    0    0 -0.43391904852E+02 -0.25632712271E+02 -0.44077851113E+02  0.11173595708E+03  0.89454870189E+02 0.  0.
         23    2    1    2    0    0  0.43391904852E+02  0.25632712271E+02  0.16457253800E+02  0.10462489336E+03  0.90197748101E+02 0.  0.
          5    1    4    4  502    0 -0.34745109876E+01  0.49656080644E+02  0.12872704952E+02  0.51629401549E+02  0.47000000000E+01 0. -1.
         -5    1    3    3    0  503  0.12185662805E+02  0.23178037097E+02 -0.24222611060E+01  0.26714586475E+02  0.47000000000E+01 0.  1.
          5    1    3    3  503    0 -0.55577567657E+02 -0.48810749368E+02 -0.41655590007E+02  0.85021370604E+02  0.47000000000E+01 0. -1.
         -5    1    4    4    0  502  0.46866415840E+02 -0.24023368373E+02  0.35845488488E+01  0.52995491809E+02  0.47000000000E+01 0.  1.
<mgrwt>
<rscale>  0 0.10316009E+03</rscale>
<asrwt>0</asrwt>
<pdfrwt beam="1">  1        2 0.18767804E-01 0.10332244E+03</pdfrwt>
<pdfrwt beam="2">  1       -2 0.14518481E-01 0.10332244E+03</pdfrwt>
<totfact> 0.99253792E+03</totfact>
</mgrwt>
</event>
<event>
 8    1  0.7366917E-004  0.9917631E+02  0.7546771E-02  0.1284485E+00
          1   -1    0    0  501    0  0.00000000000E+00  0.00000000000E+00  0.75805046406E+03  0.75805046406E+03  0.00000000000E+00 0. -1.
         -1   -1    0    0    0  501 -0.00000000000E+00 -0.00000000000E+00 -0.16018741434E+02  0.16018741434E+02  0.00000000000E+00 0.  1.
         23    2    1    2    0    0  0.17679909352E+02 -0.58987574480E+00  0.18030852758E+03  0.20365804833E+03  0.93018860362E+02 0.  0.
         23    2    1    2    0    0 -0.17679909352E+02  0.58987574480E+00  0.56172319505E+03  0.57041115717E+03  0.97585927357E+02 0.  0.
          5    1    4    4  502    0 -0.47247101071E+02  0.13958787924E+02  0.47707038622E+03  0.47963046164E+03  0.47000000000E+01 0. -1.
         -5    1    3    3    0  503  0.51525548945E+02  0.91012718764E+01  0.68385512795E+02  0.86234469350E+02  0.47000000000E+01 0.  1.
          5    1    3    3  503    0 -0.33845639593E+02 -0.96911476212E+01  0.11192301478E+03  0.11742357898E+03  0.47000000000E+01 0. -1.
         -5    1    4    4    0  502  0.29567191718E+02 -0.13368912179E+02  0.84652808829E+02  0.90780695533E+02  0.47000000000E+01 0.  1.
<mgrwt>
<rscale>  0 0.98034149E+02</rscale>
<asrwt>0</asrwt>
<pdfrwt beam="1">  1        1 0.11662312E+00 0.99176310E+02</pdfrwt>
<pdfrwt beam="2">  1       -1 0.24644223E-02 0.99176310E+02</pdfrwt>
<totfact> 0.11800459E+04</totfact>
</mgrwt>
</event>
<event>
 7    1  0.7366917E-004  0.2641454E+03  0.7546771E-02  0.1132269E+00
         -1   -1    0    0    0  501 -0.00000000000E+00  0.00000000000E+00  0.60994311276E+03  0.60994311276E+03  0.00000000000E+00 0.  1.
          1   -1    0    0  501    0  0.00000000000E+00 -0.00000000000E+00 -0.65643378873E+02  0.65643378873E+02  0.00000000000E+00 0. -1.
         23    2    1    2    0    0 -0.90614745340E+02  0.31506102989E+02  0.22732806630E+03  0.26298032809E+03  0.90977671092E+02 0.  0.
          5    1    1    2  502    0  0.21636485238E+02  0.10663570881E+03  0.11584022858E+03  0.15899798880E+03  0.47000000000E+01 0. -1.
         -5    1    1    2    0  502  0.68978260102E+02 -0.13814181180E+03  0.20113143902E+03  0.25360817474E+03  0.47000000000E+01 0.  1.
          5    1    3    3  503    0 -0.33939031941E+02  0.57639846063E+02  0.91633365621E+02  0.11354722999E+03  0.47000000000E+01 0. -1.
         -5    1    3    3    0  503 -0.56675713399E+02 -0.26133743074E+02  0.13569470067E+03  0.14943309810E+03  0.47000000000E+01 0.  1.
<mgrwt>
<rscale>  0 0.22217842E+03</rscale>
<asrwt>0</asrwt>
<pdfrwt beam="1">  1        1 0.10098982E-01 0.26414543E+03</pdfrwt>
<pdfrwt beam="2">  1       -1 0.93837398E-01 0.26414543E+03</pdfrwt>
<totfact> 0.73440948E+02</totfact>
</mgrwt>
</event>
<event>
 8    1  0.7366917E-004  0.1255994E+03  0.7546771E-02  0.1234312E+00
         -2   -1    0    0    0  501 -0.00000000000E+00  0.00000000000E+00  0.13541699088E+03  0.13541699088E+03  0.00000000000E+00 0.  1.
          2   -1    0    0  501    0  0.00000000000E+00 -0.00000000000E+00 -0.12502954923E+03  0.12502954923E+03  0.00000000000E+00 0. -1.
         23    2    1    2    0    0  0.78039243048E+02 -0.36777274712E+02  0.40056635762E+02  0.13183226504E+03  0.91282641542E+02 0.  0.
         23    2    1    2    0    0 -0.78039243048E+02  0.36777274712E+02 -0.29669194110E+02  0.12861427507E+03  0.90656931787E+02 0.  0.
          5    1    4    4  502    0  0.55924492554E+01  0.23600637334E+02 -0.35913963210E+02  0.43590920210E+02  0.47000000000E+01 0. -1.
         -5    1    3    3    0  503  0.78536224284E+02 -0.12716004929E+02 -0.57189513201E+01  0.79902638944E+02  0.47000000000E+01 0.  1.
          5    1    3    3  503    0 -0.49698123588E+00 -0.24061269783E+02  0.45775587082E+02  0.51929626098E+02  0.47000000000E+01 0. -1.
         -5    1    4    4    0  502 -0.83631692303E+02  0.13176637378E+02  0.62447691002E+01  0.85023354857E+02  0.47000000000E+01 0.  1.
<mgrwt>
<rscale>  0 0.12548575E+03</rscale>
<asrwt>0</asrwt>
<pdfrwt beam="1">  1        2 0.19235315E-01 0.12559941E+03</pdfrwt>
<pdfrwt beam="2">  1       -2 0.20833383E-01 0.12559941E+03</pdfrwt>
<totfact> 0.53898279E+03</totfact>
</mgrwt>
</event>
<event>
 8    1  0.7366917E-004  0.1099585E+03  0.7546771E-02  0.1261782E+00
          1   -1    0    0  501    0  0.00000000000E+00  0.00000000000E+00  0.78026097785E+03  0.78026097785E+03  0.00000000000E+00 0. -1.
         -1   -1    0    0    0  501 -0.00000000000E+00 -0.00000000000E+00 -0.16688879416E+02  0.16688879416E+02  0.00000000000E+00 0.  1.
         23    2    1    2    0    0 -0.45312406707E+02  0.35359687666E+02  0.26490620482E+03  0.28682080828E+03  0.93740903532E+02 0.  0.
         23    2    1    2    0    0  0.45312406707E+02 -0.35359687666E+02  0.49866589361E+03  0.51012904899E+03  0.90887025775E+02 0.  0.
          5    1    3    3  502    0  0.20621547049E+01 -0.24186156418E+02  0.12567168127E+03  0.12808077185E+03  0.47000000000E+01 0. -1.
         -5    1    4    4    0  503 -0.68960242391E+01 -0.21271506086E+02  0.27091711139E+02  0.35441260332E+02  0.47000000000E+01 0.  1.
          5    1    4    4  503    0  0.52208430946E+02 -0.14088181580E+02  0.47157418247E+03  0.47468778865E+03  0.47000000000E+01 0. -1.
         -5    1    3    3    0  502 -0.47374561412E+02  0.59545844085E+02  0.13923452355E+03  0.15874003643E+03  0.47000000000E+01 0.  1.
<mgrwt>
<rscale>  0 0.10934781E+03</rscale>
<asrwt>0</asrwt>
<pdfrwt beam="1">  1        1 0.12004012E+00 0.10995853E+03</pdfrwt>
<pdfrwt beam="2">  1       -1 0.25675205E-02 0.10995853E+03</pdfrwt>
<totfact> 0.10744723E+04</totfact>
</mgrwt>
</event>
<event>
 8    1  0.7366917E-004  0.9588238E+02  0.7546771E-02  0.1296682E+00
          4   -1    0    0  501    0  0.00000000000E+00  0.00000000000E+00  0.13808540431E+03  0.13808540431E+03  0.00000000000E+00 0. -1.
         -4   -1    0    0    0  501 -0.00000000000E+00 -0.00000000000E+00 -0.58867617689E+02  0.58867617689E+02  0.00000000000E+00 0.  1.
         23    2    1    2    0    0 -0.94802078117E+01  0.18385639247E+02  0.26367447739E+02  0.87469736169E+02  0.80794841262E+02 0.  0.
         23    2    1    2    0    0  0.94802078117E+01 -0.18385639247E+02  0.52850338885E+02  0.10948328583E+03  0.93624385102E+02 0.  0.
          5    1    4    4  502    0  0.36703362323E+02 -0.29579717175E+02 -0.16089748469E+01  0.47400161118E+02  0.47000000000E+01 0.  1.
         -5    1    4    4    0  502 -0.27223154511E+02  0.11194077927E+02  0.54459313732E+02  0.62083124714E+02  0.47000000000E+01 0. -1.
          5    1    3    3  503    0  0.85030853291E+01 -0.24433112426E+02 -0.10169228766E+02  0.28191889909E+02  0.47000000000E+01 0. -1.
         -5    1    3    3    0  503 -0.17983293141E+02  0.42818751674E+02  0.36536676506E+02  0.59277846260E+02  0.47000000000E+01 0.  1.
<mgrwt>
<rscale>  0 0.92596979E+02</rscale>
<asrwt>0</asrwt>
<pdfrwt beam="1">  1        4 0.21243908E-01 0.95882384E+02</pdfrwt>
<pdfrwt beam="2">  1       -4 0.90565566E-02 0.95882384E+02</pdfrwt>
<totfact> 0.27269003E+03</totfact>
</mgrwt>
</event>
<event>
 7    1  0.7366917E-004  0.1807946E+03  0.7546771E-02  0.1175363E+00
          2   -1    0    0  501    0  0.00000000000E+00  0.00000000000E+00  0.59070477421E+03  0.59070477421E+03  0.00000000000E+00 0. -1.
         -2   -1    0    0    0  501 -0.00000000000E+00 -0.00000000000E+00 -0.10144824541E+03  0.10144824541E+03  0.00000000000E+00 0.  1.
         23    2    1    2    0    0 -0.92706053150E+02 -0.74337939910E+02  0.48901626158E+03  0.51135828873E+03  0.90718541478E+02 0.  0.
          5    1    1    2  502    0 -0.30787647171E+02  0.68570185838E+01  0.21403123965E+02  0.38406791556E+02  0.47000000000E+01 0. -1.
         -5    1    3    3    0  503  0.88176332145E+01 -0.28716518723E+02  0.50804935929E+02  0.59208281666E+02  0.47000000000E+01 0.  1.
          5    1    3    3  503    0 -0.10152368636E+03 -0.45621421187E+02  0.43821132565E+03  0.45215000706E+03  0.47000000000E+01 0. -1.
         -5    1    1    2    0  502  0.12349370032E+03  0.67480921326E+02 -0.21162856746E+02  0.14238793933E+03  0.47000000000E+01 0.  1.
<mgrwt>
<rscale>  0 0.17240493E+03</rscale>
<asrwt>0</asrwt>
<pdfrwt beam="1">  1        2 0.90877656E-01 0.18079457E+03</pdfrwt>
<pdfrwt beam="2">  1       -2 0.15607423E-01 0.18079457E+03</pdfrwt>
<totfact> 0.16356191E+03</totfact>
</mgrwt>
</event>
<event>
 7    1  0.7366917E-004  0.1732833E+03  0.7546771E-02  0.1199651E+00
         -2   -1    0    0    0  501 -0.00000000000E+00  0.00000000000E+00  0.31528637890E+02  0.31528637890E+02  0.00000000000E+00 0.  1.
          2   -1    0    0  501    0  0.00000000000E+00 -0.00000000000E+00 -0.61123443863E+03  0.61123443863E+03  0.00000000000E+00 0. -1.
         23    2    1    2    0    0 -0.34207929157E+02 -0.20747189433E+02 -0.15355637166E+03  0.18272999459E+03  0.90609399942E+02 0.  0.
          5    1    1    2  502    0  0.44005783214E+01  0.48522777601E+02 -0.41452465783E+03  0.41740460825E+03  0.47000000000E+01 0. -1.
         -5    1    3    3    0  503 -0.62155879277E+02 -0.21955155557E+01 -0.77569612777E+02  0.99535463246E+02  0.47000000000E+01 0.  1.
          5    1    3    3  503    0  0.27947950120E+02 -0.18551673877E+02 -0.75986758884E+02  0.83194531342E+02  0.47000000000E+01 0. -1.
         -5    1    1    2    0  502  0.29807350836E+02 -0.27775588168E+02 -0.11624771243E+02  0.42628473681E+02  0.47000000000E+01 0.  1.
<mgrwt>
<rscale>  0 0.15067111E+03</rscale>
<asrwt>0</asrwt>
<pdfrwt beam="1">  1        2 0.94036057E-01 0.17328330E+03</pdfrwt>
<pdfrwt beam="2">  1       -2 0.48505602E-02 0.17328330E+03</pdfrwt>
<totfact> 0.98255921E+03</totfact>
</mgrwt>
</event>
<event>
 8    1  0.7366917E-004  0.1033337E+03  0.7546771E-02  0.1275112E+00
         -3   -1    0    0    0  501 -0.00000000000E+00  0.00000000000E+00  0.26647396400E+03  0.26647396400E+03  0.00000000000E+00 0.  1.
          3   -1    0    0  501    0  0.00000000000E+00 -0.00000000000E+00 -0.58776575406E+02  0.58776575406E+02  0.00000000000E+00 0. -1.
         23    2    1    2    0    0  0.96493405984E+01  0.46088287193E+02  0.10182038410E+02  0.10383410185E+03  0.91981556899E+02 0.  0.
         23    2    1    2    0    0 -0.96493405984E+01 -0.46088287193E+02  0.19751535018E+03  0.22141643756E+03  0.88293177954E+02 0.  0.
          5    1    4    4  502    0  0.30268979867E+02 -0.49940219843E+02  0.10043076172E+03  0.11626979230E+03  0.47000000000E+01 0. -1.
         -5    1    4    4    0  502 -0.39918320465E+02  0.38519326498E+01  0.97084588457E+02  0.10514664526E+03  0.47000000000E+01 0.  1.
          5    1    3    3  503    0  0.47213431513E+02  0.41724723722E+02  0.16266541966E+02  0.65243781869E+02  0.47000000000E+01 0. -1.
         -5    1    3    3    0  503 -0.37564090915E+02  0.43635634707E+01 -0.60845035564E+01  0.38590319977E+02  0.47000000000E+01 0.  1.
<mgrwt>
<rscale>  0 0.10250652E+03</rscale>
<asrwt>0</asrwt>
<pdfrwt beam="1">  1        3 0.90425502E-02 0.10333367E+03</pdfrwt>
<pdfrwt beam="2">  1       -3 0.40995994E-01 0.10333367E+03</pdfrwt>
<totfact> 0.11346614E+03</totfact>
</mgrwt>
</event>
<event>
 7    1  0.7366917E-004  0.1688552E+03  0.7546771E-02  0.1206007E+00
          4   -1    0    0  501    0  0.00000000000E+00  0.00000000000E+00  0.11828367544E+03  0.11828367544E+03  0.00000000000E+00 0. -1.
         -4   -1    0    0    0  501 -0.00000000000E+00 -0.00000000000E+00 -0.18591021167E+03  0.18591021167E+03  0.00000000000E+00 0.  1.
         23    2    1    2    0    0  0.36957469856E+01  0.26604144540E+02 -0.94972328303E+02  0.13313869584E+03  0.89357317180E+02 0.  0.
          5    1    3    3  502    0 -0.13354538649E+02 -0.24492142406E+02 -0.65972670819E+02  0.71782254334E+02  0.47000000000E+01 0. -1.
         -5    1    1    2    0  503 -0.68485669694E+02  0.23473613603E+02  0.47343968960E+02  0.86630473194E+02  0.47000000000E+01 0.  1.
          5    1    1    2  503    0  0.64789922708E+02 -0.50077758143E+02 -0.19998176887E+02  0.84424718086E+02  0.47000000000E+01 0. -1.
         -5    1    3    3    0  502  0.17050285635E+02  0.51096286946E+02 -0.28999657484E+02  0.61356441505E+02  0.47000000000E+01 0.  1.
<mgrwt>
<rscale>  0 0.14558421E+03</rscale>
<asrwt>0</asrwt>
<pdfrwt beam="1">  1        4 0.18197489E-01 0.16885522E+03</pdfrwt>
<pdfrwt beam="2">  1       -4 0.28601571E-01 0.16885522E+03</pdfrwt>
<totfact> 0.53790792E+02</totfact>
</mgrwt>
</event>
<event>
 8    1  0.7366917E-004  0.1218739E+03  0.7546771E-02  0.1250233E+00
         -2   -1    0    0    0  501 -0.00000000000E+00  0.00000000000E+00  0.17439834805E+02  0.17439834805E+02  0.00000000000E+00 0.  1.
          2   -1    0    0  501    0  0.00000000000E+00 -0.00000000000E+00 -0.71425528805E+03  0.71425528805E+03  0.00000000000E+00 0. -1.
         23    2    1    2    0    0 -0.20711040547E+02 -0.34839077771E+02 -0.33367495717E+03  0.35523543418E+03  0.11493706153E+03 0.  0.
         23    2    1    2    0    0  0.20711040547E+02  0.34839077771E+02 -0.36314049608E+03  0.37645968868E+03  0.90598944621E+02 0.  0.
          5    1    3    3  502    0  0.83355544765E+01  0.40106595143E+02 -0.10545741574E+03  0.11323151936E+03  0.47000000000E+01 0. -1.
         -5    1    4    4    0  503 -0.32698113107E+02 -0.36424761470E+01 -0.12533125140E+03  0.12966281969E+03  0.47000000000E+01 0.  1.
          5    1    4    4  503    0  0.53409153654E+02  0.38481553918E+02 -0.23780924468E+03  0.24679686899E+03  0.47000000000E+01 0. -1.
         -5    1    3    3    0  502 -0.29046595024E+02 -0.74945672914E+02 -0.22821754143E+03  0.24200391482E+03  0.47000000000E+01 0.  1.
<mgrwt>
<rscale>  0 0.11577566E+03</rscale>
<asrwt>0</asrwt>
<pdfrwt beam="1">  1        2 0.10988543E+00 0.12187386E+03</pdfrwt>
<pdfrwt beam="2">  1       -2 0.26830515E-02 0.12187386E+03</pdfrwt>
<totfact> 0.19217573E+04</totfact>
</mgrwt>
</event>
<event>
 7    1  0.7366917E-004  0.1409162E+03  0.7546771E-02  0.1226077E+00
         -3   -1    0    0    0  501 -0.00000000000E+00  0.00000000000E+00  0.10529932723E+03  0.10529932723E+03  0.00000000000E+00 0.  1.
          3   -1    0    0  501    0  0.00000000000E+00 -0.00000000000E+00 -0.14385225834E+03  0.14385225834E+03  0.00000000000E+00 0. -1.
         23    2    1    2    0    0 -0.39762842339E+02 -0.30197896621E+02 -0.11474742731E+02  0.10565729408E+03  0.92405613895E+02 0.  0.
          5    1    3    3  502    0  0.47127202113E+01 -0.50396577266E+02 -0.22127655118E+02  0.55441391153E+02  0.47000000000E+01 0. -1.
         -5    1    1    2    0  503  0.36885261283E+02  0.71120436568E+02  0.18119865175E+02  0.82274288277E+02  0.47000000000E+01 0.  1.
          5    1    1    2  503    0  0.28775810556E+01 -0.40922539946E+02 -0.45198053559E+02  0.61220003217E+02  0.47000000000E+01 0. -1.
         -5    1    3    3    0  502 -0.44475562550E+02  0.20198680645E+02  0.10652912388E+02  0.50215902922E+02  0.47000000000E+01 0.  1.
<mgrwt>
<rscale>  0 0.13093373E+03</rscale>
<asrwt>0</asrwt>
<pdfrwt beam="1">  1        3 0.22131117E-01 0.14091623E+03</pdfrwt>
<pdfrwt beam="2">  1       -3 0.16199896E-01 0.14091623E+03</pdfrwt>
<totfact> 0.14077736E+03</totfact>
</mgrwt>
</event>
<event>
 8    1  0.7366917E-004  0.1678131E+03  0.7546771E-02  0.1180367E+00
          1   -1    0    0  501    0  0.00000000000E+00  0.00000000000E+00  0.17699065808E+04  0.17699065808E+04  0.00000000000E+00 0. -1.
         -1   -1    0    0    0  501 -0.00000000000E+00 -0.00000000000E+00 -0.18417850967E+02  0.18417850967E+02  0.00000000000E+00 0.  1.
         23    2    1    2    0    0  0.12226509224E+03  0.69639625707E+02  0.54262369620E+03  0.56798038242E+03  0.91448394685E+02 0.  0.
         23    2    1    2    0    0 -0.12226509224E+03 -0.69639625707E+02  0.12088650336E+04  0.12203440493E+04  0.89924963078E+02 0.  0.
          5    1    3    3  502    0 -0.78415879178E+01  0.28932326238E+02  0.76180756948E+02  0.82001022748E+02  0.47000000000E+01 0. -1.
         -5    1    3    3    0  502  0.13010668015E+03  0.40707299469E+02  0.46644293925E+03  0.48597935967E+03  0.47000000000E+01 0.  1.
          5    1    4    4  503    0 -0.13165215005E+03 -0.47115144693E+02  0.10873524839E+04  0.10963163958E+04  0.47000000000E+01 0. -1.
         -5    1    4    4    0  503  0.93870578180E+01 -0.22524481014E+02  0.12151254971E+03  0.12402765352E+03  0.47000000000E+01 0.  1.
<mgrwt>
<rscale>  0 0.16760640E+03</rscale>
<asrwt>0</asrwt>
<pdfrwt beam="1">  1        1 0.27229319E+00 0.16781311E+03</pdfrwt>
<pdfrwt beam="2">  1       -1 0.28335169E-02 0.16781311E+03</pdfrwt>
<totfact> 0.19571232E+03</totfact>
</mgrwt>
</event>
<event>
 7    1  0.7366917E-004  0.1778932E+03  0.7546771E-02  0.1198989E+00
          2   -1    0    0  501    0  0.00000000000E+00  0.00000000000E+00  0.48008722884E+02  0.48008722884E+02  0.00000000000E+00 0. -1.
         -2   -1    0    0    0  501 -0.00000000000E+00 -0.00000000000E+00 -0.48689518155E+03  0.48689518155E+03  0.00000000000E+00 0.  1.
         23    2    1    2    0    0 -0.10062889368E+02 -0.54484723850E+01 -0.28478486176E+03  0.29954609876E+03  0.92165612897E+02 0.  0.
          5    1    1    2  502    0  0.69334427513E+02  0.12195198257E+02 -0.54906852008E+00  0.70557615998E+02  0.47000000000E+01 0. -1.
         -5    1    1    2    0  502 -0.59271538145E+02 -0.67467258719E+01 -0.15355252839E+03  0.16480018968E+03  0.47000000000E+01 0.  1.
          5    1    3    3  503    0  0.75005305169E+01 -0.39317518097E+02 -0.65411095727E+02  0.76829855079E+02  0.47000000000E+01 0. -1.
         -5    1    3    3    0  503 -0.17563419885E+02  0.33869045712E+02 -0.21937376603E+03  0.22271624368E+03  0.47000000000E+01 0.  1.
<mgrwt>
<rscale>  0 0.15121408E+03</rscale>
<asrwt>0</asrwt>
<pdfrwt beam="1">  1        2 0.73859574E-02 0.17789321E+03</pdfrwt>
<pdfrwt beam="2">  1       -2 0.74906951E-01 0.17789321E+03</pdfrwt>
<totfact> 0.15215703E+03</totfact>
</mgrwt>
</event>
<event>
 8    1  0.7366917E-004  0.1671215E+03  0.7546771E-02  0.1181130E+00
         -1   -1    0    0    0  501 -0.00000000000E+00  0.00000000000E+00  0.15724525194E+03  0.15724525194E+03  0.00000000000E+00 0.  1.
          1   -1    0    0  501    0  0.00000000000E+00 -0.00000000000E+00 -0.21882367875E+03  0.21882367875E+03  0.00000000000E+00 0. -1.
         23    2    1    2    0    0 -0.12938515571E+03 -0.51592846007E+02  0.51839152946E+02  0.17409578266E+03  0.90662580397E+02 0.  0.
         23    2    1    2    0    0  0.12938515571E+03  0.51592846007E+02 -0.11341757975E+03  0.20197314803E+03  0.92343190596E+02 0.  0.
          5    1    4    4  502    0  0.68505912097E+02  0.47628132541E+02 -0.11329854547E+03  0.14078405239E+03  0.47000000000E+01 0. -1.
         -5    1    3    3    0  503 -0.10166192358E+03 -0.39194695457E+02  0.77721074019E+02  0.13391798313E+03  0.47000000000E+01 0.  1.
          5    1    3    3  503    0 -0.27723232129E+02 -0.12398150550E+02 -0.25881921073E+02  0.40177799531E+02  0.47000000000E+01 0. -1.
         -5    1    4    4    0  502  0.60879243616E+02  0.39647134660E+01 -0.11903428395E+00  0.61189095640E+02  0.47000000000E+01 0.  1.
<mgrwt>
<rscale>  0 0.16689037E+03</rscale>
<asrwt>0</asrwt>
<pdfrwt beam="1">  1        1 0.33665181E-01 0.16712153E+03</pdfrwt>
<pdfrwt beam="2">  1       -1 0.24191577E-01 0.16712153E+03</pdfrwt>
<totfact> 0.18943801E+03</totfact>
</mgrwt>
</event>
<event>
 8    1  0.7366917E-004  0.2075192E+03  0.7546771E-02  0.1143587E+00
         -2   -1    0    0    0  501 -0.00000000000E+00  0.00000000000E+00  0.14359318544E+02  0.14359318544E+02  0.00000000000E+00 0.  1.
          2   -1    0    0  501    0  0.00000000000E+00 -0.00000000000E+00 -0.30163829090E+04  0.30163829090E+04  0.00000000000E+00 0. -1.
         23    2    1    2    0    0 -0.45260804349E+02  0.18029323505E+03 -0.13758529286E+04  0.13913840448E+04  0.91782830088E+02 0.  0.
         23    2    1    2    0    0  0.45260804349E+02 -0.18029323505E+03 -0.16261706618E+04  0.16393581827E+04  0.92249872202E+02 0.  0.
          5    1    3    3  502    0 -0.18230632623E+02  0.13837195013E+03 -0.12126445734E+04  0.12206588811E+04  0.47000000000E+01 0. -1.
         -5    1    3    3    0  502 -0.27030171726E+02  0.41921284915E+02 -0.16320835516E+03  0.17072516366E+03  0.47000000000E+01 0.  1.
          5    1    4    4  503    0  0.71505624559E+02 -0.15431943631E+03 -0.13575053830E+04  0.13681266380E+04  0.47000000000E+01 0. -1.
         -5    1    4    4    0  503 -0.26244820211E+02 -0.25973798737E+02 -0.26866527882E+03  0.27123154472E+03  0.47000000000E+01 0.  1.
<mgrwt>
<rscale>  0 0.20746741E+03</rscale>
<asrwt>0</asrwt>
<pdfrwt beam="1">  1        2 0.46405874E+00 0.20751923E+03</pdfrwt>
<pdfrwt beam="2">  1       -2 0.22091267E-02 0.20751923E+03</pdfrwt>
<totfact> 0.13751476E+03</totfact>
</mgrwt>
</event>
<event>
 8    1  0.7366917E-004  0.9591276E+02  0.7546771E-02  0.1290007E+00
          2   -1    0    0  501    0  0.00000000000E+00  0.00000000000E+00  0.36659164455E+03  0.36659164455E+03  0.00000000000E+00 0. -1.
         -2   -1    0    0    0  501 -0.00000000000E+00 -0.00000000000E+00 -0.26540620731E+02  0.26540620731E+02  0.00000000000E+00 0.  1.
         23    2    1    2    0    0  0.16781381823E+02 -0.18628497197E+02  0.11680005600E+03  0.15015026399E+03  0.90962701212E+02 0.  0.
         23    2    1    2    0    0 -0.16781381823E+02  0.18628497197E+02  0.22325096782E+03  0.24298200129E+03  0.92577657316E+02 0.  0.
          5    1    3    3  502    0  0.39709033337E+02 -0.39593971164E+02  0.99424282770E+02  0.11424433415E+03  0.47000000000E+01 0. -1.
         -5    1    3    3    0  502 -0.22927651514E+02  0.20965473967E+02  0.17375773232E+02  0.35905929844E+02  0.47000000000E+01 0.  1.
          5    1    4    4  503    0 -0.10185275481E+02 -0.25086070232E+02  0.17588879299E+03  0.17802249368E+03  0.47000000000E+01 0. -1.
         -5    1    4    4    0  503 -0.65961063422E+01  0.43714567429E+02  0.47362174833E+02  0.64959507613E+02  0.47000000000E+01 0.  1.
<mgrwt>
<rscale>  0 0.95520905E+02</rscale>
<asrwt>0</asrwt>
<pdfrwt beam="1">  1        2 0.56398711E-01 0.95912764E+02</pdfrwt>
<pdfrwt beam="2">  1       -2 0.40831727E-02 0.95912764E+02</pdfrwt>
<totfact> 0.21161195E+04</totfact>
</mgrwt>
</event>
<event>
 8    1  0.7366917E-004  0.9773649E+02  0.7546771E-02  0.1286344E+00
         -1   -1    0    0    0  501 -0.00000000000E+00  0.00000000000E+00  0.15297835552E+02  0.15297835552E+02  0.00000000000E+00 0.  1.
          1   -1    0    0  501    0  0.00000000000E+00 -0.00000000000E+00 -0.61870200583E+03  0.61870200583E+03  0.00000000000E+00 0. -1.
         23    2    1    2    0    0  0.14056820622E+02  0.60474936810E+01 -0.33507872707E+03  0.34842854707E+03  0.94289621359E+02 0.  0.
         23    2    1    2    0    0 -0.14056820622E+02 -0.60474936810E+01 -0.26832544320E+03  0.28557129430E+03  0.96531105213E+02 0.  0.
          5    1    4    4  502    0 -0.24119400277E+02  0.19805119507E+02 -0.25001875105E+03  0.25200288511E+03  0.47000000000E+01 0. -1.
         -5    1    4    4    0  502  0.10062579655E+02 -0.25852613188E+02 -0.18306692153E+02  0.33568409190E+02  0.47000000000E+01 0.  1.
          5    1    3    3  503    0  0.85890499936E+01  0.49973118002E+02 -0.18617223718E+03  0.19301107792E+03  0.47000000000E+01 0. -1.
         -5    1    3    3    0  503  0.54677706285E+01 -0.43925624321E+02 -0.14890648989E+03  0.15541746916E+03  0.47000000000E+01 0.  1.
<mgrwt>
<rscale>  0 0.97178426E+02</rscale>
<asrwt>0</asrwt>
<pdfrwt beam="1">  1        1 0.95184931E-01 0.97736486E+02</pdfrwt>
<pdfrwt beam="2">  1       -1 0.23535130E-02 0.97736486E+02</pdfrwt>
<totfact> 0.16740010E+04</totfact>
</mgrwt>
</event>
<event>
 8    1  0.7366917E-004  0.9150680E+02  0.7546771E-02  0.1299685E+00
         -1   -1    0    0    0  501 -0.00000000000E+00  0.00000000000E+00  0.79421971820E+02  0.79421971820E+02  0.00000000000E+00 0.  1.
          1   -1    0    0  501    0  0.00000000000E+00 -0.00000000000E+00 -0.15845325261E+03  0.15845325261E+03  0.00000000000E+00 0. -1.
         23    2    1    2    0    0 -0.24361075281E+01 -0.16604578071E+02  0.29943833625E+02  0.95576000123E+02  0.89199170369E+02 0.  0.
         23    2    1    2    0    0  0.24361075281E+01  0.16604578071E+02 -0.10897511441E+03  0.14229922430E+03  0.89954694393E+02 0.  0.
          5    1    3    3  502    0 -0.23860062863E+02 -0.27017593961E+02 -0.18944362553E+02  0.40990631317E+02  0.47000000000E+01 0. -1.
         -5    1    3    3    0  502  0.21423955335E+02  0.10413015890E+02  0.48888196179E+02  0.54585368806E+02  0.47000000000E+01 0.  1.
          5    1    4    4  503    0 -0.21756799252E+02  0.43468955579E+02 -0.35824101471E+02  0.60567026169E+02  0.47000000000E+01 0. -1.
         -5    1    4    4    0  503  0.24192906780E+02 -0.26864377508E+02 -0.73151012943E+02  0.81732198135E+02  0.47000000000E+01 0.  1.
<mgrwt>
<rscale>  0 0.91320577E+02</rscale>
<asrwt>0</asrwt>
<pdfrwt beam="1">  1        1 0.24377423E-01 0.91506796E+02</pdfrwt>
<pdfrwt beam="2">  1       -1 0.12218765E-01 0.91506796E+02</pdfrwt>
<totfact> 0.80580973E+03</totfact>
</mgrwt>
</event>
<event>
 8    1  0.7366917E-004  0.1207494E+03  0.7546771E-02  0.1242204E+00
          1   -1    0    0  501    0  0.00000000000E+00  0.00000000000E+00  0.28729124726E+03  0.28729124726E+03  0.00000000000E+00 0. -1.
         -1   -1    0    0    0  501 -0.00000000000E+00 -0.00000000000E+00 -0.54860494278E+02  0.54860494278E+02  0.00000000000E+00 0.  1.
         23    2    1    2    0    0 -0.54970824850E+02  0.55546065606E+02  0.67098387527E+02  0.13741967597E+03  0.90966019727E+02 0.  0.
         23    2    1    2    0    0  0.54970824850E+02 -0.55546065606E+02  0.16533236545E+03  0.20473206557E+03  0.92050370000E+02 0.  0.
          5    1    4    4  502    0  0.51124321714E+01 -0.23534548655E+02  0.13647001915E+03  0.13865845834E+03  0.47000000000E+01 0. -1.
         -5    1    3    3    0  503 -0.72963363328E+02  0.33498175534E+02  0.21131598994E+02  0.83152959228E+02  0.47000000000E+01 0.  1.
          5    1    3    3  503    0  0.17992538478E+02  0.22047890073E+02  0.45966788533E+02  0.54266716739E+02  0.47000000000E+01 0. -1.
         -5    1    4    4    0  502  0.49858392678E+02 -0.32011516952E+02  0.28862346304E+02  0.66073607229E+02  0.47000000000E+01 0.  1.
<mgrwt>
<rscale>  0 0.12054277E+03</rscale>
<asrwt>0</asrwt>
<pdfrwt beam="1">  1        1 0.44198652E-01 0.12074944E+03</pdfrwt>
<pdfrwt beam="2">  1       -1 0.84400762E-02 0.12074944E+03</pdfrwt>
<totfact> 0.69322067E+03</totfact>
</mgrwt>
</event>
<event>
 8    1  0.7366917E-004  0.1179226E+03  0.7546771E-02  0.1247265E+00
          2   -1    0    0  501    0  0.00000000000E+00  0.00000000000E+00  0.12485606487E+04  0.12485606487E+04  0.00000000000E+00 0. -1.
         -2   -1    0    0    0  501 -0.00000000000E+00 -0.00000000000E+00 -0.13241119201E+02  0.13241119201E+02  0.00000000000E+00 0.  1.
         23    2    1    2    0    0  0.61196328468E+02  0.44311634890E+02  0.36069073412E+03  0.37947800575E+03  0.90538608134E+02 0.  0.
         23    2    1    2    0    0 -0.61196328468E+02 -0.44311634890E+02  0.87462879535E+03  0.88232376212E+03  0.88380879983E+02 0.  0.
          5    1    3    3  502    0 -0.10833783198E+02  0.23503414764E+02  0.20423292381E+03  0.20591978665E+03  0.47000000000E+01 0. -1.
         -5    1    4    4    0  503 -0.26914534255E+02  0.21707074588E+02  0.15682734366E+03  0.16066267445E+03  0.47000000000E+01 0.  1.
          5    1    4    4  503    0 -0.34281794212E+02 -0.66018709478E+02  0.71780145169E+03  0.72166108768E+03  0.47000000000E+01 0. -1.
         -5    1    3    3    0  502  0.72030111666E+02  0.20808220126E+02  0.15645781030E+03  0.17355821910E+03  0.47000000000E+01 0.  1.
<mgrwt>
<rscale>  0 0.11750836E+03</rscale>
<asrwt>0</asrwt>
<pdfrwt beam="1">  1        2 0.19208616E+00 0.11792265E+03</pdfrwt>
<pdfrwt beam="2">  1       -2 0.20370962E-02 0.11792265E+03</pdfrwt>
<totfact> 0.13506473E+04</totfact>
</mgrwt>
</event>
<event>
 8    1  0.7366917E-004  0.1894439E+03  0.7546771E-02  0.1159334E+00
         -1   -1    0    0    0  501 -0.00000000000E+00  0.00000000000E+00  0.73329007836E+02  0.73329007836E+02  0.00000000000E+00 0.  1.
          1   -1    0    0  501    0  0.00000000000E+00 -0.00000000000E+00 -0.48538009778E+03  0.48538009778E+03  0.00000000000E+00 0. -1.
         23    2    1    2    0    0  0.11851061514E+03  0.11597883210E+03 -0.20999228923E+03  0.28173123534E+03  0.88203582877E+02 0.  0.
         23    2    1    2    0    0 -0.11851061514E+03 -0.11597883210E+03 -0.20205880072E+03  0.27697787028E+03  0.91614007020E+02 0.  0.
          5    1    4    4  502    0 -0.98067686230E+02 -0.11243882033E+03 -0.20693359301E+03  0.25515360338E+03  0.47000000000E+01 0. -1.
         -5    1    4    4    0  502 -0.20442928915E+02 -0.35400117631E+01  0.48747922953E+01  0.21824266903E+02  0.47000000000E+01 0.  1.
          5    1    3    3  503    0  0.24436450209E+02 -0.12752308362E+02 -0.25493437104E+02  0.37838694517E+02  0.47000000000E+01 0. -1.
         -5    1    3    3    0  503  0.94074164936E+02  0.12873114046E+03 -0.18449885213E+03  0.24389254082E+03  0.47000000000E+01 0.  1.
<mgrwt>
<rscale>  0 0.18903618E+03</rscale>
<asrwt>0</asrwt>
<pdfrwt beam="1">  1        1 0.74673863E-01 0.18944387E+03</pdfrwt>
<pdfrwt beam="2">  1       -1 0.11281386E-01 0.18944387E+03</pdfrwt>
<totfact> 0.23451577E+03</totfact>
</mgrwt>
</event>
<event>
 8    1  0.7366917E-004  0.1048329E+03  0.7546771E-02  0.1276464E+00
          2   -1    0    0  501    0  0.00000000000E+00  0.00000000000E+00  0.46199494105E+03  0.46199494105E+03  0.00000000000E+00 0. -1.
         -2   -1    0    0    0  501 -0.00000000000E+00 -0.00000000000E+00 -0.28164731406E+02  0.28164731406E+02  0.00000000000E+00 0.  1.
         23    2    1    2    0    0 -0.32464205441E+01 -0.36977959100E+02  0.10518438937E+03  0.14850482265E+03  0.98040899010E+02 0.  0.
         23    2    1    2    0    0  0.32464205441E+01  0.36977959100E+02  0.32864582028E+03  0.34165484981E+03  0.85685777728E+02 0.  0.
          5    1    3    3  502    0 -0.47275866039E+02 -0.34640355416E+01  0.61837787717E+02  0.78057728904E+02  0.47000000000E+01 0. -1.
         -5    1    4    4    0  503  0.20649228380E+02  0.52528848098E+02  0.29530199900E+03  0.30068427150E+03  0.47000000000E+01 0.  1.
          5    1    4    4  503    0 -0.17402807836E+02 -0.15550888998E+02  0.33343821278E+02  0.40970578305E+02  0.47000000000E+01 0. -1.
         -5    1    3    3    0  502  0.44029445495E+02 -0.33513923558E+02  0.43346601655E+02  0.70447093750E+02  0.47000000000E+01 0.  1.
<mgrwt>
<rscale>  0 0.10184445E+03</rscale>
<asrwt>0</asrwt>
<pdfrwt beam="1">  1        2 0.71076139E-01 0.10483285E+03</pdfrwt>
<pdfrwt beam="2">  1       -2 0.43330360E-02 0.10483285E+03</pdfrwt>
<totfact> 0.15296883E+04</totfact>
</mgrwt>
</event>
<event>
 8    1  0.7366917E-004  0.9945489E+02  0.7546771E-02  0.1284944E+00
          2   -1    0    0  501    0  0.00000000000E+00  0.00000000000E+00  0.61801854408E+02  0.61801854408E+02  0.00000000000E+00 0.  1.
         -2   -1    0    0    0  501 -0.00000000000E+00 -0.00000000000E+00 -0.21836186420E+03  0.21836186420E+03  0.00000000000E+00 0. -1.
         23    2    1    2    0    0 -0.55548066208E+01  0.41415260469E+02  0.18728703116E+01  0.93101553959E+02  0.83176391062E+02 0.  0.
         23    2    1    2    0    0  0.55548066208E+01 -0.41415260469E+02 -0.15843288011E+03  0.18706216465E+03  0.90250741099E+02 0.  0.
          5    1    3    3  502    0 -0.23111280875E+02 -0.14083471660E+02 -0.16298759485E+02  0.31940805225E+02  0.47000000000E+01 0. -1.
         -5    1    4    4    0  503  0.25437239936E+02 -0.17895134315E+02 -0.15203873302E+03  0.15525835032E+03  0.47000000000E+01 0. -1.
          5    1    4    4  503    0 -0.19882433315E+02 -0.23520126154E+02 -0.63941470897E+01  0.31803814328E+02  0.47000000000E+01 0.  1.
         -5    1    3    3    0  502  0.17556474254E+02  0.55498732129E+02  0.18171629796E+02  0.61160748734E+02  0.47000000000E+01 0.  1.
<mgrwt>
<rscale>  0 0.97822077E+02</rscale>
<asrwt>0</asrwt>
<pdfrwt beam="1">  1        2 0.95079776E-02 0.99454894E+02</pdfrwt>
<pdfrwt beam="2">  1       -2 0.33594133E-01 0.99454894E+02</pdfrwt>
<totfact> 0.52508688E+03</totfact>
</mgrwt>
</event>
<event>
 8    1  0.7366917E-004  0.9552286E+02  0.7546771E-02  0.1290789E+00
          2   -1    0    0  501    0  0.00000000000E+00  0.00000000000E+00  0.47323913274E+03  0.47323913274E+03  0.00000000000E+00 0.  1.
         -2   -1    0    0    0  501 -0.00000000000E+00 -0.00000000000E+00 -0.29307072557E+02  0.29307072557E+02  0.00000000000E+00 0. -1.
         23    2    1    2    0    0  0.29598212517E+02  0.34541995749E+01  0.74016960583E+02  0.12084339871E+03  0.90755886194E+02 0.  0.
         23    2    1    2    0    0 -0.29598212517E+02 -0.34541995749E+01  0.36991509960E+03  0.38170280658E+03  0.89285306548E+02 0.  0.
          5    1    4    4  502    0  0.21083992313E+02 -0.81859106456E+01  0.29487788069E+02  0.37458824197E+02  0.47000000000E+01 0. -1.
         -5    1    4    4    0  502 -0.50682204830E+02  0.47317110707E+01  0.34042731153E+03  0.34424398239E+03  0.47000000000E+01 0.  1.
          5    1    3    3  503    0  0.47283985444E+02 -0.25323710416E+02  0.20977198775E+02  0.57785798057E+02  0.47000000000E+01 0. -1.
         -5    1    3    3    0  503 -0.17685772927E+02  0.28777909991E+02  0.53039761807E+02  0.63057600652E+02  0.47000000000E+01 0.  1.
<mgrwt>
<rscale>  0 0.95171911E+02</rscale>
<asrwt>0</asrwt>
<pdfrwt beam="1">  1        2 0.72806015E-01 0.95522859E+02</pdfrwt>
<pdfrwt beam="2">  1       -2 0.45087807E-02 0.95522859E+02</pdfrwt>
<totfact> 0.13939447E+04</totfact>
</mgrwt>
</event>
<event>
 8    1  0.7366917E-004  0.1165046E+03  0.7546771E-02  0.1249920E+00
          2   -1    0    0  501    0  0.00000000000E+00  0.00000000000E+00  0.77150180974E+03  0.77150180974E+03  0.00000000000E+00 0. -1.
         -2   -1    0    0    0  501 -0.00000000000E+00 -0.00000000000E+00 -0.17323510948E+02  0.17323510948E+02  0.00000000000E+00 0.  1.
         23    2    1    2    0    0 -0.65449233720E+02 -0.18238829071E+02  0.39622291961E+03  0.41238757918E+03  0.91949205344E+02 0.  0.
         23    2    1    2    0    0  0.65449233720E+02  0.18238829071E+02  0.35795537919E+03  0.37643774151E+03  0.94641759604E+02 0.  0.
          5    1    3    3  502    0 -0.24537674607E+02  0.18141876310E+02  0.29996543347E+03  0.30155028839E+03  0.47000000000E+01 0. -1.
         -5    1    3    3    0  502 -0.40911559113E+02 -0.36380705382E+02  0.96257486132E+02  0.11083729079E+03  0.47000000000E+01 0.  1.
          5    1    4    4  503    0 -0.61417683812E+01  0.40268497663E+02  0.11108679345E+03  0.11841300141E+03  0.47000000000E+01 0. -1.
         -5    1    4    4    0  503  0.71591002102E+02 -0.22029668592E+02  0.24686858574E+03  0.25802474010E+03  0.47000000000E+01 0.  1.
<mgrwt>
<rscale>  0 0.11595661E+03</rscale>
<asrwt>0</asrwt>
<pdfrwt beam="1">  1        2 0.11869256E+00 0.11650459E+03</pdfrwt>
<pdfrwt beam="2">  1       -2 0.26651561E-02 0.11650459E+03</pdfrwt>
<totfact> 0.17621758E+04</totfact>
</mgrwt>
</event>
<event>
 8    1  0.7366917E-004  0.1116707E+03  0.7546771E-02  0.1262975E+00
         -3   -1    0    0    0  501 -0.00000000000E+00  0.00000000000E+00  0.43182358297E+02  0.43182358297E+02  0.00000000000E+00 0.  1.
          3   -1    0    0  501    0  0.00000000000E+00 -0.00000000000E+00 -0.38976190506E+03  0.38976190506E+03  0.00000000000E+00 0. -1.
         23    2    1    2    0    0 -0.44542151348E+02  0.46904220795E+02 -0.54768120525E+02  0.12437797978E+03  0.91029257126E+02 0.  0.
         23    2    1    2    0    0  0.44542151348E+02 -0.46904220795E+02 -0.29181142624E+03  0.30856628358E+03  0.76650073079E+02 0.  0.
          5    1    4    4  502    0  0.51879211847E+02 -0.22567607436E+02 -0.26616882629E+03  0.27215562390E+03  0.47000000000E+01 0. -1.
         -5    1    4    4    0  502 -0.73370604995E+01 -0.24336613359E+02 -0.25642599940E+02  0.36410659679E+02  0.47000000000E+01 0.  1.
          5    1    3    3  503    0 -0.32553691552E+02 -0.89972734822E+01 -0.57606429199E+02  0.66942396497E+02  0.47000000000E+01 0. -1.
         -5    1    3    3    0  503 -0.11988459796E+02  0.55901494278E+02  0.28383086740E+01  0.57435583281E+02  0.47000000000E+01 0.  1.
<mgrwt>
<rscale>  0 0.10871137E+03</rscale>
<asrwt>0</asrwt>
<pdfrwt beam="1">  1        3 0.59963369E-01 0.11167065E+03</pdfrwt>
<pdfrwt beam="2">  1       -3 0.66434399E-02 0.11167065E+03</pdfrwt>
<totfact> 0.89065304E+02</totfact>
</mgrwt>
</event>
<event>
 8    1  0.7366917E-004  0.9286605E+02  0.7546771E-02  0.1299606E+00
          1   -1    0    0  501    0  0.00000000000E+00  0.00000000000E+00  0.19880420198E+03  0.19880420198E+03  0.00000000000E+00 0. -1.
         -1   -1    0    0    0  501 -0.00000000000E+00 -0.00000000000E+00 -0.24712445726E+03  0.24712445726E+03  0.00000000000E+00 0.  1.
         23    2    1    2    0    0 -0.18201658433E+02  0.73740944174E+01 -0.22780644229E+03  0.24384106567E+03  0.84717250425E+02 0.  0.
         23    2    1    2    0    0  0.18201658433E+02 -0.73740944174E+01  0.17948618701E+03  0.20208759357E+03  0.90765778276E+02 0.  0.
          5    1    3    3  502    0 -0.20369673273E+02 -0.29524246023E+02 -0.17800665018E+03  0.18164542989E+03  0.47000000000E+01 0. -1.
         -5    1    4    4    0  503 -0.26862994193E+01  0.39489907031E+02  0.60804149682E+02  0.72704219825E+02  0.47000000000E+01 0.  1.
          5    1    4    4  503    0  0.20887957853E+02 -0.46864001448E+02  0.11868203733E+03  0.12938337374E+03  0.47000000000E+01 0. -1.
         -5    1    3    3    0  502  0.21680148394E+01  0.36898340440E+02 -0.49799792116E+02  0.62195635782E+02  0.47000000000E+01 0.  1.
<mgrwt>
<rscale>  0 0.91353941E+02</rscale>
<asrwt>0</asrwt>
<pdfrwt beam="1">  1        1 0.30585262E-01 0.92866055E+02</pdfrwt>
<pdfrwt beam="2">  1       -1 0.38019147E-01 0.92866055E+02</pdfrwt>
<totfact> 0.98178963E+02</totfact>
</mgrwt>
</event>
<event>
 8    1  0.7366917E-004  0.1028611E+03  0.7546771E-02  0.1276154E+00
          1   -1    0    0  501    0  0.00000000000E+00  0.00000000000E+00  0.29515523805E+03  0.29515523805E+03  0.00000000000E+00 0. -1.
         -1   -1    0    0    0  501 -0.00000000000E+00 -0.00000000000E+00 -0.34665766635E+02  0.34665766635E+02  0.00000000000E+00 0.  1.
         23    2    1    2    0    0  0.30693190557E+02 -0.23573800267E+02  0.13288154013E+03  0.16804142004E+03  0.95302776119E+02 0.  0.
         23    2    1    2    0    0 -0.30693190557E+02  0.23573800267E+02  0.12760793128E+03  0.16177958464E+03  0.91602695788E+02 0.  0.
          5    1    4    4  502    0 -0.55194596535E+02  0.33792058348E+02  0.11494218267E+03  0.13199296212E+03  0.47000000000E+01 0. -1.
         -5    1    3    3    0  503  0.14719852261E+02 -0.60192602297E+02  0.88536349004E+02  0.10816930487E+03  0.47000000000E+01 0.  1.
          5    1    3    3  503    0  0.15973338296E+02  0.36618802030E+02  0.44345191129E+02  0.59872115168E+02  0.47000000000E+01 0. -1.
         -5    1    4    4    0  502  0.24501405977E+02 -0.10218258081E+02  0.12665748614E+02  0.29786622518E+02  0.47000000000E+01 0.  1.
<mgrwt>
<rscale>  0 0.10199567E+03</rscale>
<asrwt>0</asrwt>
<pdfrwt beam="1">  1        1 0.45408497E-01 0.10286114E+03</pdfrwt>
<pdfrwt beam="2">  1       -1 0.53331951E-02 0.10286114E+03</pdfrwt>
<totfact> 0.13114817E+04</totfact>
</mgrwt>
</event>
<event>
 8    1  0.7366917E-004  0.9396424E+02  0.7546771E-02  0.1295704E+00
         -1   -1    0    0    0  501 -0.00000000000E+00  0.00000000000E+00  0.26985627927E+03  0.26985627927E+03  0.00000000000E+00 0.  1.
          1   -1    0    0  501    0  0.00000000000E+00 -0.00000000000E+00 -0.31433243396E+02  0.31433243396E+02  0.00000000000E+00 0. -1.
         23    2    1    2    0    0  0.10555455358E+02  0.81507153844E+01  0.11718885479E+03  0.14790437154E+03  0.89244740098E+02 0.  0.
         23    2    1    2    0    0 -0.10555455358E+02 -0.81507153844E+01  0.12123418109E+03  0.15338515113E+03  0.93013042760E+02 0.  0.
          5    1    4    4  502    0 -0.29081829815E+02  0.59364069406E+01  0.20821472063E+00  0.30052073242E+02  0.47000000000E+01 0. -1.
         -5    1    4    4    0  502  0.18526374456E+02 -0.14087122325E+02  0.12102596637E+03  0.12333307789E+03  0.47000000000E+01 0.  1.
          5    1    3    3  503    0  0.11675568293E+02 -0.27421199747E+02  0.10613839365E+03  0.11034350773E+03  0.47000000000E+01 0. -1.
         -5    1    3    3    0  503 -0.11201129341E+01  0.35571915132E+02  0.11050461137E+02  0.37560863814E+02  0.47000000000E+01 0.  1.
<mgrwt>
<rscale>  0 0.93017894E+02</rscale>
<asrwt>0</asrwt>
<pdfrwt beam="1">  1        1 0.48358838E-02 0.93964237E+02</pdfrwt>
<pdfrwt beam="2">  1       -1 0.41516349E-01 0.93964237E+02</pdfrwt>
<totfact> 0.91731693E+03</totfact>
</mgrwt>
</event>
<event>
 8    1  0.7366917E-004  0.1127720E+03  0.7546771E-02  0.1259963E+00
         -2   -1    0    0    0  501 -0.00000000000E+00  0.00000000000E+00  0.33210674899E+03  0.33210674899E+03  0.00000000000E+00 0.  1.
          2   -1    0    0  501    0  0.00000000000E+00 -0.00000000000E+00 -0.35212985100E+02  0.35212985100E+02  0.00000000000E+00 0. -1.
         23    2    1    2    0    0  0.15276296952E+02  0.65769507865E+02  0.14704775363E+03  0.18531209621E+03  0.90324624226E+02 0.  0.
         23    2    1    2    0    0 -0.15276296952E+02 -0.65769507865E+02  0.14984601026E+03  0.18200763788E+03  0.78191815697E+02 0.  0.
          5    1    3    3  502    0  0.22088499000E+00  0.51330916135E+02  0.18142994165E+02  0.54645859667E+02  0.47000000000E+01 0. -1.
         -5    1    3    3    0  502  0.15055411962E+02  0.14438591730E+02  0.12890475946E+03  0.13066623654E+03  0.47000000000E+01 0.  1.
          5    1    4    4  503    0 -0.36246614730E+02 -0.29384627062E+01  0.47503138323E+02  0.60009080921E+02  0.47000000000E+01 0. -1.
         -5    1    4    4    0  503  0.20970317778E+02 -0.62831045159E+02  0.10234287194E+03  0.12199855696E+03  0.47000000000E+01 0.  1.
<mgrwt>
<rscale>  0 0.11032822E+03</rscale>
<asrwt>0</asrwt>
<pdfrwt beam="1">  1        2 0.54173826E-02 0.11277203E+03</pdfrwt>
<pdfrwt beam="2">  1       -2 0.51093344E-01 0.11277203E+03</pdfrwt>
<totfact> 0.48590899E+03</totfact>
</mgrwt>
</event>
<event>
 8    1  0.7366917E-004  0.9825145E+02  0.7546771E-02  0.1284636E+00
         -1   -1    0    0    0  501 -0.00000000000E+00  0.00000000000E+00  0.46926724968E+03  0.46926724968E+03  0.00000000000E+00 0.  1.
          1   -1    0    0  501    0  0.00000000000E+00 -0.00000000000E+00 -0.20524015310E+02  0.20524015310E+02  0.00000000000E+00 0. -1.
         23    2    1    2    0    0  0.18315385813E+02 -0.16265834466E+02  0.19939801378E+03  0.22178681273E+03  0.93966971182E+02 0.  0.
         23    2    1    2    0    0 -0.18315385813E+02  0.16265834466E+02  0.24934522059E+03  0.26800445226E+03  0.95148918394E+02 0.  0.
          5    1    3    3  502    0 -0.24673563879E+02 -0.40107277175E+02  0.10767844308E+03  0.11761851700E+03  0.47000000000E+01 0. -1.
         -5    1    3    3    0  502  0.42988949692E+02  0.23841442709E+02  0.91719570700E+02  0.10416829573E+03  0.47000000000E+01 0.  1.
          5    1    4    4  503    0 -0.47779226064E+02  0.53384170567E+01  0.65237660371E+02  0.81175091442E+02  0.47000000000E+01 0. -1.
         -5    1    4    4    0  503  0.29463840251E+02  0.10927417409E+02  0.18410756022E+03  0.18682936082E+03  0.47000000000E+01 0.  1.
<mgrwt>
<rscale>  0 0.97964148E+02</rscale>
<asrwt>0</asrwt>
<pdfrwt beam="1">  1        1 0.31575412E-02 0.98251450E+02</pdfrwt>
<pdfrwt beam="2">  1       -1 0.72194953E-01 0.98251450E+02</pdfrwt>
<totfact> 0.59182421E+03</totfact>
</mgrwt>
</event>
<event>
 8    1  0.7366917E-004  0.1562869E+03  0.7546771E-02  0.1193553E+00
          3   -1    0    0  501    0  0.00000000000E+00  0.00000000000E+00  0.52817594209E+03  0.52817594209E+03  0.00000000000E+00 0. -1.
         -3   -1    0    0    0  501 -0.00000000000E+00 -0.00000000000E+00 -0.72233776741E+02  0.72233776741E+02  0.00000000000E+00 0.  1.
         23    2    1    2    0    0  0.10111270912E+03  0.71281001701E+02  0.44881967032E+02  0.16064151526E+03  0.92122441955E+02 0.  0.
         23    2    1    2    0    0 -0.10111270912E+03 -0.71281001701E+02  0.41106019831E+03  0.43976820357E+03  0.95503010866E+02 0.  0.
          5    1    4    4  502    0 -0.79786109108E+02 -0.71520147250E+02  0.40210674929E+03  0.41616448971E+03  0.47000000000E+01 0. -1.
         -5    1    4    4    0  502 -0.21326600009E+02  0.23914554949E+00  0.89534490206E+01  0.23603713858E+02  0.47000000000E+01 0.  1.
          5    1    3    3  503    0  0.70688075228E+02  0.79994338186E+02  0.62828282644E+02  0.12395717495E+03  0.47000000000E+01 0. -1.
         -5    1    3    3    0  503  0.30424633889E+02 -0.87133364848E+01 -0.17946315612E+02  0.36684340311E+02  0.47000000000E+01 0.  1.
<mgrwt>
<rscale>  0 0.15577371E+03</rscale>
<asrwt>0</asrwt>
<pdfrwt beam="1">  1        3 0.81257835E-01 0.15628687E+03</pdfrwt>
<pdfrwt beam="2">  1       -3 0.11112889E-01 0.15628687E+03</pdfrwt>
<totfact> 0.21201405E+02</totfact>
</mgrwt>
</event>
<event>
 8    1  0.1003794E-003  0.1164211E+03  0.7546771E-02  0.1254929E+00
         -1   -1    0    0    0  501 -0.00000000000E+00  0.00000000000E+00  0.12364148808E+03  0.12364148808E+03  0.00000000000E+00 0.  1.
          1   -1    0    0  501    0  0.00000000000E+00 -0.00000000000E+00 -0.19656992059E+03  0.19656992059E+03  0.00000000000E+00 0. -1.
         23    2    1    2    0    0 -0.47788168373E+02  0.13729317289E+02 -0.14870904264E+03  0.18129933295E+03  0.91010249839E+02 0.  0.
         23    2    1    2    0    0  0.47788168373E+02 -0.13729317289E+02  0.75780610137E+02  0.13891207572E+03  0.10526946717E+03 0.  0.
          5    1    3    3  502    0 -0.69825669843E+02  0.99399701541E+01 -0.70550957030E+02  0.99869688662E+02  0.47000000000E+01 0. -1.
         -5    1    4    4    0  503  0.59851425832E+02  0.30210637875E+02  0.61042963158E+02  0.90792120617E+02  0.47000000000E+01 0.  1.
          5    1    4    4  503    0 -0.12063257459E+02 -0.43939955164E+02  0.14737646978E+02  0.48119955100E+02  0.47000000000E+01 0. -1.
         -5    1    3    3    0  502  0.22037501470E+02  0.37893471346E+01 -0.78158085610E+02  0.81429644289E+02  0.47000000000E+01 0.  1.
<mgrwt>
<rscale>  0 0.11310331E+03</rscale>
<asrwt>0</asrwt>
<pdfrwt beam="1">  1        1 0.30241526E-01 0.11642106E+03</pdfrwt>
<pdfrwt beam="2">  1       -1 0.19021768E-01 0.11642106E+03</pdfrwt>
<totfact> 0.31461046E+03</totfact>
</mgrwt>
</event>
<event>
 8    1  0.7366917E-004  0.1396078E+03  0.7546771E-02  0.1214193E+00
          1   -1    0    0  501    0  0.00000000000E+00  0.00000000000E+00  0.77063101744E+03  0.77063101744E+03  0.00000000000E+00 0. -1.
         -1   -1    0    0    0  501 -0.00000000000E+00 -0.00000000000E+00 -0.26392567159E+02  0.26392567159E+02  0.00000000000E+00 0.  1.
         23    2    1    2    0    0  0.77575743164E+02 -0.68643436600E+02  0.28562039590E+03  0.31791406952E+03  0.93597156620E+02 0.  0.
         23    2    1    2    0    0 -0.77575743164E+02  0.68643436600E+02  0.45861805438E+03  0.47910951508E+03  0.92116721190E+02 0.  0.
          5    1    4    4  502    0 -0.27201922621E+02  0.47612618890E+02  0.37579734135E+03  0.37980605293E+03  0.47000000000E+01 0. -1.
         -5    1    4    4    0  502 -0.50373820543E+02  0.21030817710E+02  0.82820713028E+02  0.99303462156E+02  0.47000000000E+01 0.  1.
          5    1    3    3  503    0  0.27154378657E+02 -0.23161165017E+02  0.22148680825E+03  0.22439317296E+03  0.47000000000E+01 0. -1.
         -5    1    3    3    0  503  0.50421364507E+02 -0.45482271583E+02  0.64133587655E+02  0.93520896556E+02  0.47000000000E+01 0.  1.
<mgrwt>
<rscale>  0 0.13936012E+03</rscale>
<asrwt>0</asrwt>
<pdfrwt beam="1">  1        1 0.11855860E+00 0.13960783E+03</pdfrwt>
<pdfrwt beam="2">  1       -1 0.40603955E-02 0.13960783E+03</pdfrwt>
<totfact> 0.56952165E+03</totfact>
</mgrwt>
</event>
<event>
 8    1  0.7366917E-004  0.1015081E+03  0.7546771E-02  0.1277763E+00
          1   -1    0    0  501    0  0.00000000000E+00  0.00000000000E+00  0.25775398282E+03  0.25775398282E+03  0.00000000000E+00 0. -1.
         -1   -1    0    0    0  501 -0.00000000000E+00 -0.00000000000E+00 -0.39654142594E+02  0.39654142594E+02  0.00000000000E+00 0.  1.
         23    2    1    2    0    0  0.31775375547E+02  0.32925699697E+02  0.99637872348E+02  0.14140450942E+03  0.89295876082E+02 0.  0.
         23    2    1    2    0    0 -0.31775375547E+02 -0.32925699697E+02  0.11846196788E+03  0.15600361600E+03  0.90609680384E+02 0.  0.
          5    1    4    4  502    0 -0.22140429467E+02 -0.35071210870E+01  0.12232907322E+03  0.12445477359E+03  0.47000000000E+01 0. -1.
         -5    1    4    4    0  502 -0.96349460798E+01 -0.29418578610E+02 -0.38671053415E+01  0.31548842406E+02  0.47000000000E+01 0.  1.
          5    1    3    3  503    0 -0.29585103738E+02  0.31659883715E-01  0.23071045905E+02  0.37810613915E+02  0.47000000000E+01 0. -1.
         -5    1    3    3    0  503  0.61360479284E+02  0.32894039814E+02  0.76566826443E+02  0.10359389550E+03  0.47000000000E+01 0.  1.
<mgrwt>
<rscale>  0 0.10121406E+03</rscale>
<asrwt>0</asrwt>
<pdfrwt beam="1">  1        1 0.39654458E-01 0.10150808E+03</pdfrwt>
<pdfrwt beam="2">  1       -1 0.61006375E-02 0.10150808E+03</pdfrwt>
<totfact> 0.12680467E+04</totfact>
</mgrwt>
</event>
<event>
 8    1  0.7366917E-004  0.1232383E+03  0.7546771E-02  0.1239863E+00
         -2   -1    0    0    0  501 -0.00000000000E+00  0.00000000000E+00  0.19050116293E+03  0.19050116293E+03  0.00000000000E+00 0.  1.
          2   -1    0    0  501    0  0.00000000000E+00 -0.00000000000E+00 -0.97749083981E+02  0.97749083981E+02  0.00000000000E+00 0. -1.
         23    2    1    2    0    0 -0.30285680662E+02  0.76468933268E+02 -0.19979853975E+02  0.12484737292E+03  0.91776640552E+02 0.  0.
         23    2    1    2    0    0  0.30285680662E+02 -0.76468933268E+02  0.11273193292E+03  0.16340287399E+03  0.85013471406E+02 0.  0.
          5    1    4    4  502    0 -0.13490545021E+02 -0.70646065322E+02  0.83155436582E+02  0.11004443640E+03  0.47000000000E+01 0.  1.
         -5    1    3    3    0  503  0.25627249477E+02  0.58839855261E+02 -0.12591840929E+02  0.65570793353E+02  0.47000000000E+01 0.  1.
          5    1    3    3  503    0 -0.55912930138E+02  0.17629078007E+02 -0.73880130462E+01  0.59276579564E+02  0.47000000000E+01 0. -1.
         -5    1    4    4    0  502  0.43776225683E+02 -0.58228679469E+01  0.29576496341E+02  0.53358437590E+02  0.47000000000E+01 0. -1.
<mgrwt>
<rscale>  0 0.12198157E+03</rscale>
<asrwt>0</asrwt>
<pdfrwt beam="1">  1        2 0.15038321E-01 0.12323827E+03</pdfrwt>
<pdfrwt beam="2">  1       -2 0.29307871E-01 0.12323827E+03</pdfrwt>
<totfact> 0.39440265E+03</totfact>
</mgrwt>
</event>
<event>
 8    1  0.7366917E-004  0.1052921E+03  0.7546771E-02  0.1270937E+00
          1   -1    0    0  501    0  0.00000000000E+00  0.00000000000E+00  0.25921623772E+03  0.25921623772E+03  0.00000000000E+00 0. -1.
         -1   -1    0    0    0  501 -0.00000000000E+00 -0.00000000000E+00 -0.70310797926E+02  0.70310797926E+02  0.00000000000E+00 0.  1.
         23    2    1    2    0    0 -0.24113926690E+02 -0.41067952258E+02 -0.10000198728E+02  0.10576596094E+03  0.93906210422E+02 0.  0.
         23    2    1    2    0    0  0.24113926690E+02  0.41067952258E+02  0.19890563852E+03  0.22376107470E+03  0.90760714820E+02 0.  0.
          5    1    4    4  502    0 -0.24392769307E+02  0.19082173207E+02  0.14306038128E+03  0.14644964739E+03  0.47000000000E+01 0.  1.
         -5    1    4    4    0  502  0.48506695997E+02  0.21985779051E+02  0.55845257239E+02  0.77311427313E+02  0.47000000000E+01 0. -1.
          5    1    3    3  503    0  0.28798745727E+02  0.34933130888E+01 -0.20231376176E+02  0.35678699161E+02  0.47000000000E+01 0. -1.
         -5    1    3    3    0  503 -0.52912672418E+02 -0.44561265347E+02  0.10231177449E+02  0.70087261779E+02  0.47000000000E+01 0.  1.
<mgrwt>
<rscale>  0 0.10458620E+03</rscale>
<asrwt>0</asrwt>
<pdfrwt beam="1">  1        1 0.39879421E-01 0.10529214E+03</pdfrwt>
<pdfrwt beam="2">  1       -1 0.10817046E-01 0.10529214E+03</pdfrwt>
<totfact> 0.53507787E+03</totfact>
</mgrwt>
</event>
<event>
 8    1  0.7366917E-004  0.1187645E+03  0.7546771E-02  0.1254945E+00
          2   -1    0    0  501    0  0.00000000000E+00  0.00000000000E+00  0.94112456403E+02  0.94112456403E+02  0.00000000000E+00 0. -1.
         -2   -1    0    0    0  501 -0.00000000000E+00 -0.00000000000E+00 -0.19874159116E+03  0.19874159116E+03  0.00000000000E+00 0.  1.
         23    2    1    2    0    0 -0.32311014219E+02 -0.28700176815E+01 -0.14478511581E+03  0.18726378386E+03  0.11424866014E+03 0.  0.
         23    2    1    2    0    0  0.32311014219E+02  0.28700176815E+01  0.40155981051E+02  0.10559026371E+03  0.92111684024E+02 0.  0.
          5    1    4    4  502    0 -0.83474296351E+01  0.20009498468E+02  0.54592565719E+02  0.58927903766E+02  0.47000000000E+01 0. -1.
         -5    1    3    3    0  503 -0.27807315221E+02 -0.55619895185E+02 -0.99553108243E+02  0.11747225579E+03  0.47000000000E+01 0.  1.
          5    1    3    3  503    0 -0.45036989979E+01  0.52749877504E+02 -0.45232007567E+02  0.69791528066E+02  0.47000000000E+01 0. -1.
         -5    1    4    4    0  502  0.40658443854E+02 -0.17139480787E+02 -0.14436584667E+02  0.46662359940E+02  0.47000000000E+01 0.  1.
<mgrwt>
<rscale>  0 0.11309416E+03</rscale>
<asrwt>0</asrwt>
<pdfrwt beam="1">  1        2 0.14478840E-01 0.11876445E+03</pdfrwt>
<pdfrwt beam="2">  1       -2 0.30575629E-01 0.11876445E+03</pdfrwt>
<totfact> 0.38122533E+03</totfact>
</mgrwt>
</event>
<event>
 8    1  0.7366917E-004  0.9403397E+02  0.7546771E-02  0.1293582E+00
          1   -1    0    0  501    0  0.00000000000E+00  0.00000000000E+00  0.33254024086E+03  0.33254024086E+03  0.00000000000E+00 0. -1.
         -1   -1    0    0    0  501 -0.00000000000E+00 -0.00000000000E+00 -0.26723040390E+02  0.26723040390E+02  0.00000000000E+00 0.  1.
         23    2    1    2    0    0  0.38496835171E+00 -0.33958834330E+01  0.13622544750E+03  0.16552872730E+03  0.93971840417E+02 0.  0.
         23    2    1    2    0    0 -0.38496835171E+00  0.33958834330E+01  0.16959175297E+03  0.19373455394E+03  0.93595055918E+02 0.  0.
          5    1    3    3  502    0 -0.41216131438E+02  0.47481990111E+01  0.31047654032E+02  0.52032314051E+02  0.47000000000E+01 0. -1.
         -5    1    4    4    0  503  0.62879480553E+00 -0.42592809349E+02  0.11172650084E+03  0.11966387835E+03  0.47000000000E+01 0.  1.
          5    1    4    4  503    0 -0.10137631572E+01  0.45988692782E+02  0.57865252125E+02  0.74070675594E+02  0.47000000000E+01 0. -1.
         -5    1    3    3    0  502  0.41601099790E+02 -0.81440824441E+01  0.10517779347E+03  0.11349641325E+03  0.47000000000E+01 0.  1.
<mgrwt>
<rscale>  0 0.93939692E+02</rscale>
<asrwt>0</asrwt>
<pdfrwt beam="1">  1        1 0.51160034E-01 0.94033967E+02</pdfrwt>
<pdfrwt beam="2">  1       -1 0.41112372E-02 0.94033967E+02</pdfrwt>
<totfact> 0.16440804E+04</totfact>
</mgrwt>
</event>
<event>
 8    1  0.7366917E-004  0.9567152E+02  0.7546771E-02  0.1289938E+00
          1   -1    0    0  501    0  0.00000000000E+00  0.00000000000E+00  0.37477464962E+02  0.37477464962E+02  0.00000000000E+00 0. -1.
         -1   -1    0    0    0  501 -0.00000000000E+00 -0.00000000000E+00 -0.24314342253E+03  0.24314342253E+03  0.00000000000E+00 0.  1.
         23    2    1    2    0    0  0.14154281913E+02 -0.26831281984E+02 -0.10583897706E+03  0.14235134799E+03  0.90231678585E+02 0.  0.
         23    2    1    2    0    0 -0.14154281913E+02  0.26831281984E+02 -0.99826980515E+02  0.13826953951E+03  0.90734657807E+02 0.  0.
          5    1    3    3  502    0  0.50195975594E+02 -0.54849856796E+01 -0.41974721719E+02  0.65830754949E+02  0.47000000000E+01 0. -1.
         -5    1    4    4    0  503 -0.16671471578E+02 -0.21960896289E+02 -0.10727575545E+01  0.27990350822E+02  0.47000000000E+01 0.  1.
          5    1    4    4  503    0  0.25171896647E+01  0.48792178273E+02 -0.98754222961E+02  0.11027918869E+03  0.47000000000E+01 0. -1.
         -5    1    3    3    0  502 -0.36041693681E+02 -0.21346296305E+02 -0.63864255336E+02  0.76520593038E+02  0.47000000000E+01 0.  1.
<mgrwt>
<rscale>  0 0.95552073E+02</rscale>
<asrwt>0</asrwt>
<pdfrwt beam="1">  1        1 0.57657640E-02 0.95671519E+02</pdfrwt>
<pdfrwt beam="2">  1       -1 0.37406680E-01 0.95671519E+02</pdfrwt>
<totfact> 0.86809931E+03</totfact>
</mgrwt>
</event>
<event>
 8    1  0.7366917E-004  0.1072501E+03  0.7546771E-02  0.1272303E+00
         -2   -1    0    0    0  501 -0.00000000000E+00  0.00000000000E+00  0.64553275842E+02  0.64553275842E+02  0.00000000000E+00 0.  1.
          2   -1    0    0  501    0  0.00000000000E+00 -0.00000000000E+00 -0.16704610326E+03  0.16704610326E+03  0.00000000000E+00 0. -1.
         23    2    1    2    0    0  0.18113080488E+02  0.96348155240E+01 -0.26789783498E+02  0.11054536076E+03  0.10526951568E+03 0.  0.
         23    2    1    2    0    0 -0.18113080488E+02 -0.96348155240E+01 -0.75703043921E+02  0.12105401834E+03  0.92207435398E+02 0.  0.
          5    1    4    4  502    0  0.17439993442E+02 -0.41773123775E+02 -0.28964404994E+02  0.53946028564E+02  0.47000000000E+01 0. -1.
         -5    1    3    3    0  503  0.51000760761E+02  0.27578889006E+01 -0.48235719846E+02  0.70409219698E+02  0.47000000000E+01 0. -1.
          5    1    3    3  503    0 -0.32887680274E+02  0.68769266235E+01  0.21445936348E+02  0.40136141063E+02  0.47000000000E+01 0.  1.
         -5    1    4    4    0  502 -0.35553073929E+02  0.32138308251E+02 -0.46738638927E+02  0.67107989777E+02  0.47000000000E+01 0.  1.
<mgrwt>
<rscale>  0 0.10389937E+03</rscale>
<asrwt>0</asrwt>
<pdfrwt beam="1">  1        2 0.25699400E-01 0.10725010E+03</pdfrwt>
<pdfrwt beam="2">  1       -2 0.99312733E-02 0.10725010E+03</pdfrwt>
<totfact> 0.12838054E+04</totfact>
</mgrwt>
</event>
<event>
 8    1  0.7366917E-004  0.1026563E+03  0.7546771E-02  0.1275417E+00
         -2   -1    0    0    0  501 -0.00000000000E+00  0.00000000000E+00  0.62510492269E+02  0.62510492269E+02  0.00000000000E+00 0.  1.
          2   -1    0    0  501    0  0.00000000000E+00 -0.00000000000E+00 -0.18619703760E+03  0.18619703760E+03  0.00000000000E+00 0. -1.
         23    2    1    2    0    0 -0.38241495642E+02  0.26639971095E+02 -0.21854897685E+02  0.10495692124E+03  0.91467036222E+02 0.  0.
         23    2    1    2    0    0  0.38241495642E+02 -0.26639971095E+02 -0.10183164765E+03  0.14375060863E+03  0.90124652393E+02 0.  0.
          5    1    3    3  502    0  0.12283601767E+02  0.33947556063E+02  0.17435363583E+02  0.40365893255E+02  0.47000000000E+01 0. -1.
         -5    1    3    3    0  502 -0.50525097408E+02 -0.73075849680E+01 -0.39290261267E+02  0.64591027989E+02  0.47000000000E+01 0.  1.
          5    1    4    4  503    0 -0.22482465001E+02  0.60804803007E+01 -0.55915538889E+02  0.60754184732E+02  0.47000000000E+01 0. -1.
         -5    1    4    4    0  503  0.60723960643E+02 -0.32720451395E+02 -0.45916108758E+02  0.82996423894E+02  0.47000000000E+01 0.  1.
<mgrwt>
<rscale>  0 0.10235644E+03</rscale>
<asrwt>0</asrwt>
<pdfrwt beam="1">  1        2 0.28645698E-01 0.10265631E+03</pdfrwt>
<pdfrwt beam="2">  1       -2 0.96169988E-02 0.10265631E+03</pdfrwt>
<totfact> 0.11949839E+04</totfact>
</mgrwt>
</event>
<event>
 8    1  0.7366917E-004  0.9256888E+02  0.7546771E-02  0.1298424E+00
          1   -1    0    0  501    0  0.00000000000E+00  0.00000000000E+00  0.41381315429E+03  0.41381315429E+03  0.00000000000E+00 0. -1.
         -1   -1    0    0    0  501 -0.00000000000E+00 -0.00000000000E+00 -0.31101400510E+02  0.31101400510E+02  0.00000000000E+00 0.  1.
         23    2    1    2    0    0 -0.15984157012E+02  0.15836471707E+02  0.32185793437E+03  0.33413466261E+03  0.86874367491E+02 0.  0.
         23    2    1    2    0    0  0.15984157012E+02 -0.15836471707E+02  0.60853819403E+02  0.11077989219E+03  0.89792594712E+02 0.  0.
          5    1    4    4  502    0  0.30048822082E+02  0.60408568411E+01  0.74745262774E+02  0.80921986920E+02  0.47000000000E+01 0. -1.
         -5    1    4    4    0  502 -0.14064665070E+02 -0.21877328548E+02 -0.13891443371E+02  0.29857905266E+02  0.47000000000E+01 0.  1.
          5    1    3    3  503    0 -0.31284702535E+01  0.40567584886E+02  0.28373360629E+03  0.28667466858E+03  0.47000000000E+01 0. -1.
         -5    1    3    3    0  503 -0.12855686759E+02 -0.24731113179E+02  0.38124328084E+02  0.47459994027E+02  0.47000000000E+01 0.  1.
<mgrwt>
<rscale>  0 0.91853656E+02</rscale>
<asrwt>0</asrwt>
<pdfrwt beam="1">  1        1 0.63663558E-01 0.92568878E+02</pdfrwt>
<pdfrwt beam="2">  1       -1 0.47848311E-02 0.92568878E+02</pdfrwt>
<totfact> 0.10041178E+04</totfact>
</mgrwt>
</event>
<event>
 8    1  0.7366917E-004  0.9956935E+02  0.7546771E-02  0.1282272E+00
          4   -1    0    0  501    0  0.00000000000E+00  0.00000000000E+00  0.17897064496E+03  0.17897064496E+03  0.00000000000E+00 0. -1.
         -4   -1    0    0    0  501 -0.00000000000E+00 -0.00000000000E+00 -0.66747324304E+02  0.66747324304E+02  0.00000000000E+00 0.  1.
         23    2    1    2    0    0 -0.22384261679E+02  0.34055358958E+02  0.10872620736E+03  0.14608722614E+03  0.88652506054E+02 0.  0.
         23    2    1    2    0    0  0.22384261679E+02 -0.34055358958E+02  0.34971132954E+01  0.99630743126E+02  0.90847303371E+02 0.  0.
          5    1    4    4  502    0  0.39181871155E+02 -0.56932687903E+02 -0.54947941199E+01  0.69489803148E+02  0.47000000000E+01 0. -1.
         -5    1    4    4    0  502 -0.16797609477E+02  0.22877328945E+02  0.89919074153E+01  0.30140939978E+02  0.47000000000E+01 0.  1.
          5    1    3    3  503    0 -0.36678530955E+02 -0.42471045848E+01  0.91312483918E+01  0.38325216602E+02  0.47000000000E+01 0. -1.
         -5    1    3    3    0  503  0.14294269277E+02  0.38302463542E+02  0.99594958973E+02  0.10776200954E+03  0.47000000000E+01 0.  1.
<mgrwt>
<rscale>  0 0.99065943E+02</rscale>
<asrwt>0</asrwt>
<pdfrwt beam="1">  1        4 0.27533945E-01 0.99569349E+02</pdfrwt>
<pdfrwt beam="2">  1       -4 0.10268819E-01 0.99569349E+02</pdfrwt>
<totfact> 0.13903886E+03</totfact>
</mgrwt>
</event>
<event>
 8    1  0.7366917E-004  0.1504289E+03  0.7546771E-02  0.1199974E+00
          2   -1    0    0  501    0  0.00000000000E+00  0.00000000000E+00  0.87491799635E+03  0.87491799635E+03  0.00000000000E+00 0. -1.
         -2   -1    0    0    0  501 -0.00000000000E+00 -0.00000000000E+00 -0.27607807390E+02  0.27607807390E+02  0.00000000000E+00 0.  1.
         23    2    1    2    0    0  0.57726587208E+02 -0.10368546921E+03  0.30962578225E+03  0.34419491581E+03  0.92298318716E+02 0.  0.
         23    2    1    2    0    0 -0.57726587208E+02  0.10368546921E+03  0.53768440671E+03  0.55833088793E+03  0.92443625001E+02 0.  0.
          5    1    4    4  502    0 -0.43218222992E+02  0.69643281601E+02  0.49449021564E+03  0.50125907955E+03  0.47000000000E+01 0. -1.
         -5    1    3    3    0  503 -0.24143363177E+02 -0.34468534167E+02  0.73435220439E+02  0.84769118398E+02  0.47000000000E+01 0.  1.
          5    1    3    3  503    0  0.81869950385E+02 -0.69216935046E+02  0.23619056181E+03  0.25942579741E+03  0.47000000000E+01 0. -1.
         -5    1    4    4    0  502 -0.14508364216E+02  0.34042187612E+02  0.43194191077E+02  0.57071808386E+02  0.47000000000E+01 0.  1.
<mgrwt>
<rscale>  0 0.15040660E+03</rscale>
<asrwt>0</asrwt>
<pdfrwt beam="1">  1        2 0.13460275E+00 0.15042892E+03</pdfrwt>
<pdfrwt beam="2">  1       -2 0.42473556E-02 0.15042892E+03</pdfrwt>
<totfact> 0.76917699E+03</totfact>
</mgrwt>
</event>
<event>
 8    1  0.7366917E-004  0.1776567E+03  0.7546771E-02  0.1170273E+00
          1   -1    0    0  501    0  0.00000000000E+00  0.00000000000E+00  0.78106068013E+02  0.78106068013E+02  0.00000000000E+00 0. -1.
         -1   -1    0    0    0  501 -0.00000000000E+00 -0.00000000000E+00 -0.66036583731E+03  0.66036583731E+03  0.00000000000E+00 0.  1.
         23    2    1    2    0    0 -0.14383687749E+03  0.47311862953E+02 -0.52153275176E+03  0.55072296484E+03  0.91498159259E+02 0.  0.
         23    2    1    2    0    0  0.14383687749E+03 -0.47311862953E+02 -0.60727017543E+02  0.18774894048E+03  0.92921656731E+02 0.  0.
          5    1    3    3  502    0  0.41279922452E+01  0.24216961885E+02 -0.49151543189E+02  0.55149485590E+02  0.47000000000E+01 0. -1.
         -5    1    4    4    0  503  0.28495903587E+02  0.28170035064E+01 -0.54499980853E+02  0.61743744161E+02  0.47000000000E+01 0.  1.
          5    1    4    4  503    0  0.11534097391E+03 -0.50128866459E+02 -0.62270366897E+01  0.12600519632E+03  0.47000000000E+01 0. -1.
         -5    1    3    3    0  502 -0.14796486974E+03  0.23094901068E+02 -0.47238120857E+03  0.49557347925E+03  0.47000000000E+01 0.  1.
<mgrwt>
<rscale>  0 0.17747129E+03</rscale>
<asrwt>0</asrwt>
<pdfrwt beam="1">  1        1 0.12016319E-01 0.17765667E+03</pdfrwt>
<pdfrwt beam="2">  1       -1 0.10159474E+00 0.17765667E+03</pdfrwt>
<totfact> 0.48758873E+02</totfact>
</mgrwt>
</event>
<event>
 8    1  0.7366917E-004  0.1344769E+03  0.7546771E-02  0.1224757E+00
          1   -1    0    0  501    0  0.00000000000E+00  0.00000000000E+00  0.95979063017E+02  0.95979063017E+02  0.00000000000E+00 0. -1.
         -1   -1    0    0    0  501 -0.00000000000E+00 -0.00000000000E+00 -0.22863208912E+03  0.22863208912E+03  0.00000000000E+00 0.  1.
         23    2    1    2    0    0  0.76102721712E+02  0.23460652715E+02 -0.14739294750E+03  0.19952121696E+03  0.10836054895E+03 0.  0.
         23    2    1    2    0    0 -0.76102721712E+02 -0.23460652715E+02  0.14739921395E+02  0.12508993517E+03  0.95332051911E+02 0.  0.
          5    1    3    3  502    0  0.10879446403E+02 -0.30226982818E+02 -0.35775020994E+01  0.32663762269E+02  0.47000000000E+01 0. -1.
         -5    1    3    3    0  502  0.65223275309E+02  0.53687635533E+02 -0.14381544540E+03  0.16685745469E+03  0.47000000000E+01 0.  1.
          5    1    4    4  503    0 -0.29170634280E+02 -0.41221825680E+02  0.43712749939E+02  0.66955651919E+02  0.47000000000E+01 0. -1.
         -5    1    4    4    0  503 -0.46932087432E+02  0.17761172965E+02 -0.28972828543E+02  0.58134283256E+02  0.47000000000E+01 0.  1.
<mgrwt>
<rscale>  0 0.13183548E+03</rscale>
<asrwt>0</asrwt>
<pdfrwt beam="1">  1        1 0.14766010E-01 0.13447689E+03</pdfrwt>
<pdfrwt beam="2">  1       -1 0.35174167E-01 0.13447689E+03</pdfrwt>
<totfact> 0.28484589E+03</totfact>
</mgrwt>
</event>
<event>
 8    1  0.7366917E-004  0.9214796E+02  0.7546771E-02  0.1299333E+00
          2   -1    0    0  501    0  0.00000000000E+00  0.00000000000E+00  0.14733189340E+03  0.14733189340E+03  0.00000000000E+00 0. -1.
         -2   -1    0    0    0  501 -0.00000000000E+00 -0.00000000000E+00 -0.75723162022E+02  0.75723162022E+02  0.00000000000E+00 0.  1.
         23    2    1    2    0    0  0.24040239659E+01 -0.35409719102E+01 -0.20768401198E+02  0.94459371778E+02  0.92048512291E+02 0.  0.
         23    2    1    2    0    0 -0.24040239659E+01  0.35409719102E+01  0.92377132577E+02  0.12859568365E+03  0.89358812748E+02 0.  0.
          5    1    3    3  502    0 -0.40677877288E+02  0.16680944746E+02 -0.76842513180E+01  0.44878517540E+02  0.47000000000E+01 0. -1.
         -5    1    4    4    0  503  0.33369048957E+02  0.17080753694E+02  0.12306729335E+02  0.39734005108E+02  0.47000000000E+01 0.  1.
          5    1    4    4  503    0 -0.35773072923E+02 -0.13539781783E+02  0.80070403242E+02  0.88861678537E+02  0.47000000000E+01 0. -1.
         -5    1    3    3    0  502  0.43081901254E+02 -0.20221916656E+02 -0.13084149880E+02  0.49580854238E+02  0.47000000000E+01 0.  1.
<mgrwt>
<rscale>  0 0.91468811E+02</rscale>
<asrwt>0</asrwt>
<pdfrwt beam="1">  1        2 0.22666445E-01 0.92147959E+02</pdfrwt>
<pdfrwt beam="2">  1       -2 0.11649717E-01 0.92147959E+02</pdfrwt>
<totfact> 0.11309648E+04</totfact>
</mgrwt>
</event>
<event>
 8    1  0.7366917E-004  0.1313814E+03  0.7546771E-02  0.1226245E+00
         -2   -1    0    0    0  501 -0.00000000000E+00  0.00000000000E+00  0.24659480287E+02  0.24659480287E+02  0.00000000000E+00 0.  1.
          2   -1    0    0  501    0  0.00000000000E+00 -0.00000000000E+00 -0.76450193062E+03  0.76450193062E+03  0.00000000000E+00 0. -1.
         23    2    1    2    0    0 -0.93048919472E+02  0.15206575465E+01 -0.49178074520E+03  0.50845573732E+03  0.89546198403E+02 0.  0.
         23    2    1    2    0    0  0.93048919472E+02 -0.15206575465E+01 -0.24806170513E+03  0.28070567359E+03  0.92739699249E+02 0.  0.
          5    1    4    4  502    0  0.22453356176E+02  0.38695492587E+02 -0.54078266997E+02  0.70342329443E+02  0.47000000000E+01 0. -1.
         -5    1    4    4    0  502  0.70595563296E+02 -0.40216150134E+02 -0.19398343813E+03  0.21036334414E+03  0.47000000000E+01 0.  1.
          5    1    3    3  503    0 -0.49483708357E+02 -0.12211826610E+02 -0.42089846049E+03  0.42399925725E+03  0.47000000000E+01 0. -1.
         -5    1    3    3    0  503 -0.43565211114E+02  0.13732484156E+02 -0.70882284707E+02  0.84456480070E+02  0.47000000000E+01 0.  1.
<mgrwt>
<rscale>  0 0.13081917E+03</rscale>
<asrwt>0</asrwt>
<pdfrwt beam="1">  1        2 0.11761568E+00 0.13138137E+03</pdfrwt>
<pdfrwt beam="2">  1       -2 0.37937662E-02 0.13138137E+03</pdfrwt>
<totfact> 0.10698414E+04</totfact>
</mgrwt>
</event>
<event>
 8    1  0.7366917E-004  0.1043804E+03  0.7546771E-02  0.1272261E+00
         -3   -1    0    0    0  501 -0.00000000000E+00  0.00000000000E+00  0.18968147234E+02  0.18968147234E+02  0.00000000000E+00 0.  1.
          3   -1    0    0  501    0  0.00000000000E+00 -0.00000000000E+00 -0.60739364345E+03  0.60739364345E+03  0.00000000000E+00 0. -1.
         23    2    1    2    0    0 -0.11858320963E+02  0.49441772810E+02 -0.37513241916E+03  0.38889765679E+03  0.89061478067E+02 0.  0.
         23    2    1    2    0    0  0.11858320963E+02 -0.49441772810E+02 -0.21329307705E+03  0.23746413390E+03  0.91160131047E+02 0.  0.
          5    1    4    4  502    0 -0.36273205390E+02 -0.18089156158E+02 -0.12939917003E+03  0.13568050046E+03  0.47000000000E+01 0. -1.
         -5    1    3    3    0  503  0.28247796065E+02 -0.47308958718E+01 -0.60628787376E+02  0.67217997716E+02  0.47000000000E+01 0.  1.
          5    1    3    3  503    0 -0.40106117027E+02  0.54172668682E+02 -0.31450363178E+03  0.32167965907E+03  0.47000000000E+01 0. -1.
         -5    1    4    4    0  502  0.48131526353E+02 -0.31352616652E+02 -0.83893907022E+02  0.10178363344E+03  0.47000000000E+01 0.  1.
<mgrwt>
<rscale>  0 0.10392048E+03</rscale>
<asrwt>0</asrwt>
<pdfrwt beam="1">  1        3 0.93445194E-01 0.10438045E+03</pdfrwt>
<pdfrwt beam="2">  1       -3 0.29181759E-02 0.10438045E+03</pdfrwt>
<totfact> 0.12387369E+03</totfact>
</mgrwt>
</event>
<event>
 8    1  0.7366917E-004  0.1023633E+03  0.7546771E-02  0.1275741E+00
         -1   -1    0    0    0  501 -0.00000000000E+00  0.00000000000E+00  0.11043004365E+03  0.11043004365E+03  0.00000000000E+00 0.  1.
          1   -1    0    0  501    0  0.00000000000E+00 -0.00000000000E+00 -0.95485406706E+02  0.95485406706E+02  0.00000000000E+00 0. -1.
         23    2    1    2    0    0 -0.26577409620E+02 -0.41387557501E+02 -0.41487587462E+01  0.10178667372E+03  0.89016999101E+02 0.  0.
         23    2    1    2    0    0  0.26577409620E+02  0.41387557501E+02  0.19093395694E+02  0.10412877664E+03  0.89771686784E+02 0.  0.
          5    1    3    3  502    0 -0.53292681861E+02 -0.16018694764E+01 -0.33270807296E+01  0.53626815978E+02  0.47000000000E+01 0. -1.
         -5    1    3    3    0  502  0.26715272241E+02 -0.39785688025E+02 -0.82167801660E+00  0.48159857738E+02  0.47000000000E+01 0.  1.
          5    1    4    4  503    0  0.30324534013E+02  0.68178582612E+02  0.16366992032E+02  0.76536690013E+02  0.47000000000E+01 0. -1.
         -5    1    4    4    0  503 -0.37471243929E+01 -0.26791025110E+02  0.27264036621E+01  0.27592086630E+02  0.47000000000E+01 0.  1.
<mgrwt>
<rscale>  0 0.10219759E+03</rscale>
<asrwt>0</asrwt>
<pdfrwt beam="1">  1        1 0.14690063E-01 0.10236330E+03</pdfrwt>
<pdfrwt beam="2">  1       -1 0.16989237E-01 0.10236330E+03</pdfrwt>
<totfact> 0.92569136E+03</totfact>
</mgrwt>
</event>
<event>
 8    1  0.7366917E-004  0.9235486E+02  0.7546771E-02  0.1298422E+00
          1   -1    0    0  501    0  0.00000000000E+00  0.00000000000E+00  0.45287919021E+03  0.45287919021E+03  0.00000000000E+00 0. -1.
         -1   -1    0    0    0  501 -0.00000000000E+00 -0.00000000000E+00 -0.18458570715E+02  0.18458570715E+02  0.00000000000E+00 0.  1.
         23    2    1    2    0    0  0.14498842014E+02  0.16595004995E+01  0.22393249616E+03  0.24147982562E+03  0.89183927831E+02 0.  0.
         23    2    1    2    0    0 -0.14498842014E+02 -0.16595004995E+01  0.21048812334E+03  0.22985793531E+03  0.91194572185E+02 0.  0.
          5    1    4    4  502    0 -0.36476987063E+02  0.25080326958E+02  0.56354718864E+02  0.71815999079E+02  0.47000000000E+01 0. -1.
         -5    1    4    4    0  502  0.21978145048E+02 -0.26739827457E+02  0.15413340448E+03  0.15804193623E+03  0.47000000000E+01 0.  1.
          5    1    3    3  503    0  0.33259351159E+02  0.23830785881E+02  0.19807283783E+03  0.20230924319E+03  0.47000000000E+01 0. -1.
         -5    1    3    3    0  503 -0.18760509145E+02 -0.22171285382E+02  0.25859658334E+02  0.39170582431E+02  0.47000000000E+01 0.  1.
<mgrwt>
<rscale>  0 0.91854605E+02</rscale>
<asrwt>0</asrwt>
<pdfrwt beam="1">  1        1 0.69673713E-01 0.92354861E+02</pdfrwt>
<pdfrwt beam="2">  1       -1 0.28397805E-02 0.92354861E+02</pdfrwt>
<totfact> 0.19097720E+04</totfact>
</mgrwt>
</event>
<event>
 8    1  0.7366917E-004  0.1063106E+03  0.7546771E-02  0.1270881E+00
         -1   -1    0    0    0  501 -0.00000000000E+00  0.00000000000E+00  0.66049826492E+03  0.66049826492E+03  0.00000000000E+00 0.  1.
          1   -1    0    0  501    0  0.00000000000E+00 -0.00000000000E+00 -0.16488143588E+02  0.16488143588E+02  0.00000000000E+00 0. -1.
         23    2    1    2    0    0 -0.35403416144E+02  0.46736770295E+02  0.36633164272E+03  0.37965277280E+03  0.80620269564E+02 0.  0.
         23    2    1    2    0    0  0.35403416144E+02 -0.46736770295E+02  0.27767847861E+03  0.29733363571E+03  0.88680470603E+02 0.  0.
          5    1    3    3  502    0  0.18149064895E+02  0.37219315023E+02  0.11137749008E+03  0.11891888523E+03  0.47000000000E+01 0. -1.
         -5    1    3    3    0  502 -0.53552481039E+02  0.95174552722E+01  0.25495415263E+03  0.26073388757E+03  0.47000000000E+01 0.  1.
          5    1    4    4  503    0  0.63966749891E+02 -0.25275419666E+02  0.15893345487E+03  0.17324123357E+03  0.47000000000E+01 0. -1.
         -5    1    4    4    0  503 -0.28563333747E+02 -0.21461350629E+02  0.11874502374E+03  0.12409240214E+03  0.47000000000E+01 0.  1.
<mgrwt>
<rscale>  0 0.10461439E+03</rscale>
<asrwt>0</asrwt>
<pdfrwt beam="1">  1        1 0.25366380E-02 0.10631065E+03</pdfrwt>
<pdfrwt beam="2">  1       -1 0.10161510E+00 0.10631065E+03</pdfrwt>
<totfact> 0.39563019E+03</totfact>
</mgrwt>
</event>
<event>
 8    1  0.7366917E-004  0.1356053E+03  0.7546771E-02  0.1232739E+00
         -1   -1    0    0    0  501 -0.00000000000E+00  0.00000000000E+00  0.22380983258E+02  0.22380983258E+02  0.00000000000E+00 0.  1.
          1   -1    0    0  501    0  0.00000000000E+00 -0.00000000000E+00 -0.63538284095E+03  0.63538284095E+03  0.00000000000E+00 0. -1.
         23    2    1    2    0    0 -0.37428334036E+02  0.27627172749E+02 -0.36190494318E+03  0.38647636481E+03  0.12737602520E+03 0.  0.
         23    2    1    2    0    0  0.37428334036E+02 -0.27627172749E+02 -0.25109691452E+03  0.27128745940E+03  0.91559184613E+02 0.  0.
          5    1    3    3  502    0  0.34221135861E+02 -0.24262187885E+02 -0.16915770945E+03  0.17434494707E+03  0.47000000000E+01 0. -1.
         -5    1    3    3    0  502 -0.71649469897E+02  0.51889360634E+02 -0.19274723372E+03  0.21213141774E+03  0.47000000000E+01 0.  1.
          5    1    4    4  503    0  0.47738830136E+02  0.21190710811E+02 -0.12125189042E+03  0.13210659733E+03  0.47000000000E+01 0. -1.
         -5    1    4    4    0  503 -0.10310496100E+02 -0.48817883560E+02 -0.12984502410E+03  0.13918086207E+03  0.47000000000E+01 0.  1.
<mgrwt>
<rscale>  0 0.12650268E+03</rscale>
<asrwt>0</asrwt>
<pdfrwt beam="1">  1        1 0.97751188E-01 0.13560528E+03</pdfrwt>
<pdfrwt beam="2">  1       -1 0.34432288E-02 0.13560528E+03</pdfrwt>
<totfact> 0.95433527E+03</totfact>
</mgrwt>
</event>
<event>
 8    1  0.7366917E-004  0.9417022E+02  0.7546771E-02  0.1293908E+00
         -1   -1    0    0    0  501 -0.00000000000E+00  0.00000000000E+00  0.84816103140E+02  0.84816103140E+02  0.00000000000E+00 0.  1.
          1   -1    0    0  501    0  0.00000000000E+00 -0.00000000000E+00 -0.16684778030E+03  0.16684778030E+03  0.00000000000E+00 0. -1.
         23    2    1    2    0    0  0.18708215858E+02  0.96401168018E+01 -0.11870492062E+03  0.15060470844E+03  0.90266222001E+02 0.  0.
         23    2    1    2    0    0 -0.18708215858E+02 -0.96401168018E+01  0.36673243459E+02  0.10105917499E+03  0.91788348237E+02 0.  0.
          5    1    4    4  502    0 -0.96386140277E+01 -0.37451065321E+02 -0.14796281063E+02  0.41671394353E+02  0.47000000000E+01 0. -1.
         -5    1    4    4    0  502 -0.90696018302E+01  0.27810948519E+02  0.51469524522E+02  0.59387780641E+02  0.47000000000E+01 0.  1.
          5    1    3    3  503    0 -0.13810165793E+02 -0.26847255346E+02 -0.86870373315E+02  0.92087173693E+02  0.47000000000E+01 0. -1.
         -5    1    3    3    0  503  0.32518381651E+02  0.36487372147E+02 -0.31834547300E+02  0.58517534750E+02  0.47000000000E+01 0.  1.
<mgrwt>
<rscale>  0 0.93797258E+02</rscale>
<asrwt>0</asrwt>
<pdfrwt beam="1">  1        1 0.25668889E-01 0.94170219E+02</pdfrwt>
<pdfrwt beam="2">  1       -1 0.13048631E-01 0.94170219E+02</pdfrwt>
<totfact> 0.68501216E+03</totfact>
</mgrwt>
</event>
<event>
 8    1  0.7366917E-004  0.1999780E+03  0.7546771E-02  0.1150399E+00
          2   -1    0    0  501    0  0.00000000000E+00  0.00000000000E+00  0.13923807394E+04  0.13923807394E+04  0.00000000000E+00 0. -1.
         -2   -1    0    0    0  501 -0.00000000000E+00 -0.00000000000E+00 -0.12896467993E+03  0.12896467993E+03  0.00000000000E+00 0.  1.
         23    2    1    2    0    0 -0.27495359804E+02 -0.17316522747E+03 -0.41421693308E+02  0.20127240464E+03  0.89736466262E+02 0.  0.
         23    2    1    2    0    0  0.27495359804E+02  0.17316522747E+03  0.13048377528E+04  0.13200730147E+04  0.96171784834E+02 0.  0.
          5    1    3    3  502    0  0.18537529874E+02 -0.10700579706E+03  0.37373220263E+01  0.10876551933E+03  0.47000000000E+01 0. -1.
         -5    1    3    3    0  502 -0.46032889678E+02 -0.66159430410E+02 -0.45159015334E+02  0.92506885313E+02  0.47000000000E+01 0.  1.
          5    1    4    4  503    0 -0.10470221777E+02  0.14099999899E+03  0.11077506578E+04  0.11167471670E+04  0.47000000000E+01 0. -1.
         -5    1    4    4    0  503  0.37965581581E+02  0.32165228484E+02  0.19708709503E+03  0.20332584768E+03  0.47000000000E+01 0.  1.
<mgrwt>
<rscale>  0 0.19922021E+03</rscale>
<asrwt>0</asrwt>
<pdfrwt beam="1">  1        2 0.21421241E+00 0.19997801E+03</pdfrwt>
<pdfrwt beam="2">  1       -2 0.19840721E-01 0.19997801E+03</pdfrwt>
<totfact> 0.33899633E+02</totfact>
</mgrwt>
</event>
<event>
 8    1  0.7366917E-004  0.9677234E+02  0.7546771E-02  0.1287976E+00
          2   -1    0    0  501    0  0.00000000000E+00  0.00000000000E+00  0.57511280994E+03  0.57511280994E+03  0.00000000000E+00 0. -1.
         -2   -1    0    0    0  501 -0.00000000000E+00 -0.00000000000E+00 -0.18175828586E+02  0.18175828586E+02  0.00000000000E+00 0.  1.
         23    2    1    2    0    0  0.10440380313E+02 -0.31329211425E+02  0.17550795022E+03  0.19977498990E+03  0.89534825451E+02 0.  0.
         23    2    1    2    0    0 -0.10440380313E+02  0.31329211425E+02  0.38142903113E+03  0.39351364862E+03  0.90963535741E+02 0.  0.
          5    1    3    3  502    0 -0.97702063004E+01 -0.50127736441E+02  0.15945631227E+03  0.16750120123E+03  0.47000000000E+01 0. -1.
         -5    1    4    4    0  503  0.33089497535E+02 -0.10446631902E+02  0.11081436695E+03  0.11621514914E+03  0.47000000000E+01 0.  1.
          5    1    4    4  503    0 -0.43529877848E+02  0.41775843327E+02  0.27061466418E+03  0.27729849949E+03  0.47000000000E+01 0. -1.
         -5    1    3    3    0  502  0.20210586613E+02  0.18798525015E+02  0.16051637953E+02  0.32273788668E+02  0.47000000000E+01 0.  1.
<mgrwt>
<rscale>  0 0.96435156E+02</rscale>
<asrwt>0</asrwt>
<pdfrwt beam="1">  1        2 0.88478880E-01 0.96772340E+02</pdfrwt>
<pdfrwt beam="2">  1       -2 0.27962818E-02 0.96772340E+02</pdfrwt>
<totfact> 0.22724107E+04</totfact>
</mgrwt>
</event>
<event>
 8    1  0.7366917E-004  0.1106381E+03  0.7546771E-02  0.1260646E+00
         -1   -1    0    0    0  501 -0.00000000000E+00  0.00000000000E+00  0.31992164569E+02  0.31992164569E+02  0.00000000000E+00 0.  1.
          1   -1    0    0  501    0  0.00000000000E+00 -0.00000000000E+00 -0.59959351865E+03  0.59959351865E+03  0.00000000000E+00 0. -1.
         23    2    1    2    0    0 -0.59367491144E+02 -0.13382056336E+02 -0.92011010154E+02  0.14389863215E+03  0.92397034093E+02 0.  0.
         23    2    1    2    0    0  0.59367491144E+02  0.13382056336E+02 -0.47559034393E+03  0.48768705107E+03  0.89156638033E+02 0.  0.
          5    1    3    3  502    0  0.22216712075E+02  0.98340101431E+01 -0.29028386435E+02  0.38144819700E+02  0.47000000000E+01 0. -1.
         -5    1    4    4    0  503  0.12373096636E+02 -0.25510864762E+02 -0.49594791540E+02  0.57320424712E+02  0.47000000000E+01 0.  1.
          5    1    4    4  503    0  0.46994394508E+02  0.38892921098E+02 -0.42599555239E+03  0.43036662636E+03  0.47000000000E+01 0. -1.
         -5    1    3    3    0  502 -0.81584203219E+02 -0.23216066479E+02 -0.62982623719E+02  0.10575381245E+03  0.47000000000E+01 0.  1.
<mgrwt>
<rscale>  0 0.10995902E+03</rscale>
<asrwt>0</asrwt>
<pdfrwt beam="1">  1        1 0.92245154E-01 0.11063811E+03</pdfrwt>
<pdfrwt beam="2">  1       -1 0.49218716E-02 0.11063811E+03</pdfrwt>
<totfact> 0.60420947E+03</totfact>
</mgrwt>
</event>
<event>
 8    1  0.7366917E-004  0.1078117E+03  0.7546771E-02  0.1267828E+00
         -1   -1    0    0    0  501 -0.00000000000E+00  0.00000000000E+00  0.24172689037E+02  0.24172689037E+02  0.00000000000E+00 0.  1.
          1   -1    0    0  501    0  0.00000000000E+00 -0.00000000000E+00 -0.56585081398E+03  0.56585081398E+03  0.00000000000E+00 0. -1.
         23    2    1    2    0    0  0.71818252987E+00  0.42906597562E+02 -0.13231060432E+03  0.16669722449E+03  0.91871522995E+02 0.  0.
         23    2    1    2    0    0 -0.71818252987E+00 -0.42906597562E+02 -0.40936752062E+03  0.42332627852E+03  0.98903383405E+02 0.  0.
          5    1    4    4  502    0  0.37658625791E+02 -0.80991735807E+00 -0.27058076463E+03  0.27323043068E+03  0.47000000000E+01 0. -1.
         -5    1    3    3    0  503  0.37405015202E+01 -0.28598892660E+02 -0.31404605266E+02  0.42897869934E+02  0.47000000000E+01 0.  1.
          5    1    3    3  503    0 -0.30223189904E+01  0.71505490222E+02 -0.10090599906E+03  0.12379935456E+03  0.47000000000E+01 0. -1.
         -5    1    4    4    0  502 -0.38376808320E+02 -0.42096680204E+02 -0.13878675599E+03  0.15009584784E+03  0.47000000000E+01 0.  1.
<mgrwt>
<rscale>  0 0.10617164E+03</rscale>
<asrwt>0</asrwt>
<pdfrwt beam="1">  1        1 0.87053971E-01 0.10781174E+03</pdfrwt>
<pdfrwt beam="2">  1       -1 0.37188753E-02 0.10781174E+03</pdfrwt>
<totfact> 0.98220357E+03</totfact>
</mgrwt>
</event>
<event>
 8    1  0.7366917E-004  0.9336442E+02  0.7546771E-02  0.1295847E+00
         -1   -1    0    0    0  501 -0.00000000000E+00  0.00000000000E+00  0.39528773809E+03  0.39528773809E+03  0.00000000000E+00 0.  1.
          1   -1    0    0  501    0  0.00000000000E+00 -0.00000000000E+00 -0.21718935971E+02  0.21718935971E+02  0.00000000000E+00 0. -1.
         23    2    1    2    0    0  0.13968252743E+02 -0.49144273486E+01  0.19499160337E+03  0.21549555768E+03  0.90539197654E+02 0.  0.
         23    2    1    2    0    0 -0.13968252743E+02  0.49144273486E+01  0.17857719875E+03  0.20151111639E+03  0.92182701381E+02 0.  0.
          5    1    3    3  502    0  0.40103579134E+01 -0.31640008127E+02  0.19579031775E+02  0.37717390818E+02  0.47000000000E+01 0. -1.
         -5    1    4    4    0  503  0.31846925766E+02 -0.10156632806E+02  0.12405874565E+03  0.12856922743E+03  0.47000000000E+01 0.  1.
          5    1    4    4  503    0 -0.45815178508E+02  0.15071060155E+02  0.54518453104E+02  0.72941888958E+02  0.47000000000E+01 0. -1.
         -5    1    3    3    0  502  0.99578948294E+01  0.26725580778E+02  0.17541257160E+03  0.17777816686E+03  0.47000000000E+01 0.  1.
<mgrwt>
<rscale>  0 0.92956163E+02</rscale>
<asrwt>0</asrwt>
<pdfrwt beam="1">  1        1 0.33413750E-02 0.93364416E+02</pdfrwt>
<pdfrwt beam="2">  1       -1 0.60813493E-01 0.93364416E+02</pdfrwt>
<totfact> 0.75909740E+03</totfact>
</mgrwt>
</event>
<event>
 8    1  0.7366917E-004  0.9263588E+02  0.7546771E-02  0.1296657E+00
         -1   -1    0    0    0  501 -0.00000000000E+00  0.00000000000E+00  0.17919061769E+03  0.17919061769E+03  0.00000000000E+00 0.  1.
          1   -1    0    0  501    0  0.00000000000E+00 -0.00000000000E+00 -0.98214444929E+02  0.98214444929E+02  0.00000000000E+00 0. -1.
         23    2    1    2    0    0 -0.70433493954E+01  0.58141125568E+01  0.13984357163E+03  0.16774275201E+03  0.92184562974E+02 0.  0.
         23    2    1    2    0    0  0.70433493954E+01 -0.58141125568E+01 -0.58867398867E+02  0.10966231061E+03  0.92070837094E+02 0.  0.
          5    1    3    3  502    0  0.20691239556E+02  0.41846880400E+02  0.70028558834E+02  0.84293403336E+02  0.47000000000E+01 0. -1.
         -5    1    4    4    0  503  0.37059389232E+01 -0.34814648070E+02 -0.69725741592E+02  0.78163691981E+02  0.47000000000E+01 0.  1.
          5    1    4    4  503    0  0.33374104722E+01  0.29000535513E+02  0.10858342725E+02  0.31498618628E+02  0.47000000000E+01 0. -1.
         -5    1    3    3    0  502 -0.27734588952E+02 -0.36032767843E+02  0.69815012796E+02  0.83449348676E+02  0.47000000000E+01 0.  1.
<mgrwt>
<rscale>  0 0.92607575E+02</rscale>
<asrwt>0</asrwt>
<pdfrwt beam="1">  1        1 0.15109915E-01 0.92635880E+02</pdfrwt>
<pdfrwt beam="2">  1       -1 0.27567787E-01 0.92635880E+02</pdfrwt>
<totfact> 0.40736292E+03</totfact>
</mgrwt>
</event>
<event>
 8    1  0.7366917E-004  0.1041483E+03  0.7546771E-02  0.1272841E+00
          1   -1    0    0  501    0  0.00000000000E+00  0.00000000000E+00  0.18048940172E+03  0.18048940172E+03  0.00000000000E+00 0. -1.
         -1   -1    0    0    0  501 -0.00000000000E+00 -0.00000000000E+00 -0.60563745102E+02  0.60563745102E+02  0.00000000000E+00 0.  1.
         23    2    1    2    0    0 -0.43052648023E+02 -0.12404200951E+02  0.39508822483E+02  0.10947147359E+03  0.91736916090E+02 0.  0.
         23    2    1    2    0    0  0.43052648023E+02  0.12404200951E+02  0.80416834139E+02  0.13158167323E+03  0.94018481241E+02 0.  0.
          5    1    3    3  502    0 -0.30430561024E+02  0.24057408581E+02  0.55135608304E+02  0.67578127046E+02  0.47000000000E+01 0. -1.
         -5    1    4    4    0  503  0.34128845311E+02 -0.29927602057E+02  0.69036763363E+01  0.46153983513E+02  0.47000000000E+01 0.  1.
          5    1    4    4  503    0  0.89238027121E+01  0.42331803008E+02  0.73513157802E+02  0.85427689720E+02  0.47000000000E+01 0. -1.
         -5    1    3    3    0  502 -0.12622086999E+02 -0.36461609532E+02 -0.15626785821E+02  0.41893346548E+02  0.47000000000E+01 0.  1.
<mgrwt>
<rscale>  0 0.10363073E+03</rscale>
<asrwt>0</asrwt>
<pdfrwt beam="1">  1        1 0.27767600E-01 0.10414831E+03</pdfrwt>
<pdfrwt beam="2">  1       -1 0.93174993E-02 0.10414831E+03</pdfrwt>
<totfact> 0.10464854E+04</totfact>
</mgrwt>
</event>
<event>
 7    1  0.7366917E-004  0.1795538E+03  0.7546771E-02  0.1174881E+00
         -2   -1    0    0    0  501 -0.00000000000E+00  0.00000000000E+00  0.81255665774E+02  0.81255665774E+02  0.00000000000E+00 0.  1.
          2   -1    0    0  501    0  0.00000000000E+00 -0.00000000000E+00 -0.37123795278E+03  0.37123795278E+03  0.00000000000E+00 0. -1.
         23    2    1    2    0    0 -0.31427451794E+02 -0.10993022951E+03 -0.72535620496E+02  0.17049604809E+03  0.10361055009E+03 0.  0.
          5    1    1    2  502    0 -0.30647818132E+01  0.10610553732E+03 -0.62777931469E+02  0.12341368083E+03  0.47000000000E+01 0. -1.
         -5    1    3    3    0  503 -0.25731493244E+02  0.11378465547E+02  0.82699814971E+00  0.28536873493E+02  0.47000000000E+01 0.  1.
          5    1    3    3  503    0 -0.56959585498E+01 -0.12130869505E+03 -0.73362618646E+02  0.14195917460E+03  0.47000000000E+01 0. -1.
         -5    1    1    2    0  502  0.34492233607E+02  0.38246921861E+01 -0.15466873504E+03  0.15858388962E+03  0.47000000000E+01 0.  1.
<mgrwt>
<rscale>  0 0.17287619E+03</rscale>
<asrwt>0</asrwt>
<pdfrwt beam="1">  1        2 0.57113531E-01 0.17955383E+03</pdfrwt>
<pdfrwt beam="2">  1       -2 0.12500872E-01 0.17955383E+03</pdfrwt>
<totfact> 0.39200572E+03</totfact>
</mgrwt>
</event>
<event>
 8    1  0.7366917E-004  0.1000181E+03  0.7546771E-02  0.1282048E+00
         -2   -1    0    0    0  501 -0.00000000000E+00  0.00000000000E+00  0.11358495032E+02  0.11358495032E+02  0.00000000000E+00 0.  1.
          2   -1    0    0  501    0  0.00000000000E+00 -0.00000000000E+00 -0.88900567638E+03  0.88900567638E+03  0.00000000000E+00 0. -1.
         23    2    1    2    0    0  0.16514913385E+01 -0.39841511097E+02 -0.53840748353E+03  0.54761870193E+03  0.91725410594E+02 0.  0.
         23    2    1    2    0    0 -0.16514913385E+01  0.39841511097E+02 -0.33923969782E+03  0.35274546949E+03  0.88066567074E+02 0.  0.
          5    1    4    4  502    0 -0.37027777235E+02  0.42383221917E+02 -0.25577676753E+03  0.26193747078E+03  0.47000000000E+01 0. -1.
         -5    1    3    3    0  503  0.38194066803E+02 -0.29493642434E+02 -0.15750484761E+03  0.16479844873E+03  0.47000000000E+01 0.  1.
          5    1    3    3  503    0 -0.36542575464E+02 -0.10347868663E+02 -0.38090263592E+03  0.38282025319E+03  0.47000000000E+01 0. -1.
         -5    1    4    4    0  502  0.35376285896E+02 -0.25417108199E+01 -0.83462930285E+02  0.90807998709E+02  0.47000000000E+01 0.  1.
<mgrwt>
<rscale>  0 0.99171308E+02</rscale>
<asrwt>0</asrwt>
<pdfrwt beam="1">  1        2 0.13677012E+00 0.10001812E+03</pdfrwt>
<pdfrwt beam="2">  1       -2 0.17474606E-02 0.10001812E+03</pdfrwt>
<totfact> 0.26825909E+04</totfact>
</mgrwt>
</event>
<event>
 8    1  0.7366917E-004  0.9920302E+02  0.7546771E-02  0.1282405E+00
          2   -1    0    0  501    0  0.00000000000E+00  0.00000000000E+00  0.59729795687E+03  0.59729795687E+03  0.00000000000E+00 0. -1.
         -2   -1    0    0    0  501 -0.00000000000E+00 -0.00000000000E+00 -0.16999998147E+02  0.16999998147E+02  0.00000000000E+00 0.  1.
         23    2    1    2    0    0 -0.13431235424E+02  0.30058124477E+02  0.23096387265E+03  0.25136735911E+03  0.93580712883E+02 0.  0.
         23    2    1    2    0    0  0.13431235424E+02 -0.30058124477E+02  0.34933408607E+03  0.36293059591E+03  0.92738475413E+02 0.  0.
          5    1    3    3  502    0  0.33016962048E+02  0.27462764429E+02  0.16467206481E+03  0.17024483000E+03  0.47000000000E+01 0. -1.
         -5    1    4    4    0  503 -0.38756077547E+02 -0.12436846924E+02  0.18718050601E+03  0.19161247490E+03  0.47000000000E+01 0.  1.
          5    1    4    4  503    0  0.52187312971E+02 -0.17621277553E+02  0.16215358006E+03  0.17131812101E+03  0.47000000000E+01 0. -1.
         -5    1    3    3    0  502 -0.46448197472E+02  0.25953600481E+01  0.66291807835E+02  0.81122529104E+02  0.47000000000E+01 0.  1.
<mgrwt>
<rscale>  0 0.99003892E+02</rscale>
<asrwt>0</asrwt>
<pdfrwt beam="1">  1        2 0.91891977E-01 0.99203018E+02</pdfrwt>
<pdfrwt beam="2">  1       -2 0.26153848E-02 0.99203018E+02</pdfrwt>
<totfact> 0.24063746E+04</totfact>
</mgrwt>
</event>
<event>
 8    1  0.7366917E-004  0.9355628E+02  0.7546771E-02  0.1294963E+00
         -2   -1    0    0    0  501 -0.00000000000E+00  0.00000000000E+00  0.38969793418E+02  0.38969793418E+02  0.00000000000E+00 0.  1.
          2   -1    0    0  501    0  0.00000000000E+00 -0.00000000000E+00 -0.22272908476E+03  0.22272908476E+03  0.00000000000E+00 0. -1.
         23    2    1    2    0    0  0.17095201470E+02 -0.14685998938E+02 -0.87486371953E+02  0.12745562146E+03  0.89906316167E+02 0.  0.
         23    2    1    2    0    0 -0.17095201470E+02  0.14685998938E+02 -0.96272919393E+02  0.13424325672E+03  0.90801170081E+02 0.  0.
          5    1    4    4  502    0 -0.35183682237E+02  0.32935077774E+02 -0.96669785417E+02  0.10811913918E+03  0.47000000000E+01 0. -1.
         -5    1    4    4    0  502  0.18088480766E+02 -0.18249078836E+02  0.39686602378E+00  0.26124117543E+02  0.47000000000E+01 0.  1.
          5    1    3    3  503    0 -0.19813122529E+02 -0.22591388522E+02 -0.83908783120E+02  0.89250795763E+02  0.47000000000E+01 0. -1.
         -5    1    3    3    0  503  0.36908323999E+02  0.79053895839E+01 -0.35775888333E+01  0.38204825700E+02  0.47000000000E+01 0.  1.
<mgrwt>
<rscale>  0 0.93338455E+02</rscale>
<asrwt>0</asrwt>
<pdfrwt beam="1">  1        2 0.34266013E-01 0.93556277E+02</pdfrwt>
<pdfrwt beam="2">  1       -2 0.59953529E-02 0.93556277E+02</pdfrwt>
<totfact> 0.20118667E+04</totfact>
</mgrwt>
</event>
<event>
 8    1  0.7366917E-004  0.9134168E+02  0.7546771E-02  0.1300030E+00
         -4   -1    0    0    0  501 -0.00000000000E+00  0.00000000000E+00  0.86159018861E+02  0.86159018861E+02  0.00000000000E+00 0.  1.
          4   -1    0    0  501    0  0.00000000000E+00 -0.00000000000E+00 -0.17713486650E+03  0.17713486650E+03  0.00000000000E+00 0. -1.
         23    2    1    2    0    0  0.22221526205E+01 -0.94772361162E+00  0.43624615310E+02  0.10062677805E+03  0.90646595396E+02 0.  0.
         23    2    1    2    0    0 -0.22221526205E+01  0.94772361162E+00 -0.13460046295E+03  0.16266710731E+03  0.91309731319E+02 0.  0.
          5    1    4    4  502    0 -0.73738756802E+01  0.34851637105E+02 -0.11971020918E+03  0.12498653861E+03  0.47000000000E+01 0. -1.
         -5    1    4    4    0  502  0.51517230597E+01 -0.33903913494E+02 -0.14890253769E+02  0.37680568706E+02  0.47000000000E+01 0.  1.
          5    1    3    3  503    0 -0.22565410496E+02  0.37805098180E+02  0.24321966320E+02  0.50518028910E+02  0.47000000000E+01 0. -1.
         -5    1    3    3    0  503  0.24787563116E+02 -0.38752821792E+02  0.19302648989E+02  0.50108749137E+02  0.47000000000E+01 0.  1.
<mgrwt>
<rscale>  0 0.91175505E+02</rscale>
<asrwt>0</asrwt>
<pdfrwt beam="1">  1        4 0.27251517E-01 0.91341684E+02</pdfrwt>
<pdfrwt beam="2">  1       -4 0.13255234E-01 0.91341684E+02</pdfrwt>
<totfact> 0.90086734E+02</totfact>
</mgrwt>
</event>
<event>
 7    1  0.7366917E-004  0.1996117E+03  0.7546771E-02  0.1172234E+00
         -1   -1    0    0    0  501 -0.00000000000E+00  0.00000000000E+00  0.17476124982E+03  0.17476124982E+03  0.00000000000E+00 0.  1.
          1   -1    0    0  501    0  0.00000000000E+00 -0.00000000000E+00 -0.14745731976E+03  0.14745731976E+03  0.00000000000E+00 0. -1.
         23    2    1    2    0    0  0.57635574793E+02  0.51803560925E+02  0.28410164117E+02  0.12260379237E+03  0.90659164301E+02 0.  0.
          5    1    3    3  502    0  0.87233683933E+01  0.40570000311E+02 -0.25394302267E+02  0.48877220349E+02  0.47000000000E+01 0. -1.
         -5    1    3    3    0  502  0.48912206400E+02  0.11233560614E+02  0.53804466384E+02  0.73726572020E+02  0.47000000000E+01 0.  1.
          5    1    1    2  503    0 -0.39540008709E+02 -0.11882379663E+03  0.20002283051E+02  0.12690424840E+03  0.47000000000E+01 0. -1.
         -5    1    1    2    0  503 -0.18095566084E+02  0.67020235703E+02 -0.21108517116E+02  0.72710528814E+02  0.47000000000E+01 0.  1.
<mgrwt>
<rscale>  0 0.17549686E+03</rscale>
<asrwt>0</asrwt>
<pdfrwt beam="1">  1        1 0.22685742E-01 0.19961171E+03</pdfrwt>
<pdfrwt beam="2">  1       -1 0.26886346E-01 0.19961171E+03</pdfrwt>
<totfact> 0.26307175E+03</totfact>
</mgrwt>
</event>
<event>
 8    1  0.7366917E-004  0.1446907E+03  0.7546771E-02  0.1208005E+00
         -1   -1    0    0    0  501 -0.00000000000E+00  0.00000000000E+00  0.53019802016E+03  0.53019802016E+03  0.00000000000E+00 0.  1.
          1   -1    0    0  501    0  0.00000000000E+00 -0.00000000000E+00 -0.47880594265E+02  0.47880594265E+02  0.00000000000E+00 0. -1.
         23    2    1    2    0    0 -0.82514824727E+02 -0.70793146956E+02  0.36542241585E+03  0.39206825497E+03  0.91452766991E+02 0.  0.
         23    2    1    2    0    0  0.82514824727E+02  0.70793146956E+02  0.11689501004E+03  0.18601035945E+03  0.95472742163E+02 0.  0.
          5    1    4    4  502    0  0.40623978823E+02  0.81198016276E+02  0.43620288322E+02  0.10083771644E+03  0.47000000000E+01 0. -1.
         -5    1    3    3    0  503 -0.34212610383E+01 -0.43244626785E+02  0.21912789308E+03  0.22342991361E+03  0.47000000000E+01 0.  1.
          5    1    3    3  503    0 -0.79093563689E+02 -0.27548520172E+02  0.14629452278E+03  0.16863834135E+03  0.47000000000E+01 0. -1.
         -5    1    4    4    0  502  0.41890845904E+02 -0.10404869319E+02  0.73274721713E+02  0.85172643016E+02  0.47000000000E+01 0.  1.
<mgrwt>
<rscale>  0 0.14403114E+03</rscale>
<asrwt>0</asrwt>
<pdfrwt beam="1">  1        1 0.73662457E-02 0.14469074E+03</pdfrwt>
<pdfrwt beam="2">  1       -1 0.81568922E-01 0.14469074E+03</pdfrwt>
<totfact> 0.14936994E+03</totfact>
</mgrwt>
</event>
<event>
 8    1  0.7366917E-004  0.9335466E+02  0.7546771E-02  0.1295389E+00
         -3   -1    0    0    0  501 -0.00000000000E+00  0.00000000000E+00  0.16942421771E+02  0.16942421771E+02  0.00000000000E+00 0.  1.
          3   -1    0    0  501    0  0.00000000000E+00 -0.00000000000E+00 -0.58437356956E+03  0.58437356956E+03  0.00000000000E+00 0. -1.
         23    2    1    2    0    0 -0.66593964319E+01  0.99956084411E+01 -0.39204226457E+03  0.40300400695E+03  0.92578791639E+02 0.  0.
         23    2    1    2    0    0  0.66593964319E+01 -0.99956084411E+01 -0.17538888322E+03  0.19831198438E+03  0.91772125630E+02 0.  0.
          5    1    4    4  502    0 -0.45370139746E+01  0.38601457773E+02 -0.51590472179E+02  0.64763599789E+02  0.47000000000E+01 0. -1.
         -5    1    4    4    0  502  0.11196410406E+02 -0.48597066214E+02 -0.12379841104E+03  0.13354838459E+03  0.47000000000E+01 0.  1.
          5    1    3    3  503    0 -0.45816931622E+02 -0.39341104152E+01 -0.27160695413E+03  0.27551242437E+03  0.47000000000E+01 0. -1.
         -5    1    3    3    0  503  0.39157535190E+02  0.13929718856E+02 -0.12043531044E+03  0.12749158258E+03  0.47000000000E+01 0.  1.
<mgrwt>
<rscale>  0 0.93154038E+02</rscale>
<asrwt>0</asrwt>
<pdfrwt beam="1">  1        3 0.89903618E-01 0.93354659E+02</pdfrwt>
<pdfrwt beam="2">  1       -3 0.26065266E-02 0.93354659E+02</pdfrwt>
<totfact> 0.15702084E+03</totfact>
</mgrwt>
</event>
<event>
 8    1  0.7366917E-004  0.9236493E+02  0.7546771E-02  0.1297434E+00
         -3   -1    0    0    0  501 -0.00000000000E+00  0.00000000000E+00  0.91762257479E+02  0.91762257479E+02  0.00000000000E+00 0.  1.
          3   -1    0    0  501    0  0.00000000000E+00 -0.00000000000E+00 -0.11922493759E+03  0.11922493759E+03  0.00000000000E+00 0. -1.
         23    2    1    2    0    0 -0.11183103620E+02  0.86389950446E+01  0.36090096908E+02  0.99165390826E+02  0.91277519690E+02 0.  0.
         23    2    1    2    0    0  0.11183103620E+02 -0.86389950446E+01 -0.63552777016E+02  0.11182180424E+03  0.90914610462E+02 0.  0.
          5    1    4    4  502    0  0.33401175670E+02 -0.22604795835E+02 -0.73003648344E+02  0.83535848606E+02  0.47000000000E+01 0. -1.
         -5    1    3    3    0  503 -0.30760327509E+02 -0.21386934990E+02 -0.11436224037E+02  0.39452198379E+02  0.47000000000E+01 0.  1.
          5    1    3    3  503    0  0.19577223888E+02  0.30025930034E+02  0.47526320945E+02  0.59713192447E+02  0.47000000000E+01 0. -1.
         -5    1    4    4    0  502 -0.22218072050E+02  0.13965800790E+02  0.94508713276E+01  0.28285955635E+02  0.47000000000E+01 0.  1.
<mgrwt>
<rscale>  0 0.92275141E+02</rscale>
<asrwt>0</asrwt>
<pdfrwt beam="1">  1        3 0.18342298E-01 0.92364926E+02</pdfrwt>
<pdfrwt beam="2">  1       -3 0.14117270E-01 0.92364926E+02</pdfrwt>
<totfact> 0.22911920E+03</totfact>
</mgrwt>
</event>
<event>
 8    1  0.7366917E-004  0.1234979E+03  0.7546771E-02  0.1237918E+00
         -1   -1    0    0    0  501 -0.00000000000E+00  0.00000000000E+00  0.53634366879E+02  0.53634366879E+02  0.00000000000E+00 0.  1.
          1   -1    0    0  501    0  0.00000000000E+00 -0.00000000000E+00 -0.77250769954E+03  0.77250769954E+03  0.00000000000E+00 0. -1.
         23    2    1    2    0    0 -0.74336605356E+02 -0.32589632142E+02 -0.29504809279E+02  0.12579879522E+03  0.91470148624E+02 0.  0.
         23    2    1    2    0    0  0.74336605356E+02  0.32589632142E+02 -0.68936852338E+03  0.70034327120E+03  0.93079114015E+02 0.  0.
          5    1    4    4  502    0  0.47837106948E+02  0.64557242133E+02 -0.40493781099E+03  0.41285923398E+03  0.47000000000E+01 0. -1.
         -5    1    4    4    0  502  0.26499498408E+02 -0.31967609991E+02 -0.28443071239E+03  0.28748403722E+03  0.47000000000E+01 0.  1.
          5    1    3    3  503    0 -0.62595126494E+01  0.28049860389E+02 -0.16826720782E+02  0.33633386667E+02  0.47000000000E+01 0. -1.
         -5    1    3    3    0  503 -0.68077092706E+02 -0.60639492531E+02 -0.12678088497E+02  0.92165408553E+02  0.47000000000E+01 0.  1.
<mgrwt>
<rscale>  0 0.12319478E+03</rscale>
<asrwt>0</asrwt>
<pdfrwt beam="1">  1        1 0.11884733E+00 0.12349792E+03</pdfrwt>
<pdfrwt beam="2">  1       -1 0.82514413E-02 0.12349792E+03</pdfrwt>
<totfact> 0.19685091E+03</totfact>
</mgrwt>
</event>
<event>
 8    1  0.7366917E-004  0.9440873E+02  0.7546771E-02  0.1293663E+00
         -1   -1    0    0    0  501 -0.00000000000E+00  0.00000000000E+00  0.45359670884E+02  0.45359670884E+02  0.00000000000E+00 0.  1.
          1   -1    0    0  501    0  0.00000000000E+00 -0.00000000000E+00 -0.55065599862E+03  0.55065599862E+03  0.00000000000E+00 0. -1.
         23    2    1    2    0    0  0.11595815624E+02  0.15279849438E+02 -0.49397760054E+03  0.50291836105E+03  0.92439554858E+02 0.  0.
         23    2    1    2    0    0 -0.11595815624E+02 -0.15279849438E+02 -0.11318727189E+02  0.93097308451E+02  0.90393907520E+02 0.  0.
          5    1    4    4  502    0  0.27370510427E+02 -0.27441062181E+02  0.17626428890E+02  0.42836173150E+02  0.47000000000E+01 0. -1.
         -5    1    3    3    0  503 -0.59914412408E+01 -0.37020480541E+02 -0.24142522510E+03  0.24436579683E+03  0.47000000000E+01 0.  1.
          5    1    3    3  503    0  0.17587256865E+02  0.52300329979E+02 -0.25255237544E+03  0.25855256422E+03  0.47000000000E+01 0. -1.
         -5    1    4    4    0  502 -0.38966326051E+02  0.12161212743E+02 -0.28945156079E+02  0.50261135301E+02  0.47000000000E+01 0.  1.
<mgrwt>
<rscale>  0 0.93904187E+02</rscale>
<asrwt>0</asrwt>
<pdfrwt beam="1">  1        1 0.84716307E-01 0.94408729E+02</pdfrwt>
<pdfrwt beam="2">  1       -1 0.69784109E-02 0.94408729E+02</pdfrwt>
<totfact> 0.40045837E+03</totfact>
</mgrwt>
</event>
<event>
 8    1  0.7366917E-004  0.9242000E+02  0.7546771E-02  0.1297658E+00
         -1   -1    0    0    0  501 -0.00000000000E+00  0.00000000000E+00  0.32101355580E+03  0.32101355580E+03  0.00000000000E+00 0.  1.
          1   -1    0    0  501    0  0.00000000000E+00 -0.00000000000E+00 -0.44343016382E+02  0.44343016382E+02  0.00000000000E+00 0. -1.
         23    2    1    2    0    0 -0.81549274312E+00  0.11135865366E+02  0.25432857463E+03  0.27027439390E+03  0.90777483981E+02 0.  0.
         23    2    1    2    0    0  0.81549274312E+00 -0.11135865366E+02  0.22341964789E+02  0.95082178284E+02  0.91743036307E+02 0.  0.
          5    1    4    4  502    0  0.44507747765E+02 -0.15488686946E+02  0.49355746356E+01  0.47616057495E+02  0.47000000000E+01 0. -1.
         -5    1    4    4    0  502 -0.43692255022E+02  0.43528215794E+01  0.17406390153E+02  0.47466120789E+02  0.47000000000E+01 0.  1.
          5    1    3    3  503    0 -0.45170841407E+02  0.30203686825E+00  0.13410715620E+03  0.14158854291E+03  0.47000000000E+01 0. -1.
         -5    1    3    3    0  503  0.44355348664E+02  0.10833828498E+02  0.12022141843E+03  0.12868585099E+03  0.47000000000E+01 0.  1.
<mgrwt>
<rscale>  0 0.92179466E+02</rscale>
<asrwt>0</asrwt>
<pdfrwt beam="1">  1        1 0.68220027E-02 0.92420005E+02</pdfrwt>
<pdfrwt beam="2">  1       -1 0.49386699E-01 0.92420005E+02</pdfrwt>
<totfact> 0.42385384E+03</totfact>
</mgrwt>
</event>
<event>
 8    1  0.7366917E-004  0.9684789E+02  0.7546771E-02  0.1288150E+00
         -3   -1    0    0    0  501 -0.00000000000E+00  0.00000000000E+00  0.62826289593E+02  0.62826289593E+02  0.00000000000E+00 0.  1.
          3   -1    0    0  501    0  0.00000000000E+00 -0.00000000000E+00 -0.14667579124E+03  0.14667579124E+03  0.00000000000E+00 0. -1.
         23    2    1    2    0    0 -0.11658075331E+02  0.31714662631E+02 -0.37053234543E+02  0.10369405096E+03  0.90762235911E+02 0.  0.
         23    2    1    2    0    0  0.11658075331E+02 -0.31714662631E+02 -0.46796267104E+02  0.10580802988E+03  0.88677607236E+02 0.  0.
          5    1    4    4  502    0  0.20922632190E+01 -0.60823566305E+02 -0.42804465226E+02  0.74553309965E+02  0.47000000000E+01 0. -1.
         -5    1    3    3    0  503 -0.46818337619E+02  0.63373426412E+01 -0.16315632761E+01  0.47506532687E+02  0.47000000000E+01 0.  1.
          5    1    3    3  503    0  0.35160262288E+02  0.25377319990E+02 -0.35421671267E+02  0.56187518270E+02  0.47000000000E+01 0. -1.
         -5    1    4    4    0  502  0.95658121124E+01  0.29108903674E+02 -0.39918018781E+01  0.31254719911E+02  0.47000000000E+01 0.  1.
<mgrwt>
<rscale>  0 0.96356451E+02</rscale>
<asrwt>0</asrwt>
<pdfrwt beam="1">  1        3 0.22565506E-01 0.96847891E+02</pdfrwt>
<pdfrwt beam="2">  1       -3 0.96655830E-02 0.96847891E+02</pdfrwt>
<totfact> 0.30185533E+03</totfact>
</mgrwt>
</event>
<event>
 8    1  0.7366917E-004  0.1698733E+03  0.7546771E-02  0.1178981E+00
          1   -1    0    0  501    0  0.00000000000E+00  0.00000000000E+00  0.51995526407E+03  0.51995526407E+03  0.00000000000E+00 0. -1.
         -1   -1    0    0    0  501 -0.00000000000E+00 -0.00000000000E+00 -0.54778496881E+02  0.54778496881E+02  0.00000000000E+00 0.  1.
         23    2    1    2    0    0 -0.98691818293E+02  0.10486616934E+03  0.20225903932E+03  0.26171193689E+03  0.82749202132E+02 0.  0.
         23    2    1    2    0    0  0.98691818293E+02 -0.10486616934E+03  0.26291772787E+03  0.31302182406E+03  0.90110722114E+02 0.  0.
          5    1    4    4  502    0  0.53956055713E+02 -0.10341048890E+03  0.22768237179E+03  0.25586390442E+03  0.47000000000E+01 0. -1.
         -5    1    4    4    0  502  0.44735762580E+02 -0.14556804406E+01  0.35235356077E+02  0.57157919635E+02  0.47000000000E+01 0.  1.
          5    1    3    3  503    0 -0.10438735620E+03  0.61172505451E+02  0.13711225737E+03  0.18292254284E+03  0.47000000000E+01 0. -1.
         -5    1    3    3    0  503  0.56955379080E+01  0.43693663892E+02  0.65146781956E+02  0.78789394055E+02  0.47000000000E+01 0.  1.
<mgrwt>
<rscale>  0 0.16891833E+03</rscale>
<asrwt>0</asrwt>
<pdfrwt beam="1">  1        1 0.79993114E-01 0.16987328E+03</pdfrwt>
<pdfrwt beam="2">  1       -1 0.84274614E-02 0.16987328E+03</pdfrwt>
<totfact> 0.33394626E+03</totfact>
</mgrwt>
</event>
<event>
 8    1  0.7366917E-004  0.9970798E+02  0.7546771E-02  0.1281175E+00
          2   -1    0    0  501    0  0.00000000000E+00  0.00000000000E+00  0.41448914231E+03  0.41448914231E+03  0.00000000000E+00 0. -1.
         -2   -1    0    0    0  501 -0.00000000000E+00 -0.00000000000E+00 -0.45879486654E+02  0.45879486654E+02  0.00000000000E+00 0.  1.
         23    2    1    2    0    0  0.36611979199E+02 -0.18783798452E+02  0.24619682676E+02  0.10221952275E+03  0.90274215321E+02 0.  0.
         23    2    1    2    0    0 -0.36611979199E+02  0.18783798452E+02  0.34398997298E+03  0.35814910621E+03  0.90820772197E+02 0.  0.
          5    1    4    4  502    0 -0.39584605044E+02  0.44431200627E+02  0.13617351734E+03  0.14868217570E+03  0.47000000000E+01 0. -1.
         -5    1    4    4    0  502  0.29726258447E+01 -0.25647402176E+02  0.20781645564E+03  0.20946693051E+03  0.47000000000E+01 0.  1.
          5    1    3    3  503    0  0.66183998261E+02 -0.18085469273E+02  0.12444736530E+02  0.69888248597E+02  0.47000000000E+01 0. -1.
         -5    1    3    3    0  503 -0.29572019061E+02 -0.69832917837E+00  0.12174946145E+02  0.32331274158E+02  0.47000000000E+01 0.  1.
<mgrwt>
<rscale>  0 0.99583348E+02</rscale>
<asrwt>0</asrwt>
<pdfrwt beam="1">  1        2 0.63767558E-01 0.99707977E+02</pdfrwt>
<pdfrwt beam="2">  1       -2 0.70583828E-02 0.99707977E+02</pdfrwt>
<totfact> 0.82310393E+03</totfact>
</mgrwt>
</event>
<event>
 8    1  0.7366917E-004  0.1347233E+03  0.7546771E-02  0.1220977E+00
          1   -1    0    0  501    0  0.00000000000E+00  0.00000000000E+00  0.11273161331E+04  0.11273161331E+04  0.00000000000E+00 0. -1.
         -1   -1    0    0    0  501 -0.00000000000E+00 -0.00000000000E+00 -0.19615050688E+02  0.19615050688E+02  0.00000000000E+00 0.  1.
         23    2    1    2    0    0  0.39884039171E+02  0.90332771812E+02  0.80253765300E+03  0.81376719909E+03  0.91649460375E+02 0.  0.
         23    2    1    2    0    0 -0.39884039171E+02 -0.90332771812E+02  0.30516342945E+03  0.33316398473E+03  0.90126443442E+02 0.  0.
          5    1    4    4  502    0  0.22878209708E+02 -0.29478987374E+02  0.44899358952E+02  0.58570176799E+02  0.47000000000E+01 0. -1.
         -5    1    4    4    0  502 -0.62762248879E+02 -0.60853784437E+02  0.26026407049E+03  0.27459380793E+03  0.47000000000E+01 0.  1.
          5    1    3    3  503    0  0.59018342979E+02  0.31570066951E+02  0.53237682143E+03  0.53658830022E+03  0.47000000000E+01 0. -1.
         -5    1    3    3    0  503 -0.19134303807E+02  0.58762704860E+02  0.27016083157E+03  0.27717889887E+03  0.47000000000E+01 0.  1.
<mgrwt>
<rscale>  0 0.13446471E+03</rscale>
<asrwt>0</asrwt>
<pdfrwt beam="1">  1        1 0.17343320E+00 0.13472331E+03</pdfrwt>
<pdfrwt beam="2">  1       -1 0.30177010E-02 0.13472331E+03</pdfrwt>
<totfact> 0.47206428E+03</totfact>
</mgrwt>
</event>
<event>
 8    1  0.7366917E-004  0.1291611E+03  0.7546771E-02  0.1240211E+00
          1   -1    0    0  501    0  0.00000000000E+00  0.00000000000E+00  0.11755379082E+04  0.11755379082E+04  0.00000000000E+00 0. -1.
         -1   -1    0    0    0  501 -0.00000000000E+00 -0.00000000000E+00 -0.20734393454E+02  0.20734393454E+02  0.00000000000E+00 0.  1.
         23    2    1    2    0    0 -0.31572784034E+01 -0.40719526608E+02  0.10150717111E+04  0.10232561609E+04  0.12253384823E+03 0.  0.
         23    2    1    2    0    0  0.31572784034E+01  0.40719526608E+02  0.13973180360E+03  0.17301614067E+03  0.93496308707E+02 0.  0.
          5    1    3    3  502    0  0.56913864650E+02 -0.34683759238E+02  0.44700871948E+03  0.45197459712E+03  0.47000000000E+01 0. -1.
         -5    1    3    3    0  502 -0.60071143053E+02 -0.60357673704E+01  0.56806299162E+03  0.57128156382E+03  0.47000000000E+01 0.  1.
          5    1    4    4  503    0  0.66378622371E+01  0.70800910895E+02  0.93863144972E+02  0.11785249332E+03  0.47000000000E+01 0.  1.
         -5    1    4    4    0  503 -0.34805838336E+01 -0.30081384287E+02  0.45868658628E+02  0.55163647348E+02  0.47000000000E+01 0. -1.
<mgrwt>
<rscale>  0 0.12176658E+03</rscale>
<asrwt>0</asrwt>
<pdfrwt beam="1">  1        1 0.18085193E+00 0.12916111E+03</pdfrwt>
<pdfrwt beam="2">  1       -1 0.31899076E-02 0.12916111E+03</pdfrwt>
<totfact> 0.40261489E+03</totfact>
</mgrwt>
</event>
<event>
 8    1  0.7366917E-004  0.1459830E+03  0.7546771E-02  0.1205618E+00
         -2   -1    0    0    0  501 -0.00000000000E+00  0.00000000000E+00  0.60563350273E+02  0.60563350273E+02  0.00000000000E+00 0.  1.
          2   -1    0    0  501    0  0.00000000000E+00 -0.00000000000E+00 -0.35132490582E+03  0.35132490582E+03  0.00000000000E+00 0. -1.
         23    2    1    2    0    0  0.54748075103E+02 -0.10048341700E+03 -0.13867146819E+03  0.20107452263E+03  0.90038429255E+02 0.  0.
         23    2    1    2    0    0 -0.54748075103E+02  0.10048341700E+03 -0.15209008736E+03  0.21081373346E+03  0.90646382845E+02 0.  0.
          5    1    4    4  502    0 -0.52982531595E+02  0.51088172554E+02 -0.14220128649E+03  0.16018878210E+03  0.47000000000E+01 0. -1.
         -5    1    4    4    0  502 -0.17655435080E+01  0.49395244447E+02 -0.98888008623E+01  0.50624951362E+02  0.47000000000E+01 0.  1.
          5    1    3    3  503    0  0.15506563367E+02 -0.10460911430E+03 -0.10201483203E+03  0.14701236770E+03  0.47000000000E+01 0. -1.
         -5    1    3    3    0  503  0.39241511736E+02  0.41256973015E+01 -0.36656636158E+02  0.54062154933E+02  0.47000000000E+01 0.  1.
<mgrwt>
<rscale>  0 0.14588873E+03</rscale>
<asrwt>0</asrwt>
<pdfrwt beam="1">  1        2 0.54049986E-01 0.14598300E+03</pdfrwt>
<pdfrwt beam="2">  1       -2 0.93174385E-02 0.14598300E+03</pdfrwt>
<totfact> 0.65611849E+03</totfact>
</mgrwt>
</event>
<event>
 8    1  0.7366917E-004  0.1082654E+03  0.7546771E-02  0.1264766E+00
         -2   -1    0    0    0  501 -0.00000000000E+00  0.00000000000E+00  0.27097511653E+03  0.27097511653E+03  0.00000000000E+00 0.  1.
          2   -1    0    0  501    0  0.00000000000E+00 -0.00000000000E+00 -0.80772271798E+03  0.80772271798E+03  0.00000000000E+00 0. -1.
         23    2    1    2    0    0  0.54833949963E+02 -0.14331179421E+02  0.25673533442E+03  0.27786292193E+03  0.89903429713E+02 0.  0.
         23    2    1    2    0    0 -0.54833949963E+02  0.14331179421E+02 -0.79348293588E+03  0.80083491257E+03  0.92245557605E+02 0.  0.
          5    1    3    3  502    0 -0.15333721731E+01 -0.42575669804E+02  0.11201955440E+03  0.11993960754E+03  0.47000000000E+01 0. -1.
         -5    1    4    4    0  503 -0.61472132556E+01 -0.32390102946E+02 -0.14213149094E+03  0.14598067583E+03  0.47000000000E+01 0.  1.
          5    1    4    4  503    0 -0.48686736708E+02  0.46721282367E+02 -0.65135144494E+03  0.65485423674E+03  0.47000000000E+01 0. -1.
         -5    1    3    3    0  502  0.56367322137E+02  0.28244490383E+02  0.14471578002E+03  0.15792331440E+03  0.47000000000E+01 0.  1.
<mgrwt>
<rscale>  0 0.10776477E+03</rscale>
<asrwt>0</asrwt>
<pdfrwt beam="1">  1        2 0.12426503E+00 0.10826536E+03</pdfrwt>
<pdfrwt beam="2">  1       -2 0.41688480E-01 0.10826536E+03</pdfrwt>
<totfact> 0.20072005E+02</totfact>
</mgrwt>
</event>
<event>
 8    1  0.7366917E-004  0.9565934E+02  0.7546771E-02  0.1293028E+00
          1   -1    0    0  501    0  0.00000000000E+00  0.00000000000E+00  0.34125205610E+03  0.34125205610E+03  0.00000000000E+00 0. -1.
         -1   -1    0    0    0  501 -0.00000000000E+00 -0.00000000000E+00 -0.41293634544E+02  0.41293634544E+02  0.00000000000E+00 0.  1.
         23    2    1    2    0    0  0.33100916828E+02 -0.25231947996E+01  0.27836260146E+02  0.94099542593E+02  0.83533402483E+02 0.  0.
         23    2    1    2    0    0 -0.33100916828E+02  0.25231947996E+01  0.27212216141E+03  0.28844614805E+03  0.89714393432E+02 0.  0.
          5    1    4    4  502    0 -0.53216191256E+02  0.10204837254E+02  0.25444654462E+03  0.26019461137E+03  0.47000000000E+01 0. -1.
         -5    1    4    4    0  502  0.20115274428E+02 -0.76816424541E+01  0.17675616787E+02  0.28251536682E+02  0.47000000000E+01 0.  1.
          5    1    3    3  503    0 -0.19306470949E+01 -0.28161589882E+02  0.39618906300E+02  0.48872796926E+02  0.47000000000E+01 0. -1.
         -5    1    3    3    0  503  0.35031563923E+02  0.25638395082E+02 -0.11782646154E+02  0.45226745668E+02  0.47000000000E+01 0.  1.
<mgrwt>
<rscale>  0 0.94182684E+02</rscale>
<asrwt>0</asrwt>
<pdfrwt beam="1">  1        1 0.52500314E-01 0.95659341E+02</pdfrwt>
<pdfrwt beam="2">  1       -1 0.63528671E-02 0.95659341E+02</pdfrwt>
<totfact> 0.84258268E+03</totfact>
</mgrwt>
</event>
<event>
 8    1  0.7366917E-004  0.1046717E+03  0.7546771E-02  0.1272119E+00
          3   -1    0    0  501    0  0.00000000000E+00  0.00000000000E+00  0.91580034400E+03  0.91580034400E+03  0.00000000000E+00 0. -1.
         -3   -1    0    0    0  501 -0.00000000000E+00 -0.00000000000E+00 -0.15663630844E+02  0.15663630844E+02  0.00000000000E+00 0.  1.
         23    2    1    2    0    0 -0.55635298832E+01  0.44626393611E+02  0.21891756301E+03  0.24265419602E+03  0.94518207672E+02 0.  0.
         23    2    1    2    0    0  0.55635298832E+01 -0.44626393611E+02  0.68121915015E+03  0.68880977883E+03  0.91525477342E+02 0.  0.
          5    1    3    3  502    0  0.34665435676E+02 -0.48706230676E+01  0.11803938909E+03  0.12321040043E+03  0.47000000000E+01 0. -1.
         -5    1    3    3    0  502 -0.40228965559E+02  0.49497016678E+02  0.10087817392E+03  0.11944379559E+03  0.47000000000E+01 0.  1.
          5    1    4    4  503    0 -0.31188746866E+02 -0.55032604518E+02  0.41225547712E+03  0.41710669367E+03  0.47000000000E+01 0. -1.
         -5    1    4    4    0  503  0.36752276749E+02  0.10406210907E+02  0.26896367303E+03  0.27170308515E+03  0.47000000000E+01 0.  1.
<mgrwt>
<rscale>  0 0.10399149E+03</rscale>
<asrwt>0</asrwt>
<pdfrwt beam="1">  1        3 0.14089232E+00 0.10467167E+03</pdfrwt>
<pdfrwt beam="2">  1       -3 0.24097901E-02 0.10467167E+03</pdfrwt>
<totfact> 0.64093856E+02</totfact>
</mgrwt>
</event>
<event>
 8    1  0.7366917E-004  0.9389143E+02  0.7546771E-02  0.1295752E+00
          1   -1    0    0  501    0  0.00000000000E+00  0.00000000000E+00  0.69793551145E+03  0.69793551145E+03  0.00000000000E+00 0. -1.
         -1   -1    0    0    0  501 -0.00000000000E+00 -0.00000000000E+00 -0.14052010528E+02  0.14052010528E+02  0.00000000000E+00 0.  1.
         23    2    1    2    0    0 -0.64975441184E+01 -0.63358500484E+01  0.46685072996E+03  0.47551590724E+03  0.89907802232E+02 0.  0.
         23    2    1    2    0    0  0.64975441184E+01  0.63358500484E+01  0.21703277097E+03  0.23647161474E+03  0.93451804842E+02 0.  0.
          5    1    4    4  502    0 -0.20121072372E+02  0.89206182615E+01  0.20589675057E+03  0.20712314423E+03  0.47000000000E+01 0. -1.
         -5    1    3    3    0  503  0.17240274217E+02  0.26579524341E+02  0.75147884877E+02  0.81688388225E+02  0.47000000000E+01 0.  1.
          5    1    3    3  503    0 -0.23737818335E+02 -0.32915374390E+02  0.39170284508E+03  0.39382751902E+03  0.47000000000E+01 0. -1.
         -5    1    4    4    0  502  0.26618616490E+02 -0.25847682131E+01  0.11136020399E+02  0.29348470504E+02  0.47000000000E+01 0.  1.
<mgrwt>
<rscale>  0 0.92997043E+02</rscale>
<asrwt>0</asrwt>
<pdfrwt beam="1">  1        1 0.10737467E+00 0.93891431E+02</pdfrwt>
<pdfrwt beam="2">  1       -1 0.21618483E-02 0.93891431E+02</pdfrwt>
<totfact> 0.15952140E+04</totfact>
</mgrwt>
</event>
<event>
 8    1  0.7366917E-004  0.9950778E+02  0.7546771E-02  0.1282047E+00
          2   -1    0    0  501    0  0.00000000000E+00  0.00000000000E+00  0.52097781249E+03  0.52097781249E+03  0.00000000000E+00 0. -1.
         -2   -1    0    0    0  501 -0.00000000000E+00 -0.00000000000E+00 -0.21633969248E+02  0.21633969248E+02  0.00000000000E+00 0.  1.
         23    2    1    2    0    0 -0.15122620383E+02 -0.33186798527E+02  0.34723222624E+03  0.36084340734E+03  0.91146521833E+02 0.  0.
         23    2    1    2    0    0  0.15122620383E+02  0.33186798527E+02  0.15211161700E+03  0.18176837439E+03  0.92583695424E+02 0.  0.
          5    1    4    4  502    0 -0.88961834638E-01 -0.30672802629E+02  0.69747096242E+02  0.76338562794E+02  0.47000000000E+01 0. -1.
         -5    1    3    3    0  503  0.19859435568E+02 -0.94911228323E+01  0.17842241029E+02  0.28721318888E+02  0.47000000000E+01 0.  1.
          5    1    3    3  503    0 -0.34982055951E+02 -0.23695675695E+02  0.32938998521E+03  0.33212208845E+03  0.47000000000E+01 0. -1.
         -5    1    4    4    0  502  0.15211582218E+02  0.63859601156E+02  0.82364520761E+02  0.10542981160E+03  0.47000000000E+01 0.  1.
<mgrwt>
<rscale>  0 0.99172145E+02</rscale>
<asrwt>0</asrwt>
<pdfrwt beam="1">  1        2 0.80150423E-01 0.99507778E+02</pdfrwt>
<pdfrwt beam="2">  1       -2 0.33283034E-02 0.99507778E+02</pdfrwt>
<totfact> 0.19707803E+04</totfact>
</mgrwt>
</event>
<event>
 8    1  0.7366917E-004  0.1175373E+03  0.7546771E-02  0.1247494E+00
          3   -1    0    0  501    0  0.00000000000E+00  0.00000000000E+00  0.86657612053E+02  0.86657612053E+02  0.00000000000E+00 0. -1.
         -3   -1    0    0    0  501 -0.00000000000E+00 -0.00000000000E+00 -0.34347736526E+03  0.34347736526E+03  0.00000000000E+00 0.  1.
         23    2    1    2    0    0 -0.99870472066E+01 -0.72880683199E+02 -0.28605783335E+03  0.30901572902E+03  0.90831171220E+02 0.  0.
         23    2    1    2    0    0  0.99870472066E+01  0.72880683199E+02  0.29238080142E+02  0.12111924829E+03  0.91671543467E+02 0.  0.
          5    1    4    4  502    0  0.24152728385E+02  0.87526745684E+02  0.37877377485E+02  0.98494016182E+02  0.47000000000E+01 0. -1.
         -5    1    4    4    0  502 -0.14165681178E+02 -0.14646062486E+02 -0.86392973425E+01  0.22625232113E+02  0.47000000000E+01 0.  1.
          5    1    3    3  503    0 -0.27009974873E+02 -0.50613523448E+01 -0.21147451125E+02  0.34992295142E+02  0.47000000000E+01 0. -1.
         -5    1    3    3    0  503  0.17022927667E+02 -0.67819330854E+02 -0.26491038222E+03  0.27402343387E+03  0.47000000000E+01 0.  1.
<mgrwt>
<rscale>  0 0.11737335E+03</rscale>
<asrwt>0</asrwt>
<pdfrwt beam="1">  1        3 0.13331941E-01 0.11753726E+03</pdfrwt>
<pdfrwt beam="2">  1       -3 0.52842670E-01 0.11753726E+03</pdfrwt>
<totfact> 0.36983226E+02</totfact>
</mgrwt>
</event>
<event>
 8    1  0.7366917E-004  0.1513985E+03  0.7546771E-02  0.1203463E+00
         -1   -1    0    0    0  501 -0.00000000000E+00  0.00000000000E+00  0.22884188667E+03  0.22884188667E+03  0.00000000000E+00 0.  1.
          1   -1    0    0  501    0  0.00000000000E+00 -0.00000000000E+00 -0.13997448788E+03  0.13997448788E+03  0.00000000000E+00 0. -1.
         23    2    1    2    0    0  0.60691921023E+02  0.81261852957E+02 -0.66353407104E+02  0.15198695401E+03  0.91707478058E+02 0.  0.
         23    2    1    2    0    0 -0.60691921023E+02 -0.81261852957E+02  0.15522080590E+03  0.21682942054E+03  0.11240329623E+03 0.  0.
          5    1    4    4  502    0 -0.45113404832E+02  0.52432559836E+01  0.95773709820E+01  0.46653264234E+02  0.47000000000E+01 0. -1.
         -5    1    4    4    0  502 -0.15578516192E+02 -0.86505108940E+02  0.14564343492E+03  0.17017615630E+03  0.47000000000E+01 0.  1.
          5    1    3    3  503    0 -0.13268682491E+02  0.52505761018E+02 -0.42470110343E+02  0.68983426616E+02  0.47000000000E+01 0. -1.
         -5    1    3    3    0  503  0.73960603514E+02  0.28756091938E+02 -0.23883296761E+02  0.83003527395E+02  0.47000000000E+01 0.  1.
<mgrwt>
<rscale>  0 0.14759219E+03</rscale>
<asrwt>0</asrwt>
<pdfrwt beam="1">  1        1 0.21534537E-01 0.15139848E+03</pdfrwt>
<pdfrwt beam="2">  1       -1 0.35206444E-01 0.15139848E+03</pdfrwt>
<totfact> 0.17616507E+03</totfact>
</mgrwt>
</event>
<event>
 8    1  0.7366917E-004  0.9827698E+02  0.7546771E-02  0.1287737E+00
         -2   -1    0    0    0  501 -0.00000000000E+00  0.00000000000E+00  0.21436983416E+03  0.21436983416E+03  0.00000000000E+00 0.  1.
          2   -1    0    0  501    0  0.00000000000E+00 -0.00000000000E+00 -0.54859075204E+02  0.54859075204E+02  0.00000000000E+00 0. -1.
         23    2    1    2    0    0  0.52285029140E+01 -0.14148653703E+02  0.16817678566E+02  0.99705565222E+02  0.97112531527E+02 0.  0.
         23    2    1    2    0    0 -0.52285029140E+01  0.14148653703E+02  0.14269308039E+03  0.16952334414E+03  0.90273625014E+02 0.  0.
          5    1    4    4  502    0  0.14491320668E+01 -0.36864771802E+02  0.80466350214E+02  0.88645557704E+02  0.47000000000E+01 0.  1.
         -5    1    4    4    0  502 -0.66776349808E+01  0.51013425504E+02  0.62226730172E+02  0.80877786434E+02  0.47000000000E+01 0. -1.
          5    1    3    3  503    0 -0.45631218244E+02 -0.81231429307E+01  0.43754664373E+01  0.46791326505E+02  0.47000000000E+01 0. -1.
         -5    1    3    3    0  503  0.50859721158E+02 -0.60255107721E+01  0.12442212128E+02  0.52914238717E+02  0.47000000000E+01 0.  1.
<mgrwt>
<rscale>  0 0.96543702E+02</rscale>
<asrwt>0</asrwt>
<pdfrwt beam="1">  1        2 0.84398578E-02 0.98276983E+02</pdfrwt>
<pdfrwt beam="2">  1       -2 0.32979974E-01 0.98276983E+02</pdfrwt>
<totfact> 0.62803429E+03</totfact>
</mgrwt>
</event>
<event>
 8    1  0.7366917E-004  0.1068596E+03  0.7546771E-02  0.1268842E+00
         -1   -1    0    0    0  501 -0.00000000000E+00  0.00000000000E+00  0.53594267287E+03  0.53594267287E+03  0.00000000000E+00 0.  1.
          1   -1    0    0  501    0  0.00000000000E+00 -0.00000000000E+00 -0.36242499379E+02  0.36242499379E+02  0.00000000000E+00 0. -1.
         23    2    1    2    0    0 -0.22645266040E+02  0.49265162700E+02  0.44235060271E+03  0.45507474465E+03  0.92082045864E+02 0.  0.
         23    2    1    2    0    0  0.22645266040E+02 -0.49265162700E+02  0.57349570789E+02  0.11711042761E+03  0.86521758274E+02 0.  0.
          5    1    3    3  502    0 -0.33417155673E+02 -0.16512588864E+02  0.11524601638E+03  0.12121512354E+03  0.47000000000E+01 0. -1.
         -5    1    3    3    0  502  0.10771889633E+02  0.65777751564E+02  0.32710458632E+03  0.33385962110E+03  0.47000000000E+01 0.  1.
          5    1    4    4  503    0  0.27494406995E+02 -0.24835175292E+02 -0.15153686729E+02  0.40304498126E+02  0.47000000000E+01 0. -1.
         -5    1    4    4    0  503 -0.48491409545E+01 -0.24429987409E+02  0.72503257518E+02  0.76805929481E+02  0.47000000000E+01 0.  1.
<mgrwt>
<rscale>  0 0.10565113E+03</rscale>
<asrwt>0</asrwt>
<pdfrwt beam="1">  1        1 0.55757695E-02 0.10685957E+03</pdfrwt>
<pdfrwt beam="2">  1       -1 0.82452713E-01 0.10685957E+03</pdfrwt>
<totfact> 0.20998712E+03</totfact>
</mgrwt>
</event>
<event>
 8    1  0.7366917E-004  0.1014454E+03  0.7546771E-02  0.1277382E+00
         -1   -1    0    0    0  501 -0.00000000000E+00  0.00000000000E+00  0.45888631941E+02  0.45888631941E+02  0.00000000000E+00 0.  1.
          1   -1    0    0  501    0  0.00000000000E+00 -0.00000000000E+00 -0.25799243372E+03  0.25799243372E+03  0.00000000000E+00 0. -1.
         23    2    1    2    0    0  0.43585648769E+02  0.14936298629E+02 -0.16140758743E+03  0.19063992031E+03  0.90379024897E+02 0.  0.
         23    2    1    2    0    0 -0.43585648769E+02 -0.14936298629E+02 -0.50696214351E+02  0.11324114535E+03  0.90170111764E+02 0.  0.
          5    1    3    3  502    0  0.69071625811E+02  0.13341797732E+02 -0.14089108829E+03  0.15754771284E+03  0.47000000000E+01 0. -1.
         -5    1    3    3    0  502 -0.25485977042E+02  0.15945008971E+01 -0.20516499133E+02  0.33092207475E+02  0.47000000000E+01 0.  1.
          5    1    4    4  503    0 -0.16113014276E+01  0.33387179952E+02 -0.42578005199E+01  0.34022330060E+02  0.47000000000E+01 0. -1.
         -5    1    4    4    0  503 -0.41974347342E+02 -0.48323478581E+02 -0.46438413831E+02  0.79218815291E+02  0.47000000000E+01 0.  1.
<mgrwt>
<rscale>  0 0.10139885E+03</rscale>
<asrwt>0</asrwt>
<pdfrwt beam="1">  1        1 0.39691143E-01 0.10144540E+03</pdfrwt>
<pdfrwt beam="2">  1       -1 0.70597896E-02 0.10144540E+03</pdfrwt>
<totfact> 0.10198451E+04</totfact>
</mgrwt>
</event>
<event>
 8    1  0.7366917E-004  0.1234342E+03  0.7546771E-02  0.1238552E+00
          1   -1    0    0  501    0  0.00000000000E+00  0.00000000000E+00  0.32405878583E+03  0.32405878583E+03  0.00000000000E+00 0. -1.
         -1   -1    0    0    0  501 -0.00000000000E+00 -0.00000000000E+00 -0.64878961047E+02  0.64878961047E+02  0.00000000000E+00 0.  1.
         23    2    1    2    0    0 -0.82286580665E+02 -0.41000163366E+01  0.23902866094E+02  0.12324758793E+03  0.88491408798E+02 0.  0.
         23    2    1    2    0    0  0.82286580665E+02  0.41000163366E+01  0.23527695868E+03  0.26569015894E+03  0.91913664820E+02 0.  0.
          5    1    3    3  502    0 -0.42295812118E+02  0.40574756239E+02  0.22885815143E+02  0.63095935696E+02  0.47000000000E+01 0. -1.
         -5    1    3    3    0  502 -0.39990768546E+02 -0.44674772575E+02  0.10170509506E+01  0.60151652232E+02  0.47000000000E+01 0.  1.
          5    1    4    4  503    0  0.70756532764E+01  0.38353828714E+02  0.95143860423E+02  0.10293456768E+03  0.47000000000E+01 0. -1.
         -5    1    4    4    0  503  0.75210927388E+02 -0.34253812377E+02  0.14013309826E+03  0.16275559127E+03  0.47000000000E+01 0.  1.
<mgrwt>
<rscale>  0 0.12279765E+03</rscale>
<asrwt>0</asrwt>
<pdfrwt beam="1">  1        1 0.49855197E-01 0.12343425E+03</pdfrwt>
<pdfrwt beam="2">  1       -1 0.99813788E-02 0.12343425E+03</pdfrwt>
<totfact> 0.46404652E+03</totfact>
</mgrwt>
</event>
<event>
 8    1  0.7366917E-004  0.9406629E+02  0.7546771E-02  0.1295050E+00
          2   -1    0    0  501    0  0.00000000000E+00  0.00000000000E+00  0.10373397781E+02  0.10373397781E+02  0.00000000000E+00 0. -1.
         -2   -1    0    0    0  501 -0.00000000000E+00 -0.00000000000E+00 -0.97193751825E+03  0.97193751825E+03  0.00000000000E+00 0.  1.
         23    2    1    2    0    0  0.17277800746E+02 -0.11276273638E+02 -0.28367076004E+03  0.29792222826E+03  0.88672866452E+02 0.  0.
         23    2    1    2    0    0 -0.17277800746E+02  0.11276273638E+02 -0.67789336043E+03  0.68438868777E+03  0.91775765254E+02 0.  0.
          5    1    3    3  502    0  0.30523381084E+02  0.24029195745E+02 -0.64193626260E+02  0.75179722621E+02  0.47000000000E+01 0. -1.
         -5    1    4    4    0  503  0.34987817947E+02  0.10785598429E+02 -0.18058358117E+03  0.18431765061E+03  0.47000000000E+01 0.  1.
          5    1    4    4  503    0 -0.52265618693E+02  0.49067520907E+00 -0.49730977926E+03  0.50007103716E+03  0.47000000000E+01 0. -1.
         -5    1    3    3    0  502 -0.13245580339E+02 -0.35305469383E+02 -0.21947713378E+03  0.22274250564E+03  0.47000000000E+01 0.  1.
<mgrwt>
<rscale>  0 0.93300802E+02</rscale>
<asrwt>0</asrwt>
<pdfrwt beam="1">  1        2 0.15959071E-02 0.94066295E+02</pdfrwt>
<pdfrwt beam="2">  1       -2 0.14952888E+00 0.94066295E+02</pdfrwt>
<totfact> 0.22186023E+03</totfact>
</mgrwt>
</event>
<event>
 8    1  0.7366917E-004  0.1074963E+03  0.7546771E-02  0.1265571E+00
          1   -1    0    0  501    0  0.00000000000E+00  0.00000000000E+00  0.78453755853E+03  0.78453755853E+03  0.00000000000E+00 0. -1.
         -1   -1    0    0    0  501 -0.00000000000E+00 -0.00000000000E+00 -0.34216608561E+02  0.34216608561E+02  0.00000000000E+00 0.  1.
         23    2    1    2    0    0  0.96680450117E+01 -0.56785712747E+02  0.66009190420E+02  0.12614538333E+03  0.90759882379E+02 0.  0.
         23    2    1    2    0    0 -0.96680450117E+01  0.56785712747E+02  0.68431175955E+03  0.69260878376E+03  0.90034742267E+02 0.  0.
          5    1    4    4  502    0  0.12312169580E+01  0.79684044053E+02  0.46734933089E+03  0.47411870861E+03  0.47000000000E+01 0. -1.
         -5    1    3    3    0  503  0.61219745770E+01 -0.81138211094E+02  0.43111225162E+02  0.92203880652E+02  0.47000000000E+01 0.  1.
          5    1    3    3  503    0  0.35460704347E+01  0.24352498347E+02  0.22897965258E+02  0.33941502680E+02  0.47000000000E+01 0. -1.
         -5    1    4    4    0  502 -0.10899261970E+02 -0.22898331305E+02  0.21696242866E+03  0.21849007515E+03  0.47000000000E+01 0.  1.
<mgrwt>
<rscale>  0 0.10734304E+03</rscale>
<asrwt>0</asrwt>
<pdfrwt beam="1">  1        1 0.12069807E+00 0.10749625E+03</pdfrwt>
<pdfrwt beam="2">  1       -1 0.52640942E-02 0.10749625E+03</pdfrwt>
<totfact> 0.37410578E+03</totfact>
</mgrwt>
</event>
<event>
 8    1  0.7366917E-004  0.2499722E+03  0.7546771E-02  0.1113778E+00
          1   -1    0    0  501    0  0.00000000000E+00  0.00000000000E+00  0.17222401601E+04  0.17222401601E+04  0.00000000000E+00 0. -1.
         -1   -1    0    0    0  501 -0.00000000000E+00 -0.00000000000E+00 -0.36966378438E+02  0.36966378438E+02  0.00000000000E+00 0.  1.
         23    2    1    2    0    0  0.11253545933E+03 -0.20279231928E+03  0.98959765776E+03  0.10199830338E+04  0.85281362069E+02 0.  0.
         23    2    1    2    0    0 -0.11253545933E+03  0.20279231928E+03  0.69567612393E+03  0.73922350472E+03  0.93258598346E+02 0.  0.
          5    1    3    3  502    0  0.90019717577E+02 -0.16154161656E+03  0.60929293399E+03  0.63675679254E+03  0.47000000000E+01 0. -1.
         -5    1    4    4    0  503 -0.11466694002E+03  0.13991966790E+03  0.43744655703E+03  0.47340004315E+03  0.47000000000E+01 0.  1.
          5    1    4    4  503    0  0.21314806879E+01  0.62872651377E+02  0.25822956690E+03  0.26582346157E+03  0.47000000000E+01 0. -1.
         -5    1    3    3    0  502  0.22515741752E+02 -0.41250702712E+02  0.38030472376E+03  0.38322624130E+03  0.47000000000E+01 0.  1.
<mgrwt>
<rscale>  0 0.24925283E+03</rscale>
<asrwt>0</asrwt>
<pdfrwt beam="1">  1        1 0.26495996E+00 0.24997224E+03</pdfrwt>
<pdfrwt beam="2">  1       -1 0.56871365E-02 0.24997224E+03</pdfrwt>
<totfact> 0.74267985E+02</totfact>
</mgrwt>
</event>
<event>
 8    1  0.7366917E-004  0.1431030E+03  0.7546771E-02  0.1209534E+00
          1   -1    0    0  501    0  0.00000000000E+00  0.00000000000E+00  0.48321490057E+03  0.48321490057E+03  0.00000000000E+00 0. -1.
         -1   -1    0    0    0  501 -0.00000000000E+00 -0.00000000000E+00 -0.44527027991E+02  0.44527027991E+02  0.00000000000E+00 0.  1.
         23    2    1    2    0    0 -0.71973558406E+02 -0.82442433477E+02  0.15690735568E+03  0.21170595763E+03  0.90678256929E+02 0.  0.
         23    2    1    2    0    0  0.71973558406E+02  0.82442433477E+02  0.28178051690E+03  0.31603597094E+03  0.92203727016E+02 0.  0.
          5    1    3    3  502    0 -0.22027236643E+02 -0.86455196213E+02  0.11846127162E+03  0.14837406438E+03  0.47000000000E+01 0. -1.
         -5    1    4    4    0  503  0.64537310607E+02  0.25588627079E+02  0.22375424418E+03  0.23432433523E+03  0.47000000000E+01 0. -1.
          5    1    4    4  503    0  0.74362477994E+01  0.56853806397E+02  0.58026272720E+02  0.81711635701E+02  0.47000000000E+01 0.  1.
         -5    1    3    3    0  502 -0.49946321763E+02  0.40127627363E+01  0.38446084060E+02  0.63331893245E+02  0.47000000000E+01 0.  1.
<mgrwt>
<rscale>  0 0.14285787E+03</rscale>
<asrwt>0</asrwt>
<pdfrwt beam="1">  1        1 0.74340750E-01 0.14310302E+03</pdfrwt>
<pdfrwt beam="2">  1       -1 0.68503123E-02 0.14310302E+03</pdfrwt>
<totfact> 0.49892196E+03</totfact>
</mgrwt>
</event>
<event>
 8    1  0.1206504E-003  0.1025643E+03  0.7546771E-02  0.1276775E+00
          1   -1    0    0  501    0  0.00000000000E+00  0.00000000000E+00  0.12064978287E+03  0.12064978287E+03  0.00000000000E+00 0. -1.
         -1   -1    0    0    0  501 -0.00000000000E+00 -0.00000000000E+00 -0.22649155441E+03  0.22649155441E+03  0.00000000000E+00 0.  1.
         23    2    1    2    0    0  0.80777529639E+00  0.45814065629E+02  0.84267320374E+02  0.13274188859E+03  0.91759722067E+02 0.  0.
         23    2    1    2    0    0 -0.80777529639E+00 -0.45814065629E+02 -0.19010909191E+03  0.21439944869E+03  0.87898098154E+02 0.  0.
          5    1    3    3  502    0  0.10144441503E+02  0.68614385636E+02  0.82080382611E+02  0.10756450539E+03  0.47000000000E+01 0. -1.
         -5    1    4    4    0  503  0.82949339671E+01 -0.71051771408E+02 -0.14365145628E+03  0.16054591568E+03  0.47000000000E+01 0.  1.
          5    1    4    4  503    0 -0.91027092635E+01  0.25237705779E+02 -0.46457635627E+02  0.53853533004E+02  0.47000000000E+01 0. -1.
         -5    1    3    3    0  502 -0.93366662069E+01 -0.22800320007E+02  0.21869377633E+01  0.25177383205E+02  0.47000000000E+01 0.  1.
<mgrwt>
<rscale>  0 0.10169328E+03</rscale>
<asrwt>0</asrwt>
<pdfrwt beam="1">  1        1 0.18561505E-01 0.10256426E+03</pdfrwt>
<pdfrwt beam="2">  1       -1 0.34844854E-01 0.10256426E+03</pdfrwt>
<totfact> 0.21311024E+03</totfact>
</mgrwt>
</event>
<event>
 8    1  0.7366917E-004  0.1568525E+03  0.7546771E-02  0.1192567E+00
          1   -1    0    0  501    0  0.00000000000E+00  0.00000000000E+00  0.22320675239E+03  0.22320675239E+03  0.00000000000E+00 0. -1.
         -1   -1    0    0    0  501 -0.00000000000E+00 -0.00000000000E+00 -0.14661425208E+03  0.14661425208E+03  0.00000000000E+00 0.  1.
         23    2    1    2    0    0 -0.11926647860E+03 -0.45288728706E+02  0.13132570999E+03  0.20457066444E+03  0.91253234365E+02 0.  0.
         23    2    1    2    0    0  0.11926647860E+03  0.45288728706E+02 -0.54733209678E+02  0.16525034003E+03  0.89645907730E+02 0.  0.
          5    1    4    4  502    0  0.13196498887E+02 -0.16160487540E+02  0.13090884376E+02  0.25075290510E+02  0.47000000000E+01 0. -1.
         -5    1    3    3    0  503  0.19581893642E+01 -0.34652809288E+02  0.31431359800E+02  0.47060302550E+02  0.47000000000E+01 0.  1.
          5    1    3    3  503    0 -0.12122466796E+03 -0.10635919418E+02  0.99894350185E+02  0.15751036189E+03  0.47000000000E+01 0. -1.
         -5    1    4    4    0  502  0.10606997971E+03  0.61449216246E+02 -0.67824094054E+02  0.14017504952E+03  0.47000000000E+01 0.  1.
<mgrwt>
<rscale>  0 0.15661960E+03</rscale>
<asrwt>0</asrwt>
<pdfrwt beam="1">  1        1 0.34339500E-01 0.15685253E+03</pdfrwt>
<pdfrwt beam="2">  1       -1 0.22556039E-01 0.15685253E+03</pdfrwt>
<totfact> 0.20684238E+03</totfact>
</mgrwt>
</event>
<event>
 8    1  0.7366917E-004  0.1190738E+03  0.7546771E-02  0.1245503E+00
         -1   -1    0    0    0  501 -0.00000000000E+00  0.00000000000E+00  0.32658528498E+02  0.32658528498E+02  0.00000000000E+00 0.  1.
          1   -1    0    0  501    0  0.00000000000E+00 -0.00000000000E+00 -0.84473901530E+03  0.84473901530E+03  0.00000000000E+00 0. -1.
         23    2    1    2    0    0 -0.12168920002E+01  0.76963328319E+02 -0.71646878292E+03  0.72629614171E+03  0.90850062429E+02 0.  0.
         23    2    1    2    0    0  0.12168920002E+01 -0.76963328319E+02 -0.95611703888E+02  0.15110140209E+03  0.88120378233E+02 0.  0.
          5    1    4    4  502    0 -0.24561732692E+02  0.52994844344E+01 -0.51945782361E+01  0.26085185281E+02  0.47000000000E+01 0. -1.
         -5    1    3    3    0  503  0.34673544498E+02  0.68791193194E+02 -0.37795366030E+03  0.38575321422E+03  0.47000000000E+01 0.  1.
          5    1    3    3  503    0 -0.35890436498E+02  0.81721351253E+01 -0.33851512262E+03  0.34054292750E+03  0.47000000000E+01 0. -1.
         -5    1    4    4    0  502  0.25778624692E+02 -0.82262812753E+02 -0.90417125652E+02  0.12501621680E+03  0.47000000000E+01 0.  1.
<mgrwt>
<rscale>  0 0.11855305E+03</rscale>
<asrwt>0</asrwt>
<pdfrwt beam="1">  1        1 0.12995984E+00 0.11907379E+03</pdfrwt>
<pdfrwt beam="2">  1       -1 0.50243893E-02 0.11907379E+03</pdfrwt>
<totfact> 0.35988215E+03</totfact>
</mgrwt>
</event>
<event>
 8    1  0.7366917E-004  0.9153685E+02  0.7546771E-02  0.1299400E+00
         -1   -1    0    0    0  501 -0.00000000000E+00  0.00000000000E+00  0.32339321956E+02  0.32339321956E+02  0.00000000000E+00 0.  1.
          1   -1    0    0  501    0  0.00000000000E+00 -0.00000000000E+00 -0.25880050361E+03  0.25880050361E+03  0.00000000000E+00 0. -1.
         23    2    1    2    0    0  0.23595094896E+01  0.14845346871E+02 -0.12150350363E+03  0.15212526629E+03  0.90294206010E+02 0.  0.
         23    2    1    2    0    0 -0.23595094896E+01 -0.14845346871E+02 -0.10495767802E+03  0.13901455928E+03  0.89905405327E+02 0.  0.
          5    1    3    3  502    0  0.25827554777E+02 -0.19149719861E+02 -0.10034624718E+03  0.10547622329E+03  0.47000000000E+01 0. -1.
         -5    1    3    3    0  502 -0.23468045288E+02  0.33995066732E+02 -0.21157256451E+02  0.46649042994E+02  0.47000000000E+01 0.  1.
          5    1    4    4  503    0  0.28157181955E+02  0.24246307722E+02 -0.25776275819E+02  0.45466655132E+02  0.47000000000E+01 0. -1.
         -5    1    4    4    0  503 -0.30516691445E+02 -0.39091654593E+02 -0.79181402199E+02  0.93547904144E+02  0.47000000000E+01 0.  1.
<mgrwt>
<rscale>  0 0.91440826E+02</rscale>
<asrwt>0</asrwt>
<pdfrwt beam="1">  1        1 0.39815461E-01 0.91536852E+02</pdfrwt>
<pdfrwt beam="2">  1       -1 0.49752804E-02 0.91536852E+02</pdfrwt>
<totfact> 0.16862998E+04</totfact>
</mgrwt>
</event>
<event>
 8    1  0.7366917E-004  0.1390550E+03  0.7546771E-02  0.1215656E+00
         -1   -1    0    0    0  501 -0.00000000000E+00  0.00000000000E+00  0.72800923840E+02  0.72800923840E+02  0.00000000000E+00 0.  1.
          1   -1    0    0  501    0  0.00000000000E+00 -0.00000000000E+00 -0.47449268885E+03  0.47449268885E+03  0.00000000000E+00 0. -1.
         23    2    1    2    0    0 -0.20233416433E+01 -0.10041686795E+03 -0.15559230171E+02  0.13688572581E+03  0.91694988998E+02 0.  0.
         23    2    1    2    0    0  0.20233416433E+01  0.10041686795E+03 -0.38613253484E+03  0.41040788688E+03  0.96169942671E+02 0.  0.
          5    1    3    3  502    0 -0.84175773575E+01 -0.74878109849E+02 -0.52009547512E+02  0.91676987164E+02  0.47000000000E+01 0. -1.
         -5    1    4    4    0  503  0.37797151540E+02  0.22876773715E+02 -0.20950120470E+03  0.21416072518E+03  0.47000000000E+01 0.  1.
          5    1    4    4  503    0 -0.35773809897E+02  0.77540094230E+02 -0.17663133014E+03  0.19624716170E+03  0.47000000000E+01 0. -1.
         -5    1    3    3    0  502  0.63942357142E+01 -0.25538758097E+02  0.36450317342E+02  0.45208738644E+02  0.47000000000E+01 0.  1.
<mgrwt>
<rscale>  0 0.13828453E+03</rscale>
<asrwt>0</asrwt>
<pdfrwt beam="1">  1        1 0.72998877E-01 0.13905502E+03</pdfrwt>
<pdfrwt beam="2">  1       -1 0.11200142E-01 0.13905502E+03</pdfrwt>
<totfact> 0.24197256E+03</totfact>
</mgrwt>
</event>
<event>
 8    1  0.7366917E-004  0.1271315E+03  0.7546771E-02  0.1232200E+00
          2   -1    0    0  501    0  0.00000000000E+00  0.00000000000E+00  0.36486017918E+03  0.36486017918E+03  0.00000000000E+00 0. -1.
         -2   -1    0    0    0  501 -0.00000000000E+00 -0.00000000000E+00 -0.59817765483E+02  0.59817765483E+02  0.00000000000E+00 0.  1.
         23    2    1    2    0    0 -0.12749447968E+02  0.86312741493E+02  0.42539375506E+02  0.13300989426E+03  0.90937317618E+02 0.  0.
         23    2    1    2    0    0  0.12749447968E+02 -0.86312741493E+02  0.26250303819E+03  0.29166805040E+03  0.92466041322E+02 0.  0.
          5    1    4    4  502    0 -0.29037856947E+02 -0.67308891014E+02  0.20606676349E+03  0.21876765063E+03  0.47000000000E+01 0. -1.
         -5    1    3    3    0  503  0.14777311807E+01  0.51780288576E+02 -0.23436729062E+02  0.57050435963E+02  0.47000000000E+01 0.  1.
          5    1    3    3  503    0 -0.14227179149E+02  0.34532452917E+02  0.65976104568E+02  0.75959458298E+02  0.47000000000E+01 0. -1.
         -5    1    4    4    0  502  0.41787304915E+02 -0.19003850479E+02  0.56436274699E+02  0.72900399772E+02  0.47000000000E+01 0.  1.
<mgrwt>
<rscale>  0 0.12685367E+03</rscale>
<asrwt>0</asrwt>
<pdfrwt beam="1">  1        2 0.56132334E-01 0.12713145E+03</pdfrwt>
<pdfrwt beam="2">  1       -2 0.92027334E-02 0.12713145E+03</pdfrwt>
<totfact> 0.63710659E+03</totfact>
</mgrwt>
</event>
<event>
 8    1  0.7366917E-004  0.1317477E+03  0.7546771E-02  0.1225229E+00
          2   -1    0    0  501    0  0.00000000000E+00  0.00000000000E+00  0.13958827813E+03  0.13958827813E+03  0.00000000000E+00 0. -1.
         -2   -1    0    0    0  501 -0.00000000000E+00 -0.00000000000E+00 -0.21288989944E+03  0.21288989944E+03  0.00000000000E+00 0.  1.
         23    2    1    2    0    0  0.73999889960E+02 -0.58743051418E+02 -0.15079895199E+03  0.19962764651E+03  0.90466256279E+02 0.  0.
         23    2    1    2    0    0 -0.73999889960E+02  0.58743051418E+02  0.77497330672E+02  0.15285053106E+03  0.91818945650E+02 0.  0.
          5    1    4    4  502    0 -0.32829180197E+02  0.73447627240E+02  0.25009673037E+02  0.84379397752E+02  0.47000000000E+01 0. -1.
         -5    1    4    4    0  502 -0.41170709763E+02 -0.14704575822E+02  0.52487657636E+02  0.68471133308E+02  0.47000000000E+01 0.  1.
          5    1    3    3  503    0 -0.25206678535E+01 -0.47864307818E+02 -0.32003845554E+02  0.57824578335E+02  0.47000000000E+01 0. -1.
         -5    1    3    3    0  503  0.76520557814E+02 -0.10878743600E+02 -0.11879510643E+03  0.14180306817E+03  0.47000000000E+01 0.  1.
<mgrwt>
<rscale>  0 0.13151226E+03</rscale>
<asrwt>0</asrwt>
<pdfrwt beam="1">  1        2 0.21475120E-01 0.13174767E+03</pdfrwt>
<pdfrwt beam="2">  1       -2 0.32752292E-01 0.13174767E+03</pdfrwt>
<totfact> 0.21552932E+03</totfact>
</mgrwt>
</event>
<event>
 8    1  0.7366917E-004  0.1112472E+03  0.7546771E-02  0.1261207E+00
         -1   -1    0    0    0  501 -0.00000000000E+00  0.00000000000E+00  0.45259585238E+02  0.45259585238E+02  0.00000000000E+00 0.  1.
          1   -1    0    0  501    0  0.00000000000E+00 -0.00000000000E+00 -0.26591526435E+03  0.26591526435E+03  0.00000000000E+00 0. -1.
         23    2    1    2    0    0  0.77714404101E+01  0.58127018081E+02 -0.87188109082E+02  0.14134252026E+03  0.94534629371E+02 0.  0.
         23    2    1    2    0    0 -0.77714404101E+01 -0.58127018081E+02 -0.13346757003E+03  0.16983232933E+03  0.87122226320E+02 0.  0.
          5    1    3    3  502    0  0.57813413540E+01 -0.24651037141E+02 -0.34630327383E+02  0.43156078537E+02  0.47000000000E+01 0. -1.
         -5    1    3    3    0  502  0.19900990561E+01  0.82778055222E+02 -0.52557781698E+02  0.98186441720E+02  0.47000000000E+01 0.  1.
          5    1    4    4  503    0  0.15149500666E+02 -0.15016264957E+02 -0.11557346028E+03  0.11761934494E+03  0.47000000000E+01 0. -1.
         -5    1    4    4    0  503 -0.22920941076E+02 -0.43110753124E+02 -0.17894109747E+02  0.52212984385E+02  0.47000000000E+01 0.  1.
<mgrwt>
<rscale>  0 0.10965690E+03</rscale>
<asrwt>0</asrwt>
<pdfrwt beam="1">  1        1 0.40910041E-01 0.11124721E+03</pdfrwt>
<pdfrwt beam="2">  1       -1 0.69630131E-02 0.11124721E+03</pdfrwt>
<totfact> 0.10110075E+04</totfact>
</mgrwt>
</event>
<event>
 8    1  0.7366917E-004  0.1321948E+03  0.7546771E-02  0.1224370E+00
         -3   -1    0    0    0  501 -0.00000000000E+00  0.00000000000E+00  0.13658845862E+03  0.13658845862E+03  0.00000000000E+00 0.  1.
          3   -1    0    0  501    0  0.00000000000E+00 -0.00000000000E+00 -0.18067002085E+03  0.18067002085E+03  0.00000000000E+00 0. -1.
         23    2    1    2    0    0 -0.66527970489E+02  0.69497099609E+02  0.63924192142E+02  0.14683924288E+03  0.90662247910E+02 0.  0.
         23    2    1    2    0    0  0.66527970489E+02 -0.69497099609E+02 -0.10800575437E+03  0.17041923660E+03  0.90120228108E+02 0.  0.
          5    1    4    4  502    0 -0.37038971739E+01 -0.56593435660E+02 -0.29175641119E+02  0.63951886984E+02  0.47000000000E+01 0. -1.
         -5    1    4    4    0  502  0.70231867663E+02 -0.12903663949E+02 -0.78830113250E+02  0.10646734961E+03  0.47000000000E+01 0.  1.
          5    1    3    3  503    0 -0.81718787334E+01 -0.21353993196E+02  0.17673880301E+02  0.29278467725E+02  0.47000000000E+01 0. -1.
         -5    1    3    3    0  503 -0.58356091756E+02  0.90851092805E+02  0.46250311841E+02  0.11756077515E+03  0.47000000000E+01 0.  1.
<mgrwt>
<rscale>  0 0.13210190E+03</rscale>
<asrwt>0</asrwt>
<pdfrwt beam="1">  1        3 0.27795388E-01 0.13219478E+03</pdfrwt>
<pdfrwt beam="2">  1       -3 0.21013609E-01 0.13219478E+03</pdfrwt>
<totfact> 0.58661751E+02</totfact>
</mgrwt>
</event>
<event>
 8    1  0.7366917E-004  0.1089243E+03  0.7546771E-02  0.1271836E+00
         -1   -1    0    0    0  501 -0.00000000000E+00  0.00000000000E+00  0.23251915878E+02  0.23251915878E+02  0.00000000000E+00 0.  1.
          1   -1    0    0  501    0  0.00000000000E+00 -0.00000000000E+00 -0.55062824943E+03  0.55062824943E+03  0.00000000000E+00 0. -1.
         23    2    1    2    0    0  0.64276113541E+01  0.11275493855E+02 -0.41619471584E+03  0.43021219798E+03  0.10814824479E+03 0.  0.
         23    2    1    2    0    0 -0.64276113541E+01 -0.11275493855E+02 -0.11118161771E+03  0.14366796733E+03  0.90059323608E+02 0.  0.
          5    1    4    4  502    0 -0.47370624923E+02 -0.21981914859E+01 -0.70177056431E+02  0.84827574530E+02  0.47000000000E+01 0. -1.
         -5    1    4    4    0  502  0.40943013568E+02 -0.90773023690E+01 -0.41004561283E+02  0.58840392796E+02  0.47000000000E+01 0.  1.
          5    1    3    3  503    0 -0.28462505041E+02 -0.19526166992E+02 -0.33260255442E+03  0.33442179145E+03  0.47000000000E+01 0. -1.
         -5    1    3    3    0  503  0.34890116395E+02  0.30801660847E+02 -0.83592161418E+02  0.95790406532E+02  0.47000000000E+01 0.  1.
<mgrwt>
<rscale>  0 0.10413376E+03</rscale>
<asrwt>0</asrwt>
<pdfrwt beam="1">  1        1 0.84712032E-01 0.10892426E+03</pdfrwt>
<pdfrwt beam="2">  1       -1 0.35772181E-02 0.10892426E+03</pdfrwt>
<totfact> 0.10783920E+04</totfact>
</mgrwt>
</event>
<event>
 8    1  0.7366917E-004  0.1303292E+03  0.7546771E-02  0.1227585E+00
         -1   -1    0    0    0  501 -0.00000000000E+00  0.00000000000E+00  0.10396393311E+03  0.10396393311E+03  0.00000000000E+00 0.  1.
          1   -1    0    0  501    0  0.00000000000E+00 -0.00000000000E+00 -0.30454382168E+03  0.30454382168E+03  0.00000000000E+00 0. -1.
         23    2    1    2    0    0 -0.20796540052E+02  0.89121963782E+02 -0.24002621405E+03  0.27233984069E+03  0.90449902626E+02 0.  0.
         23    2    1    2    0    0  0.20796540052E+02 -0.89121963782E+02  0.39446325487E+02  0.13616791411E+03  0.92792606022E+02 0.  0.
          5    1    4    4  502    0  0.46424343681E+02 -0.50447008907E+02  0.53912424259E+02  0.87342772359E+02  0.47000000000E+01 0. -1.
         -5    1    4    4    0  502 -0.25627803629E+02 -0.38674954876E+02 -0.14466098772E+02  0.48825141753E+02  0.47000000000E+01 0.  1.
          5    1    3    3  503    0  0.27188958165E+02  0.57180921750E+02 -0.17029468028E+03  0.18174505602E+03  0.47000000000E+01 0. -1.
         -5    1    3    3    0  503 -0.47985498216E+02  0.31941042032E+02 -0.69731533780E+02  0.90594784665E+02  0.47000000000E+01 0.  1.
<mgrwt>
<rscale>  0 0.12991280E+03</rscale>
<asrwt>0</asrwt>
<pdfrwt beam="1">  1        1 0.46852895E-01 0.13032915E+03</pdfrwt>
<pdfrwt beam="2">  1       -1 0.15994452E-01 0.13032915E+03</pdfrwt>
<totfact> 0.24236742E+03</totfact>
</mgrwt>
</event>
<event>
 8    1  0.7366917E-004  0.1017229E+03  0.7546771E-02  0.1280459E+00
         -1   -1    0    0    0  501 -0.00000000000E+00  0.00000000000E+00  0.86328843157E+02  0.86328843157E+02  0.00000000000E+00 0.  1.
          1   -1    0    0  501    0  0.00000000000E+00 -0.00000000000E+00 -0.11333132018E+03  0.11333132018E+03  0.00000000000E+00 0. -1.
         23    2    1    2    0    0  0.44555329763E+02  0.67272824996E+01 -0.25794726788E+02  0.10494249020E+03  0.91198270699E+02 0.  0.
         23    2    1    2    0    0 -0.44555329763E+02 -0.67272824996E+01 -0.12077502313E+01  0.94717673137E+02  0.83303932703E+02 0.  0.
          5    1    3    3  502    0  0.12278820415E+02  0.47291276176E+02 -0.18150571041E+02  0.52333234777E+02  0.47000000000E+01 0. -1.
         -5    1    3    3    0  502  0.32276509348E+02 -0.40563993677E+02 -0.76441557473E+01  0.52609255419E+02  0.47000000000E+01 0.  1.
          5    1    4    4  503    0 -0.68961068365E+02 -0.69488306365E+00 -0.14823498590E+01  0.69140430818E+02  0.47000000000E+01 0. -1.
         -5    1    4    4    0  503  0.24405738603E+02 -0.60323994359E+01  0.27459962772E+00  0.25577242319E+02  0.47000000000E+01 0.  1.
<mgrwt>
<rscale>  0 0.99922464E+02</rscale>
<asrwt>0</asrwt>
<pdfrwt beam="1">  1        1 0.17435588E-01 0.10172295E+03</pdfrwt>
<pdfrwt beam="2">  1       -1 0.13281360E-01 0.10172295E+03</pdfrwt>
<totfact> 0.10900826E+04</totfact>
</mgrwt>
</event>
<event>
 8    1  0.7366917E-004  0.9324775E+02  0.7546771E-02  0.1296117E+00
          1   -1    0    0  501    0  0.00000000000E+00  0.00000000000E+00  0.22469845440E+03  0.22469845440E+03  0.00000000000E+00 0. -1.
         -1   -1    0    0    0  501 -0.00000000000E+00 -0.00000000000E+00 -0.62901827846E+02  0.62901827846E+02  0.00000000000E+00 0.  1.
         23    2    1    2    0    0 -0.39548222645E+01 -0.15248041719E+02 -0.90999078233E+01  0.93690720416E+02  0.91907558852E+02 0.  0.
         23    2    1    2    0    0  0.39548222645E+01  0.15248041719E+02  0.17089653438E+03  0.19390956183E+03  0.90261560544E+02 0.  0.
          5    1    4    4  502    0 -0.41617050357E+02 -0.15076661087E+01  0.65323550327E+02  0.77611263132E+02  0.47000000000E+01 0. -1.
         -5    1    3    3    0  503 -0.21315081013E+02 -0.47085068763E+02  0.93501764067E+01  0.52733785924E+02  0.47000000000E+01 0.  1.
          5    1    3    3  503    0  0.17360258749E+02  0.31837027044E+02 -0.18450084230E+02  0.40956934491E+02  0.47000000000E+01 0. -1.
         -5    1    4    4    0  502  0.45571872622E+02  0.16755707828E+02  0.10557298405E+03  0.11629829870E+03  0.47000000000E+01 0.  1.
<mgrwt>
<rscale>  0 0.92839598E+02</rscale>
<asrwt>0</asrwt>
<pdfrwt beam="1">  1        1 0.34568993E-01 0.93247749E+02</pdfrwt>
<pdfrwt beam="2">  1       -1 0.96772044E-02 0.93247749E+02</pdfrwt>
<totfact> 0.74791054E+03</totfact>
</mgrwt>
</event>
<event>
 8    1  0.7366917E-004  0.1017176E+03  0.7546771E-02  0.1277004E+00
          3   -1    0    0  501    0  0.00000000000E+00  0.00000000000E+00  0.23366885822E+03  0.23366885822E+03  0.00000000000E+00 0. -1.
         -3   -1    0    0    0  501 -0.00000000000E+00 -0.00000000000E+00 -0.23155866402E+03  0.23155866402E+03  0.00000000000E+00 0.  1.
         23    2    1    2    0    0 -0.17928607386E+02  0.38874489824E+02 -0.20827169454E+03  0.23154607839E+03  0.91672388153E+02 0.  0.
         23    2    1    2    0    0  0.17928607386E+02 -0.38874489824E+02  0.21038188874E+03  0.23368144384E+03  0.92270348249E+02 0.  0.
          5    1    3    3  502    0  0.24864105632E+02  0.35096593332E+02 -0.44097087069E+02  0.61778942208E+02  0.47000000000E+01 0. -1.
         -5    1    3    3    0  502 -0.42792713018E+02  0.37778964919E+01 -0.16417460747E+03  0.16976713618E+03  0.47000000000E+01 0.  1.
          5    1    4    4  503    0  0.37810550751E+02  0.62944978778E+01  0.15324467415E+03  0.15803568777E+03  0.47000000000E+01 0. -1.
         -5    1    4    4    0  503 -0.19881943364E+02 -0.45168987702E+02  0.57137214585E+02  0.75645756077E+02  0.47000000000E+01 0.  1.
<mgrwt>
<rscale>  0 0.10158184E+03</rscale>
<asrwt>0</asrwt>
<pdfrwt beam="1">  1        3 0.35949055E-01 0.10171764E+03</pdfrwt>
<pdfrwt beam="2">  1       -3 0.35624410E-01 0.10171764E+03</pdfrwt>
<totfact> 0.13410665E+02</totfact>
</mgrwt>
</event>
<event>
 8    1  0.7366917E-004  0.9551208E+02  0.7546771E-02  0.1291557E+00
          1   -1    0    0  501    0  0.00000000000E+00  0.00000000000E+00  0.82028519073E+03  0.82028519073E+03  0.00000000000E+00 0. -1.
         -1   -1    0    0    0  501 -0.00000000000E+00 -0.00000000000E+00 -0.10816750175E+02  0.10816750175E+02  0.00000000000E+00 0.  1.
         23    2    1    2    0    0  0.64651772306E+01 -0.28300029368E+02  0.39989753622E+03  0.41114546970E+03  0.90993777833E+02 0.  0.
         23    2    1    2    0    0 -0.64651772306E+01  0.28300029368E+02  0.40957090433E+03  0.41995647120E+03  0.88161339870E+02 0.  0.
          5    1    4    4  502    0 -0.30302802364E+02  0.34978967273E+02  0.37086671098E+03  0.37377265188E+03  0.47000000000E+01 0. -1.
         -5    1    3    3    0  503  0.45326976923E+02  0.20564888148E+01  0.17397218753E+03  0.17985320686E+03  0.47000000000E+01 0.  1.
          5    1    3    3  503    0 -0.38861799692E+02 -0.30356518183E+02  0.22592534869E+03  0.23129226284E+03  0.47000000000E+01 0. -1.
         -5    1    4    4    0  502  0.23837625133E+02 -0.66789379051E+01  0.38704193350E+02  0.46183819314E+02  0.47000000000E+01 0.  1.
<mgrwt>
<rscale>  0 0.94831223E+02</rscale>
<asrwt>0</asrwt>
<pdfrwt beam="1">  1        1 0.12619767E+00 0.95512082E+02</pdfrwt>
<pdfrwt beam="2">  1       -1 0.16641161E-02 0.95512082E+02</pdfrwt>
<totfact> 0.18356547E+04</totfact>
</mgrwt>
</event>
<event>
 8    1  0.7366917E-004  0.9416045E+02  0.7546771E-02  0.1294606E+00
          1   -1    0    0  501    0  0.00000000000E+00  0.00000000000E+00  0.26149077403E+03  0.26149077403E+03  0.00000000000E+00 0. -1.
         -1   -1    0    0    0  501 -0.00000000000E+00 -0.00000000000E+00 -0.14144141321E+03  0.14144141321E+03  0.00000000000E+00 0.  1.
         23    2    1    2    0    0  0.20201727041E+02  0.11029066644E+02 -0.11660594204E+03  0.14823251610E+03  0.88578682676E+02 0.  0.
         23    2    1    2    0    0 -0.20201727041E+02 -0.11029066644E+02  0.23665530285E+03  0.25469967114E+03  0.91304107365E+02 0.  0.
          5    1    3    3  502    0 -0.24111855057E+02  0.33163770762E+02 -0.45282342917E+02  0.61268244838E+02  0.47000000000E+01 0. -1.
         -5    1    4    4    0  503 -0.50132386872E+01  0.24771637506E+02  0.15322517014E+02  0.29927180196E+02  0.47000000000E+01 0.  1.
          5    1    4    4  503    0 -0.15188488354E+02 -0.35800704149E+02  0.22133278584E+03  0.22477249094E+03  0.47000000000E+01 0. -1.
         -5    1    3    3    0  502  0.44313582098E+02 -0.22134704119E+02 -0.71323599122E+02  0.86964271264E+02  0.47000000000E+01 0.  1.
<mgrwt>
<rscale>  0 0.93493311E+02</rscale>
<asrwt>0</asrwt>
<pdfrwt beam="1">  1        1 0.40229350E-01 0.94160449E+02</pdfrwt>
<pdfrwt beam="2">  1       -1 0.21760217E-01 0.94160449E+02</pdfrwt>
<totfact> 0.17701332E+03</totfact>
</mgrwt>
</event>
<event>
 8    1  0.7366917E-004  0.9842832E+02  0.7546771E-02  0.1284814E+00
          1   -1    0    0  501    0  0.00000000000E+00  0.00000000000E+00  0.85801978077E+02  0.85801978077E+02  0.00000000000E+00 0. -1.
         -1   -1    0    0    0  501 -0.00000000000E+00 -0.00000000000E+00 -0.16073732070E+03  0.16073732070E+03  0.00000000000E+00 0.  1.
         23    2    1    2    0    0  0.35485393000E+01 -0.35128254174E+02 -0.10670751908E+03  0.14517103627E+03  0.91877901432E+02 0.  0.
         23    2    1    2    0    0 -0.35485393000E+01  0.35128254174E+02  0.31772176461E+02  0.10136826250E+03  0.89551477224E+02 0.  0.
          5    1    4    4  502    0  0.32646668817E+02  0.38727969832E+02  0.38858803465E+02  0.64013726957E+02  0.47000000000E+01 0. -1.
         -5    1    3    3    0  503 -0.12651305988E+02 -0.61598034291E+02 -0.50477901811E+02  0.80774265351E+02  0.47000000000E+01 0.  1.
          5    1    3    3  503    0  0.16199845288E+02  0.26469780117E+02 -0.56229617268E+02  0.64396770920E+02  0.47000000000E+01 0. -1.
         -5    1    4    4    0  502 -0.36195208117E+02 -0.35997156580E+01 -0.70866270043E+01  0.37354535544E+02  0.47000000000E+01 0.  1.
<mgrwt>
<rscale>  0 0.97881794E+02</rscale>
<asrwt>0</asrwt>
<pdfrwt beam="1">  1        1 0.13200304E-01 0.98428325E+02</pdfrwt>
<pdfrwt beam="2">  1       -1 0.24728818E-01 0.98428325E+02</pdfrwt>
<totfact> 0.58142717E+03</totfact>
</mgrwt>
</event>
<event>
 8    1  0.7366917E-004  0.1123645E+03  0.7546771E-02  0.1257041E+00
         -2   -1    0    0    0  501 -0.00000000000E+00  0.00000000000E+00  0.37754007399E+02  0.37754007399E+02  0.00000000000E+00 0.  1.
          2   -1    0    0  501    0  0.00000000000E+00 -0.00000000000E+00 -0.34539332884E+03  0.34539332884E+03  0.00000000000E+00 0. -1.
         23    2    1    2    0    0 -0.50759418234E+02  0.38977614324E+02 -0.19406044450E+03  0.22337896254E+03  0.90238194961E+02 0.  0.
         23    2    1    2    0    0  0.50759418234E+02 -0.38977614324E+02 -0.11357887694E+03  0.15976837370E+03  0.92357993636E+02 0.  0.
          5    1    4    4  502    0 -0.10672314109E+02  0.21849935655E+02 -0.16871663283E+02  0.29967665883E+02  0.47000000000E+01 0. -1.
         -5    1    3    3    0  503 -0.17615038827E+02 -0.29341461311E+02 -0.61555039927E+02  0.70585578450E+02  0.47000000000E+01 0.  1.
          5    1    3    3  503    0 -0.33144379407E+02  0.68319075634E+02 -0.13250540457E+03  0.15279338409E+03  0.47000000000E+01 0. -1.
         -5    1    4    4    0  502  0.61431732343E+02 -0.60827549979E+02 -0.96707213660E+02  0.12980070781E+03  0.47000000000E+01 0.  1.
<mgrwt>
<rscale>  0 0.11192798E+03</rscale>
<asrwt>0</asrwt>
<pdfrwt beam="1">  1        2 0.53137437E-01 0.11236446E+03</pdfrwt>
<pdfrwt beam="2">  1       -2 0.58083087E-02 0.11236446E+03</pdfrwt>
<totfact> 0.13531536E+04</totfact>
</mgrwt>
</event>
<event>
 8    1  0.7366917E-004  0.1614342E+03  0.7546771E-02  0.1187252E+00
          2   -1    0    0  501    0  0.00000000000E+00  0.00000000000E+00  0.12954413124E+04  0.12954413124E+04  0.00000000000E+00 0. -1.
         -2   -1    0    0    0  501 -0.00000000000E+00 -0.00000000000E+00 -0.20160293072E+02  0.20160293072E+02  0.00000000000E+00 0.  1.
         23    2    1    2    0    0 -0.78976295371E+02 -0.10610393210E+03  0.58646691848E+03  0.60812306968E+03  0.91514598687E+02 0.  0.
         23    2    1    2    0    0  0.78976295371E+02  0.10610393210E+03  0.68881410087E+03  0.70747853581E+03  0.92551139567E+02 0.  0.
          5    1    3    3  502    0 -0.95560975405E+02 -0.78871326584E+02  0.51513614996E+03  0.52984896826E+03  0.47000000000E+01 0. -1.
         -5    1    3    3    0  502  0.16584680034E+02 -0.27232605518E+02  0.71330768519E+02  0.78274101417E+02  0.47000000000E+01 0.  1.
          5    1    4    4  503    0  0.55406143759E+02  0.94724361243E+01  0.16757997538E+03  0.17681828514E+03  0.47000000000E+01 0. -1.
         -5    1    4    4    0  503  0.23570151612E+02  0.96631495978E+02  0.52123412549E+03  0.53066025067E+03  0.47000000000E+01 0.  1.
<mgrwt>
<rscale>  0 0.16128603E+03</rscale>
<asrwt>0</asrwt>
<pdfrwt beam="1">  1        2 0.19929860E+00 0.16143424E+03</pdfrwt>
<pdfrwt beam="2">  1       -2 0.31015846E-02 0.16143424E+03</pdfrwt>
<totfact> 0.69917857E+03</totfact>
</mgrwt>
</event>
<event>
 8    1  0.7366917E-004  0.1240707E+03  0.7546771E-02  0.1236806E+00
         -1   -1    0    0    0  501 -0.00000000000E+00  0.00000000000E+00  0.37026588436E+02  0.37026588436E+02  0.00000000000E+00 0.  1.
          1   -1    0    0  501    0  0.00000000000E+00 -0.00000000000E+00 -0.84078513469E+03  0.84078513469E+03  0.00000000000E+00 0. -1.
         23    2    1    2    0    0  0.77173871737E+02  0.34607786515E+02 -0.88395002574E+02  0.15176864989E+03  0.89813925656E+02 0.  0.
         23    2    1    2    0    0 -0.77173871737E+02 -0.34607786515E+02 -0.71536354368E+03  0.72604307324E+03  0.90774661711E+02 0.  0.
          5    1    3    3  502    0  0.36831984159E+02  0.13906113740E+02 -0.97525232367E+02  0.10527694907E+03  0.47000000000E+01 0. -1.
         -5    1    3    3    0  502  0.40341887578E+02  0.20701672775E+02  0.91302297928E+01  0.46491700820E+02  0.47000000000E+01 0.  1.
          5    1    4    4  503    0 -0.11962996509E+02 -0.51911607626E+02 -0.39617106384E+03  0.39976434323E+03  0.47000000000E+01 0. -1.
         -5    1    4    4    0  503 -0.65210875227E+02  0.17303821112E+02 -0.31919247983E+03  0.32627873001E+03  0.47000000000E+01 0.  1.
<mgrwt>
<rscale>  0 0.12389506E+03</rscale>
<asrwt>0</asrwt>
<pdfrwt beam="1">  1        1 0.12935156E+00 0.12407072E+03</pdfrwt>
<pdfrwt beam="2">  1       -1 0.56963982E-02 0.12407072E+03</pdfrwt>
<totfact> 0.30150498E+03</totfact>
</mgrwt>
</event>
<event>
 8    1  0.7366917E-004  0.9377828E+02  0.7546771E-02  0.1297632E+00
         -2   -1    0    0    0  501 -0.00000000000E+00  0.00000000000E+00  0.30838645010E+02  0.30838645010E+02  0.00000000000E+00 0.  1.
          2   -1    0    0  501    0  0.00000000000E+00 -0.00000000000E+00 -0.28670766183E+03  0.28670766183E+03  0.00000000000E+00 0. -1.
         23    2    1    2    0    0 -0.32117055896E+00 -0.16698756390E+02 -0.90030787359E+02  0.12999964894E+03  0.92279003230E+02 0.  0.
         23    2    1    2    0    0  0.32117055896E+00  0.16698756390E+02 -0.16583822946E+03  0.18754665790E+03  0.85979526184E+02 0.  0.
          5    1    3    3  502    0 -0.44408291581E+02 -0.99476719001E+01 -0.62215099628E+02  0.77226039385E+02  0.47000000000E+01 0. -1.
         -5    1    4    4    0  503 -0.14489629210E+02 -0.25219089850E+02 -0.21580510360E+02  0.36520682837E+02  0.47000000000E+01 0.  1.
          5    1    4    4  503    0  0.14810799769E+02  0.41917846240E+02 -0.14425771910E+03  0.15102597506E+03  0.47000000000E+01 0. -1.
         -5    1    3    3    0  502  0.44087121022E+02 -0.67510844902E+01 -0.27815687731E+02  0.52773609558E+02  0.47000000000E+01 0.  1.
<mgrwt>
<rscale>  0 0.92190516E+02</rscale>
<asrwt>0</asrwt>
<pdfrwt beam="1">  1        2 0.44108870E-01 0.93778281E+02</pdfrwt>
<pdfrwt beam="2">  1       -2 0.47444070E-02 0.93778281E+02</pdfrwt>
<totfact> 0.21876325E+04</totfact>
</mgrwt>
</event>
<event>
 8    1  0.7366917E-004  0.1224007E+03  0.7546771E-02  0.1240365E+00
          1   -1    0    0  501    0  0.00000000000E+00  0.00000000000E+00  0.14369563009E+03  0.14369563009E+03  0.00000000000E+00 0. -1.
         -1   -1    0    0    0  501 -0.00000000000E+00 -0.00000000000E+00 -0.13526374279E+03  0.13526374279E+03  0.00000000000E+00 0.  1.
         23    2    1    2    0    0 -0.46423204779E+01 -0.78958995749E+02  0.73612604677E+02  0.14283119564E+03  0.93412315737E+02 0.  0.
         23    2    1    2    0    0  0.46423204779E+01  0.78958995749E+02 -0.65180717376E+02  0.13612817724E+03  0.89589511501E+02 0.  0.
          5    1    3    3  502    0  0.25890541601E+02  0.99319557632E+01  0.20152936218E+02  0.34600501845E+02  0.47000000000E+01 0. -1.
         -5    1    3    3    0  502 -0.30532862079E+02 -0.88890951512E+02  0.53459668459E+02  0.10823069379E+03  0.47000000000E+01 0.  1.
          5    1    4    4  503    0 -0.29710808351E+02  0.58040998145E+02 -0.69488206500E+02  0.95405400482E+02  0.47000000000E+01 0. -1.
         -5    1    4    4    0  503  0.34353128829E+02  0.20917997604E+02  0.43074891236E+01  0.40722776755E+02  0.47000000000E+01 0.  1.
<mgrwt>
<rscale>  0 0.12167124E+03</rscale>
<asrwt>0</asrwt>
<pdfrwt beam="1">  1        1 0.22107020E-01 0.12240071E+03</pdfrwt>
<pdfrwt beam="2">  1       -1 0.20809807E-01 0.12240071E+03</pdfrwt>
<totfact> 0.40401502E+03</totfact>
</mgrwt>
</event>
<event>
 8    1  0.7366917E-004  0.9537955E+02  0.7546771E-02  0.1292635E+00
          1   -1    0    0  501    0  0.00000000000E+00  0.00000000000E+00  0.36676224673E+03  0.36676224673E+03  0.00000000000E+00 0. -1.
         -1   -1    0    0    0  501 -0.00000000000E+00 -0.00000000000E+00 -0.28032950247E+03  0.28032950247E+03  0.00000000000E+00 0.  1.
         23    2    1    2    0    0 -0.30074894165E+02 -0.65455033733E+01 -0.26622508912E+03  0.28279507896E+03  0.90276883744E+02 0.  0.
         23    2    1    2    0    0  0.30074894165E+02  0.65455033733E+01  0.35265783337E+03  0.36429667024E+03  0.86006823188E+02 0.  0.
          5    1    4    4  502    0  0.17943338073E+02  0.38747851790E+02  0.28525785896E+03  0.28847442781E+03  0.47000000000E+01 0. -1.
         -5    1    4    4    0  502  0.12131556093E+02 -0.32202348417E+02  0.67399974413E+02  0.75822242433E+02  0.47000000000E+01 0.  1.
          5    1    3    3  503    0  0.25489483777E+02 -0.25619836613E+02 -0.10215459900E+03  0.10846078512E+03  0.47000000000E+01 0. -1.
         -5    1    3    3    0  503 -0.55564377943E+02  0.19074333239E+02 -0.16407049012E+03  0.17433429385E+03  0.47000000000E+01 0.  1.
<mgrwt>
<rscale>  0 0.94355365E+02</rscale>
<asrwt>0</asrwt>
<pdfrwt beam="1">  1        1 0.56424961E-01 0.95379550E+02</pdfrwt>
<pdfrwt beam="2">  1       -1 0.43127616E-01 0.95379550E+02</pdfrwt>
<totfact> 0.37248435E+02</totfact>
</mgrwt>
</event>
<event>
 8    1  0.7366917E-004  0.1188852E+03  0.7546771E-02  0.1245339E+00
          1   -1    0    0  501    0  0.00000000000E+00  0.00000000000E+00  0.48639514521E+03  0.48639514521E+03  0.00000000000E+00 0. -1.
         -1   -1    0    0    0  501 -0.00000000000E+00 -0.00000000000E+00 -0.63628785341E+02  0.63628785341E+02  0.00000000000E+00 0.  1.
         23    2    1    2    0    0 -0.59703391403E+02  0.44525713492E+02  0.41438309943E+03  0.43084355388E+03  0.91464641932E+02 0.  0.
         23    2    1    2    0    0  0.59703391403E+02 -0.44525713492E+02  0.83832604398E+01  0.11918037667E+03  0.92664173335E+02 0.  0.
          5    1    3    3  502    0 -0.33593384657E+02 -0.22939322435E+02  0.21074869965E+03  0.21469008457E+03  0.47000000000E+01 0. -1.
         -5    1    4    4    0  503  0.75538492032E+02 -0.71542618878E+01  0.15818574467E+02  0.77650270700E+02  0.47000000000E+01 0.  1.
          5    1    4    4  503    0 -0.15835100629E+02 -0.37371451605E+02 -0.74353140274E+01  0.41530105967E+02  0.47000000000E+01 0. -1.
         -5    1    3    3    0  502 -0.26110006746E+02  0.67465035928E+02  0.20363439978E+03  0.21615346932E+03  0.47000000000E+01 0.  1.
<mgrwt>
<rscale>  0 0.11865134E+03</rscale>
<asrwt>0</asrwt>
<pdfrwt beam="1">  1        1 0.74830020E-01 0.11888517E+03</pdfrwt>
<pdfrwt beam="2">  1       -1 0.97890442E-02 0.11888517E+03</pdfrwt>
<totfact> 0.28622426E+03</totfact>
</mgrwt>
</event>
<event>
 8    1  0.7366917E-004  0.9570596E+02  0.7546771E-02  0.1291921E+00
         -2   -1    0    0    0  501 -0.00000000000E+00  0.00000000000E+00  0.12211822029E+03  0.12211822029E+03  0.00000000000E+00 0.  1.
          2   -1    0    0  501    0  0.00000000000E+00 -0.00000000000E+00 -0.10394736252E+03  0.10394736252E+03  0.00000000000E+00 0. -1.
         23    2    1    2    0    0 -0.45256407025E+00  0.18366604159E+01 -0.53856808859E+02  0.10628405093E+03  0.91608763145E+02 0.  0.
         23    2    1    2    0    0  0.45256407025E+00 -0.18366604159E+01  0.72027666628E+02  0.11978153188E+03  0.95687263954E+02 0.  0.
          5    1    4    4  502    0  0.26010354130E+02 -0.76324274025E+01  0.85588982253E+02  0.89901926304E+02  0.47000000000E+01 0. -1.
         -5    1    3    3    0  503 -0.11906813920E+02  0.35427510557E+02  0.43805305538E+01  0.37923077010E+02  0.47000000000E+01 0.  1.
          5    1    3    3  503    0  0.11454249850E+02 -0.33590850141E+02 -0.58237339413E+02  0.68360973916E+02  0.47000000000E+01 0. -1.
         -5    1    4    4    0  502 -0.25557790059E+02  0.57957669866E+01 -0.13561315625E+02  0.29879605573E+02  0.47000000000E+01 0.  1.
<mgrwt>
<rscale>  0 0.94669837E+02</rscale>
<asrwt>0</asrwt>
<pdfrwt beam="1">  1        2 0.15991902E-01 0.95705959E+02</pdfrwt>
<pdfrwt beam="2">  1       -2 0.18787418E-01 0.95705959E+02</pdfrwt>
<totfact> 0.77539417E+03</totfact>
</mgrwt>
</event>
<event>
 8    1  0.7366917E-004  0.9908155E+02  0.7546771E-02  0.1282880E+00
         -1   -1    0    0    0  501 -0.00000000000E+00  0.00000000000E+00  0.16801804673E+03  0.16801804673E+03  0.00000000000E+00 0.  1.
          1   -1    0    0  501    0  0.00000000000E+00 -0.00000000000E+00 -0.13166917404E+03  0.13166917404E+03  0.00000000000E+00 0. -1.
         23    2    1    2    0    0  0.20682873977E+02 -0.29150673322E+02  0.13041618151E+03  0.16306433463E+03  0.91126581176E+02 0.  0.
         23    2    1    2    0    0 -0.20682873977E+02  0.29150673322E+02 -0.94067308829E+02  0.13662288614E+03  0.92410017835E+02 0.  0.
          5    1    4    4  502    0  0.23707925934E+02 -0.33749140894E+01 -0.73898669532E+02  0.77823898359E+02  0.47000000000E+01 0. -1.
         -5    1    3    3    0  503  0.36827375787E+02 -0.53935480529E+02  0.71365697048E+02  0.96852694244E+02  0.47000000000E+01 0.  1.
          5    1    3    3  503    0 -0.16144501810E+02  0.24784807208E+02  0.59050484463E+02  0.66211640384E+02  0.47000000000E+01 0. -1.
         -5    1    4    4    0  502 -0.44390799911E+02  0.32525587411E+02 -0.20168639297E+02  0.58798987783E+02  0.47000000000E+01 0.  1.
<mgrwt>
<rscale>  0 0.98781211E+02</rscale>
<asrwt>0</asrwt>
<pdfrwt beam="1">  1        1 0.20256796E-01 0.99081554E+02</pdfrwt>
<pdfrwt beam="2">  1       -1 0.25848930E-01 0.99081554E+02</pdfrwt>
<totfact> 0.31345464E+03</totfact>
</mgrwt>
</event>
<event>
 8    1  0.7366917E-004  0.9613633E+02  0.7546771E-02  0.1291240E+00
         -1   -1    0    0    0  501 -0.00000000000E+00  0.00000000000E+00  0.24578573926E+03  0.24578573926E+03  0.00000000000E+00 0.  1.
          1   -1    0    0  501    0  0.00000000000E+00 -0.00000000000E+00 -0.38025109925E+02  0.38025109925E+02  0.00000000000E+00 0. -1.
         23    2    1    2    0    0  0.20229892728E+01  0.15634226958E+02  0.72216513512E+02  0.12023900861E+03  0.94834976824E+02 0.  0.
         23    2    1    2    0    0 -0.20229892728E+01 -0.15634226958E+02  0.13554411582E+03  0.16357184057E+03  0.90194335505E+02 0.  0.
          5    1    3    3  502    0 -0.30925809046E+02 -0.10161686468E+02 -0.40314723388E+01  0.33136208387E+02  0.47000000000E+01 0. -1.
         -5    1    3    3    0  502  0.32948798319E+02  0.25795913426E+02  0.76247985851E+02  0.87102800222E+02  0.47000000000E+01 0.  1.
          5    1    4    4  503    0 -0.17199599898E+02  0.32403827026E+02  0.81717970573E+02  0.89698110109E+02  0.47000000000E+01 0. -1.
         -5    1    4    4    0  503  0.15176610626E+02 -0.48038053984E+02  0.53826145247E+02  0.73873730465E+02  0.47000000000E+01 0.  1.
<mgrwt>
<rscale>  0 0.94971673E+02</rscale>
<asrwt>0</asrwt>
<pdfrwt beam="1">  1        1 0.58500171E-02 0.96136332E+02</pdfrwt>
<pdfrwt beam="2">  1       -1 0.37813190E-01 0.96136332E+02</pdfrwt>
<totfact> 0.83601901E+03</totfact>
</mgrwt>
</event>
<event>
 8    1  0.7366917E-004  0.1249549E+03  0.7546771E-02  0.1235594E+00
          1   -1    0    0  501    0  0.00000000000E+00  0.00000000000E+00  0.10403433288E+03  0.10403433288E+03  0.00000000000E+00 0. -1.
         -1   -1    0    0    0  501 -0.00000000000E+00 -0.00000000000E+00 -0.22759218579E+03  0.22759218579E+03  0.00000000000E+00 0.  1.
         23    2    1    2    0    0  0.85728243767E+02  0.84219796208E+01  0.35658524268E+02  0.12994331256E+03  0.90517802707E+02 0.  0.
         23    2    1    2    0    0 -0.85728243767E+02 -0.84219796208E+01 -0.15921637717E+03  0.20168320610E+03  0.88915686716E+02 0.  0.
          5    1    3    3  502    0  0.14897767116E+02  0.22350019956E+02  0.49290488857E+02  0.56330357258E+02  0.47000000000E+01 0. -1.
         -5    1    4    4    0  503  0.16143840355E+02 -0.12968776636E+02 -0.34562548694E+02  0.40564424328E+02  0.47000000000E+01 0.  1.
          5    1    4    4  503    0 -0.10187208412E+03  0.45467970154E+01 -0.12465382848E+03  0.16111878178E+03  0.47000000000E+01 0. -1.
         -5    1    3    3    0  502  0.70830476651E+02 -0.13928040335E+02 -0.13631964589E+02  0.73612955305E+02  0.47000000000E+01 0.  1.
<mgrwt>
<rscale>  0 0.12466501E+03</rscale>
<asrwt>0</asrwt>
<pdfrwt beam="1">  1        1 0.16005282E-01 0.12495493E+03</pdfrwt>
<pdfrwt beam="2">  1       -1 0.35014182E-01 0.12495493E+03</pdfrwt>
<totfact> 0.25777619E+03</totfact>
</mgrwt>
</event>
<event>
 8    1  0.7366917E-004  0.1043076E+03  0.7546771E-02  0.1272159E+00
         -2   -1    0    0    0  501 -0.00000000000E+00  0.00000000000E+00  0.25434855827E+03  0.25434855827E+03  0.00000000000E+00 0.  1.
          2   -1    0    0  501    0  0.00000000000E+00 -0.00000000000E+00 -0.23416999867E+03  0.23416999867E+03  0.00000000000E+00 0. -1.
         23    2    1    2    0    0  0.45496205127E+02 -0.99060981516E+01  0.23121741779E+03  0.25310941175E+03  0.91841409865E+02 0.  0.
         23    2    1    2    0    0 -0.45496205127E+02  0.99060981516E+01 -0.21103885819E+03  0.23540914519E+03  0.93338258569E+02 0.  0.
          5    1    4    4  502    0 -0.67382782961E+02  0.19328962768E+02 -0.10304186261E+03  0.12471472924E+03  0.47000000000E+01 0. -1.
         -5    1    4    4    0  502  0.21886577835E+02 -0.94228646164E+01 -0.10799699558E+03  0.11069441594E+03  0.47000000000E+01 0.  1.
          5    1    3    3  503    0  0.19738842491E+02 -0.28373477835E+02  0.21537129529E+02  0.40995293579E+02  0.47000000000E+01 0. -1.
         -5    1    3    3    0  503  0.25757362636E+02  0.18467379683E+02  0.20968028826E+03  0.21211411817E+03  0.47000000000E+01 0.  1.
<mgrwt>
<rscale>  0 0.10397162E+03</rscale>
<asrwt>0</asrwt>
<pdfrwt beam="1">  1        2 0.36026154E-01 0.10430755E+03</pdfrwt>
<pdfrwt beam="2">  1       -2 0.39130547E-01 0.10430755E+03</pdfrwt>
<totfact> 0.87637333E+02</totfact>
</mgrwt>
</event>
<event>
 7    1  0.7366917E-004  0.2269058E+03  0.7546771E-02  0.1160389E+00
          2   -1    0    0  501    0  0.00000000000E+00  0.00000000000E+00  0.21270018288E+02  0.21270018288E+02  0.00000000000E+00 0. -1.
         -2   -1    0    0    0  501 -0.00000000000E+00 -0.00000000000E+00 -0.13775693530E+04  0.13775693530E+04  0.00000000000E+00 0.  1.
         23    2    1    2    0    0 -0.42020831058E+02  0.30213484661E+02 -0.59352217245E+03  0.60302830150E+03  0.93252122326E+02 0.  0.
          5    1    3    3  502    0 -0.36489709149E+02 -0.28112102041E+02 -0.31382251854E+03  0.31721988004E+03  0.47000000000E+01 0. -1.
         -5    1    3    3    0  502 -0.55311219088E+01  0.58325586702E+02 -0.27969965392E+03  0.28580842146E+03  0.47000000000E+01 0.  1.
          5    1    1    2  503    0  0.61891590852E+02 -0.11583386442E+03 -0.55130459698E+03  0.56675118157E+03  0.47000000000E+01 0. -1.
         -5    1    1    2    0  503 -0.19870759794E+02  0.85620379758E+02 -0.21147256532E+03  0.22905988826E+03  0.47000000000E+01 0.  1.
<mgrwt>
<rscale>  0 0.18787807E+03</rscale>
<asrwt>0</asrwt>
<pdfrwt beam="1">  1        2 0.32723100E-02 0.22690584E+03</pdfrwt>
<pdfrwt beam="2">  1       -2 0.21193378E+00 0.22690584E+03</pdfrwt>
<totfact> 0.33665800E+02</totfact>
</mgrwt>
</event>
<event>
 8    1  0.7366917E-004  0.1348973E+03  0.7546771E-02  0.1223691E+00
         -2   -1    0    0    0  501 -0.00000000000E+00  0.00000000000E+00  0.20162357834E+02  0.20162357834E+02  0.00000000000E+00 0.  1.
          2   -1    0    0  501    0  0.00000000000E+00 -0.00000000000E+00 -0.11064490198E+04  0.11064490198E+04  0.00000000000E+00 0. -1.
         23    2    1    2    0    0 -0.25130738297E+02  0.93988002406E+02 -0.83234703175E+03  0.84320749052E+03  0.93445129370E+02 0.  0.
         23    2    1    2    0    0  0.25130738297E+02 -0.93988002406E+02 -0.25393963024E+03  0.28340388714E+03  0.79794290741E+02 0.  0.
          5    1    3    3  502    0 -0.50240539703E+02  0.17655564013E+02 -0.38213699536E+03  0.38585826931E+03  0.47000000000E+01 0. -1.
         -5    1    4    4    0  503  0.27601495213E+02 -0.63865349809E+02 -0.23975068095E+03  0.24968601174E+03  0.47000000000E+01 0.  1.
          5    1    4    4  503    0 -0.24707569161E+01 -0.30122652597E+02 -0.14188949290E+02  0.33717875395E+02  0.47000000000E+01 0. -1.
         -5    1    3    3    0  502  0.25109801406E+02  0.76332438393E+02 -0.45021003639E+03  0.45734922121E+03  0.47000000000E+01 0.  1.
<mgrwt>
<rscale>  0 0.13257022E+03</rscale>
<asrwt>0</asrwt>
<pdfrwt beam="1">  1        2 0.17022295E+00 0.13489733E+03</pdfrwt>
<pdfrwt beam="2">  1       -2 0.31019009E-02 0.13489733E+03</pdfrwt>
<totfact> 0.88374920E+03</totfact>
</mgrwt>
</event>
<event>
 8    1  0.7366917E-004  0.1095939E+03  0.7546771E-02  0.1261817E+00
          1   -1    0    0  501    0  0.00000000000E+00  0.00000000000E+00  0.14798729207E+03  0.14798729207E+03  0.00000000000E+00 0. -1.
         -1   -1    0    0    0  501 -0.00000000000E+00 -0.00000000000E+00 -0.84810119790E+02  0.84810119790E+02  0.00000000000E+00 0.  1.
         23    2    1    2    0    0 -0.48331694421E+02 -0.32894090105E+02  0.51364848417E+01  0.10971416839E+03  0.92697580437E+02 0.  0.
         23    2    1    2    0    0  0.48331694421E+02  0.32894090105E+02  0.58040687434E+02  0.12308324347E+03  0.91448289080E+02 0.  0.
          5    1    3    3  502    0  0.20512393697E+02 -0.17649163405E+02  0.24106533207E+02  0.36544031077E+02  0.47000000000E+01 0. -1.
         -5    1    4    4    0  503  0.16693312507E+02 -0.27083146681E+02 -0.22309894708E+01  0.32237103323E+02  0.47000000000E+01 0.  1.
          5    1    4    4  503    0  0.31638381914E+02  0.59977236786E+02  0.60271676905E+02  0.90846140146E+02  0.47000000000E+01 0. -1.
         -5    1    3    3    0  502 -0.68844088119E+02 -0.15244926700E+02 -0.18970048365E+02  0.73170137310E+02  0.47000000000E+01 0.  1.
<mgrwt>
<rscale>  0 0.10932925E+03</rscale>
<asrwt>0</asrwt>
<pdfrwt beam="1">  1        1 0.22767276E-01 0.10959387E+03</pdfrwt>
<pdfrwt beam="2">  1       -1 0.13047711E-01 0.10959387E+03</pdfrwt>
<totfact> 0.80528598E+03</totfact>
</mgrwt>
</event>
<event>
 8    1  0.7366917E-004  0.1384109E+03  0.7546771E-02  0.1217028E+00
          2   -1    0    0  501    0  0.00000000000E+00  0.00000000000E+00  0.49525090768E+03  0.49525090768E+03  0.00000000000E+00 0. -1.
         -2   -1    0    0    0  501 -0.00000000000E+00 -0.00000000000E+00 -0.41586632421E+02  0.41586632421E+02  0.00000000000E+00 0.  1.
         23    2    1    2    0    0 -0.11181069086E+02  0.97590410777E+02  0.31480735193E+03  0.34389132171E+03  0.97512397864E+02 0.  0.
         23    2    1    2    0    0  0.11181069086E+02 -0.97590410777E+02  0.13885692333E+03  0.19294621839E+03  0.91093871655E+02 0.  0.
          5    1    4    4  502    0 -0.70165976545E+01 -0.11068633851E+03  0.11707400624E+03  0.16133539944E+03  0.47000000000E+01 0. -1.
         -5    1    3    3    0  503 -0.39483819977E+02  0.99620034292E+02  0.21895220553E+03  0.24381403073E+03  0.47000000000E+01 0.  1.
          5    1    3    3  503    0  0.28302750890E+02 -0.20296235147E+01  0.95855146398E+02  0.10007729098E+03  0.47000000000E+01 0. -1.
         -5    1    4    4    0  502  0.18197666741E+02  0.13095927730E+02  0.21782917093E+02  0.31610818955E+02  0.47000000000E+01 0.  1.
<mgrwt>
<rscale>  0 0.13728613E+03</rscale>
<asrwt>0</asrwt>
<pdfrwt beam="1">  1        2 0.76192443E-01 0.13841088E+03</pdfrwt>
<pdfrwt beam="2">  1       -2 0.63979438E-02 0.13841088E+03</pdfrwt>
<totfact> 0.80697214E+03</totfact>
</mgrwt>
</event>
<event>
 8    1  0.7366917E-004  0.9599168E+02  0.7546771E-02  0.1289447E+00
          2   -1    0    0  501    0  0.00000000000E+00  0.00000000000E+00  0.11035234412E+03  0.11035234412E+03  0.00000000000E+00 0. -1.
         -2   -1    0    0    0  501 -0.00000000000E+00 -0.00000000000E+00 -0.82932561901E+02  0.82932561901E+02  0.00000000000E+00 0.  1.
         23    2    1    2    0    0  0.83084536700E+01  0.23755614292E+02  0.18426683044E+02  0.97744285932E+02  0.92633920200E+02 0.  0.
         23    2    1    2    0    0 -0.83084536700E+01 -0.23755614292E+02  0.89930991742E+01  0.95540620089E+02  0.91726629947E+02 0.  0.
          5    1    3    3  502    0 -0.40263968498E+02 -0.14892139645E+01  0.12689292792E+02  0.42503094817E+02  0.47000000000E+01 0. -1.
         -5    1    3    3    0  502  0.48572422168E+02  0.25244828256E+02  0.57373902522E+01  0.55241191116E+02  0.47000000000E+01 0.  1.
          5    1    4    4  503    0 -0.24683054515E+02  0.26604001592E+02  0.19324526791E+02  0.41383008791E+02  0.47000000000E+01 0. -1.
         -5    1    4    4    0  503  0.16374600845E+02 -0.50359615884E+02 -0.10331427617E+02  0.54157611297E+02  0.47000000000E+01 0.  1.
<mgrwt>
<rscale>  0 0.95772115E+02</rscale>
<asrwt>0</asrwt>
<pdfrwt beam="1">  1        2 0.16977284E-01 0.95991681E+02</pdfrwt>
<pdfrwt beam="2">  1       -2 0.12758856E-01 0.95991681E+02</pdfrwt>
<totfact> 0.13590886E+04</totfact>
</mgrwt>
</event>
<event>
 8    1  0.7366917E-004  0.1402471E+03  0.7546771E-02  0.1223496E+00
         -2   -1    0    0    0  501 -0.00000000000E+00  0.00000000000E+00  0.86616801327E+02  0.86616801327E+02  0.00000000000E+00 0.  1.
          2   -1    0    0  501    0  0.00000000000E+00 -0.00000000000E+00 -0.48584941685E+03  0.48584941685E+03  0.00000000000E+00 0. -1.
         23    2    1    2    0    0  0.61530930541E+02 -0.26292950078E+02 -0.43294507925E+03  0.45509415470E+03  0.12325531778E+03 0.  0.
         23    2    1    2    0    0 -0.61530930541E+02  0.26292950078E+02  0.33712463727E+02  0.11737206347E+03  0.90345428419E+02 0.  0.
          5    1    4    4  502    0 -0.16198399555E+02  0.27843685598E+02 -0.26404700044E+02  0.41916072815E+02  0.47000000000E+01 0. -1.
         -5    1    3    3    0  503  0.20057132953E+02 -0.30125535862E+02 -0.23275605258E+02  0.43286028848E+02  0.47000000000E+01 0.  1.
          5    1    3    3  503    0  0.41473797588E+02  0.38325857843E+01 -0.40966947399E+03  0.41180812585E+03  0.47000000000E+01 0. -1.
         -5    1    4    4    0  502 -0.45332530986E+02 -0.15507355197E+01  0.60117163771E+02  0.75455990658E+02  0.47000000000E+01 0.  1.
<mgrwt>
<rscale>  0 0.13270503E+03</rscale>
<asrwt>0</asrwt>
<pdfrwt beam="1">  1        2 0.74746064E-01 0.14024710E+03</pdfrwt>
<pdfrwt beam="2">  1       -2 0.13325662E-01 0.14024710E+03</pdfrwt>
<totfact> 0.26171201E+03</totfact>
</mgrwt>
</event>
<event>
 8    1  0.7366917E-004  0.9353295E+02  0.7546771E-02  0.1295430E+00
          2   -1    0    0  501    0  0.00000000000E+00  0.00000000000E+00  0.66757965243E+03  0.66757965243E+03  0.00000000000E+00 0. -1.
         -2   -1    0    0    0  501 -0.00000000000E+00 -0.00000000000E+00 -0.14382551451E+02  0.14382551451E+02  0.00000000000E+00 0.  1.
         23    2    1    2    0    0  0.77521110962E+01  0.20296725251E+02  0.43415108268E+03  0.44378250076E+03  0.89351514306E+02 0.  0.
         23    2    1    2    0    0 -0.77521110962E+01 -0.20296725251E+02  0.21904601830E+03  0.23817970312E+03  0.90974505014E+02 0.  0.
          5    1    3    3  502    0  0.14393677253E+02  0.40014518090E+02  0.40705820268E+03  0.40930039088E+03  0.47000000000E+01 0. -1.
         -5    1    4    4    0  503  0.30497213712E+02 -0.39765469226E+02  0.12058279889E+03  0.13066626947E+03  0.47000000000E+01 0.  1.
          5    1    4    4  503    0 -0.38249324808E+02  0.19468743975E+02  0.98463219405E+02  0.10751343365E+03  0.47000000000E+01 0. -1.
         -5    1    3    3    0  502 -0.66415661572E+01 -0.19717792839E+02  0.27092879997E+02  0.34482109883E+02  0.47000000000E+01 0.  1.
<mgrwt>
<rscale>  0 0.93135975E+02</rscale>
<asrwt>0</asrwt>
<pdfrwt beam="1">  1        2 0.10270454E+00 0.93532951E+02</pdfrwt>
<pdfrwt beam="2">  1       -2 0.22127007E-02 0.93532951E+02</pdfrwt>
<totfact> 0.26848982E+04</totfact>
</mgrwt>
</event>
<event>
 8    1  0.7366917E-004  0.1000066E+03  0.7546771E-02  0.1280449E+00
         -1   -1    0    0    0  501 -0.00000000000E+00  0.00000000000E+00  0.66947193453E+02  0.66947193453E+02  0.00000000000E+00 0.  1.
          1   -1    0    0  501    0  0.00000000000E+00 -0.00000000000E+00 -0.46050947249E+03  0.46050947249E+03  0.00000000000E+00 0. -1.
         23    2    1    2    0    0 -0.40837605922E+02 -0.23026134692E+00 -0.41361536096E+03  0.42545935698E+03  0.90940829933E+02 0.  0.
         23    2    1    2    0    0  0.40837605922E+02  0.23026134692E+00  0.20053081919E+02  0.10199730896E+03  0.91288344615E+02 0.  0.
          5    1    4    4  502    0  0.19207209032E+02 -0.44395185608E+02  0.18973104614E+02  0.52172004779E+02  0.47000000000E+01 0. -1.
         -5    1    3    3    0  503 -0.13993122623E+02  0.40893783792E+02 -0.27300901071E+03  0.27644912545E+03  0.47000000000E+01 0.  1.
          5    1    3    3  503    0 -0.26844483299E+02 -0.41124045139E+02 -0.14060635024E+03  0.14901023153E+03  0.47000000000E+01 0. -1.
         -5    1    4    4    0  502  0.21630396890E+02  0.44625446955E+02  0.10799773051E+01  0.49825304179E+02  0.47000000000E+01 0.  1.
<mgrwt>
<rscale>  0 0.99927250E+02</rscale>
<asrwt>0</asrwt>
<pdfrwt beam="1">  1        1 0.70847607E-01 0.10000662E+03</pdfrwt>
<pdfrwt beam="2">  1       -1 0.10299569E-01 0.10000662E+03</pdfrwt>
<totfact> 0.28210654E+03</totfact>
</mgrwt>
</event>
<event>
 8    1  0.7366917E-004  0.1044242E+03  0.7546771E-02  0.1271296E+00
          2   -1    0    0  501    0  0.00000000000E+00  0.00000000000E+00  0.20296605307E+02  0.20296605307E+02  0.00000000000E+00 0. -1.
         -2   -1    0    0    0  501 -0.00000000000E+00 -0.00000000000E+00 -0.73498882348E+03  0.73498882348E+03  0.00000000000E+00 0.  1.
         23    2    1    2    0    0 -0.42206679092E+02 -0.28226820802E+02 -0.16136963871E+03  0.19220972184E+03  0.91248340798E+02 0.  0.
         23    2    1    2    0    0  0.42206679092E+02  0.28226820802E+02 -0.55332257946E+03  0.56307570695E+03  0.91160395144E+02 0.  0.
          5    1    4    4  502    0 -0.13041619679E+02  0.16294915907E+02 -0.30899824214E+02  0.37583204556E+02  0.47000000000E+01 0. -1.
         -5    1    4    4    0  502  0.55248298771E+02  0.11931904895E+02 -0.52242275525E+03  0.52549250240E+03  0.47000000000E+01 0.  1.
          5    1    3    3  503    0 -0.62689381365E+02  0.64151109837E+01 -0.87128100358E+02  0.10763135257E+03  0.47000000000E+01 0. -1.
         -5    1    3    3    0  503  0.20482702273E+02 -0.34641931786E+02 -0.74241538354E+02  0.84578369265E+02  0.47000000000E+01 0.  1.
<mgrwt>
<rscale>  0 0.10440500E+03</rscale>
<asrwt>0</asrwt>
<pdfrwt beam="1">  1        2 0.31225545E-02 0.10442422E+03</pdfrwt>
<pdfrwt beam="2">  1       -2 0.11307521E+00 0.10442422E+03</pdfrwt>
<totfact> 0.17917967E+03</totfact>
</mgrwt>
</event>
<event>
 8    1  0.7366917E-004  0.1108830E+03  0.7546771E-02  0.1259136E+00
         -1   -1    0    0    0  501 -0.00000000000E+00  0.00000000000E+00  0.19900271015E+03  0.19900271015E+03  0.00000000000E+00 0.  1.
          1   -1    0    0  501    0  0.00000000000E+00 -0.00000000000E+00 -0.22499081040E+03  0.22499081040E+03  0.00000000000E+00 0. -1.
         23    2    1    2    0    0 -0.16737829112E+02  0.61182679020E+02  0.16768646879E+03  0.20103181967E+03  0.90948147698E+02 0.  0.
         23    2    1    2    0    0  0.16737829112E+02 -0.61182679020E+02 -0.19367456904E+03  0.22296170088E+03  0.90435646906E+02 0.  0.
          5    1    3    3  502    0 -0.35229439182E+02  0.30686430943E+01  0.11465789865E+03  0.12007936409E+03  0.47000000000E+01 0. -1.
         -5    1    4    4    0  503  0.32225550519E+02 -0.60872429668E+01 -0.17097579343E+02  0.37282138519E+02  0.47000000000E+01 0.  1.
          5    1    4    4  503    0 -0.15487721406E+02 -0.55095436053E+02 -0.17657698970E+03  0.18567956236E+03  0.47000000000E+01 0. -1.
         -5    1    3    3    0  502  0.18491610069E+02  0.58114035926E+02  0.53028570131E+02  0.80952455581E+02  0.47000000000E+01 0.  1.
<mgrwt>
<rscale>  0 0.11077786E+03</rscale>
<asrwt>0</asrwt>
<pdfrwt beam="1">  1        1 0.34613971E-01 0.11088300E+03</pdfrwt>
<pdfrwt beam="2">  1       -1 0.30615802E-01 0.11088300E+03</pdfrwt>
<totfact> 0.12234684E+03</totfact>
</mgrwt>
</event>
<event>
 8    1  0.7366917E-004  0.1150088E+03  0.7546771E-02  0.1253536E+00
         -1   -1    0    0    0  501 -0.00000000000E+00  0.00000000000E+00  0.16074446332E+03  0.16074446332E+03  0.00000000000E+00 0.  1.
          1   -1    0    0  501    0  0.00000000000E+00 -0.00000000000E+00 -0.84684899456E+02  0.84684899456E+02  0.00000000000E+00 0. -1.
         23    2    1    2    0    0  0.31544570648E+02  0.57968549321E+02  0.70085712553E+02  0.13468121505E+03  0.94189224090E+02 0.  0.
         23    2    1    2    0    0 -0.31544570648E+02 -0.57968549321E+02  0.59738513153E+01  0.11074814773E+03  0.88735859037E+02 0.  0.
          5    1    3    3  502    0 -0.30941654036E+02  0.15583969093E+02  0.58715464660E+01  0.35451531773E+02  0.47000000000E+01 0. -1.
         -5    1    4    4    0  503 -0.45764430079E+02 -0.38249551876E+01 -0.18159263311E+02  0.49607077989E+02  0.47000000000E+01 0.  1.
          5    1    4    4  503    0  0.14219859430E+02 -0.54143594133E+02  0.24133114626E+02  0.61141069744E+02  0.47000000000E+01 0. -1.
         -5    1    3    3    0  502  0.62486224684E+02  0.42384580228E+02  0.64214166087E+02  0.99229683274E+02  0.47000000000E+01 0.  1.
<mgrwt>
<rscale>  0 0.11388702E+03</rscale>
<asrwt>0</asrwt>
<pdfrwt beam="1">  1        1 0.13028446E-01 0.11500879E+03</pdfrwt>
<pdfrwt beam="2">  1       -1 0.24729917E-01 0.11500879E+03</pdfrwt>
<totfact> 0.59833509E+03</totfact>
</mgrwt>
</event>
<event>
 8    1  0.7366917E-004  0.9848367E+02  0.7546771E-02  0.1283766E+00
          1   -1    0    0  501    0  0.00000000000E+00  0.00000000000E+00  0.41958333377E+03  0.41958333377E+03  0.00000000000E+00 0. -1.
         -1   -1    0    0    0  501 -0.00000000000E+00 -0.00000000000E+00 -0.23087834331E+02  0.23087834331E+02  0.00000000000E+00 0.  1.
         23    2    1    2    0    0 -0.37681102373E+02  0.32571308803E+00  0.21177888059E+03  0.23355797395E+03  0.90989347553E+02 0.  0.
         23    2    1    2    0    0  0.37681102373E+02 -0.32571308803E+00  0.18471661885E+03  0.20911319415E+03  0.90488270638E+02 0.  0.
          5    1    4    4  502    0 -0.17514063347E+02  0.16227788473E+02  0.12310487162E+02  0.27271260107E+02  0.47000000000E+01 0. -1.
         -5    1    3    3    0  503  0.23110708682E+02  0.18406409381E+02  0.37083466827E+02  0.47646345862E+02  0.47000000000E+01 0.  1.
          5    1    3    3  503    0 -0.60791811055E+02 -0.18080696293E+02  0.17469541376E+03  0.18591162809E+03  0.47000000000E+01 0. -1.
         -5    1    4    4    0  502  0.55195165720E+02 -0.16553501561E+02  0.17240613169E+03  0.18184193405E+03  0.47000000000E+01 0.  1.
<mgrwt>
<rscale>  0 0.98367774E+02</rscale>
<asrwt>0</asrwt>
<pdfrwt beam="1">  1        1 0.64551277E-01 0.98483668E+02</pdfrwt>
<pdfrwt beam="2">  1       -1 0.35519748E-02 0.98483668E+02</pdfrwt>
<totfact> 0.15310694E+04</totfact>
</mgrwt>
</event>
<event>
 8    1  0.7366917E-004  0.9202184E+02  0.7546771E-02  0.1298811E+00
          2   -1    0    0  501    0  0.00000000000E+00  0.00000000000E+00  0.83895004427E+03  0.83895004427E+03  0.00000000000E+00 0. -1.
         -2   -1    0    0    0  501 -0.00000000000E+00 -0.00000000000E+00 -0.10498750046E+02  0.10498750046E+02  0.00000000000E+00 0.  1.
         23    2    1    2    0    0  0.53172803334E+01 -0.12279627895E+01  0.31988542719E+03  0.33285838763E+03  0.91859884225E+02 0.  0.
         23    2    1    2    0    0 -0.53172803334E+01  0.12279627895E+01  0.50856586703E+03  0.51659040668E+03  0.90535218546E+02 0.  0.
          5    1    4    4  502    0  0.34642444488E+02  0.17467193104E+02  0.35069015443E+03  0.35286098708E+03  0.47000000000E+01 0. -1.
         -5    1    4    4    0  502 -0.39959724821E+02 -0.16239230315E+02  0.15787571261E+03  0.16372941959E+03  0.47000000000E+01 0.  1.
          5    1    3    3  503    0  0.42351336408E+02 -0.95208101193E+00  0.25018709533E+03  0.25379167603E+03  0.47000000000E+01 0. -1.
         -5    1    3    3    0  503 -0.37034056074E+02 -0.27588177757E+00  0.69698331859E+02  0.79066711605E+02  0.47000000000E+01 0.  1.
<mgrwt>
<rscale>  0 0.91689472E+02</rscale>
<asrwt>0</asrwt>
<pdfrwt beam="1">  1        2 0.12906919E+00 0.92021844E+02</pdfrwt>
<pdfrwt beam="2">  1       -2 0.16151930E-02 0.92021844E+02</pdfrwt>
<totfact> 0.32047534E+04</totfact>
</mgrwt>
</event>
<event>
 8    1  0.7366917E-004  0.1010791E+03  0.7546771E-02  0.1278513E+00
          2   -1    0    0  501    0  0.00000000000E+00  0.00000000000E+00  0.87945178954E+03  0.87945178954E+03  0.00000000000E+00 0. -1.
         -2   -1    0    0    0  501 -0.00000000000E+00 -0.00000000000E+00 -0.12346733925E+02  0.12346733925E+02  0.00000000000E+00 0.  1.
         23    2    1    2    0    0  0.17461464937E+02 -0.38783268652E+02  0.31956381357E+03  0.33516863224E+03  0.91694800342E+02 0.  0.
         23    2    1    2    0    0 -0.17461464937E+02  0.38783268652E+02  0.54754124204E+03  0.55662989122E+03  0.90699390185E+02 0.  0.
          5    1    4    4  502    0 -0.26058589664E+01 -0.27232409316E+02  0.24560212625E+03  0.24716571170E+03  0.47000000000E+01 0. -1.
         -5    1    3    3    0  503 -0.16493202151E+02 -0.23908638330E+02  0.27688291101E+03  0.27844188822E+03  0.47000000000E+01 0.  1.
          5    1    3    3  503    0  0.33954667088E+02 -0.14874630322E+02  0.42680902559E+02  0.56726744024E+02  0.47000000000E+01 0. -1.
         -5    1    4    4    0  502 -0.14855605970E+02  0.66015677968E+02  0.30193911579E+03  0.30946417953E+03  0.47000000000E+01 0.  1.
<mgrwt>
<rscale>  0 0.10085279E+03</rscale>
<asrwt>0</asrwt>
<pdfrwt beam="1">  1        2 0.13530023E+00 0.10107908E+03</pdfrwt>
<pdfrwt beam="2">  1       -2 0.18994982E-02 0.10107908E+03</pdfrwt>
<totfact> 0.24149808E+04</totfact>
</mgrwt>
</event>
<event>
 8    1  0.7366917E-004  0.1040709E+03  0.7546771E-02  0.1273498E+00
         -3   -1    0    0    0  501 -0.00000000000E+00  0.00000000000E+00  0.24962893665E+02  0.24962893665E+02  0.00000000000E+00 0.  1.
          3   -1    0    0  501    0  0.00000000000E+00 -0.00000000000E+00 -0.44401142093E+03  0.44401142093E+03  0.00000000000E+00 0. -1.
         23    2    1    2    0    0  0.44757800325E+02 -0.11198984177E+01 -0.15945239306E+03  0.19040959859E+03  0.93948042661E+02 0.  0.
         23    2    1    2    0    0 -0.44757800325E+02  0.11198984177E+01 -0.25959613421E+03  0.27856471601E+03  0.90573910412E+02 0.  0.
          5    1    3    3  502    0  0.36374208743E+02  0.43109890585E+02 -0.10762009031E+03  0.12159654422E+03  0.47000000000E+01 0. -1.
         -5    1    3    3    0  502  0.83835915814E+01 -0.44229789003E+02 -0.51832302746E+02  0.68813054365E+02  0.47000000000E+01 0.  1.
          5    1    4    4  503    0 -0.71820719898E+02  0.30877500663E+01 -0.16498988456E+03  0.18003194721E+03  0.47000000000E+01 0. -1.
         -5    1    4    4    0  503  0.27062919573E+02 -0.19678516486E+01 -0.94606249645E+02  0.98532768802E+02  0.47000000000E+01 0.  1.
<mgrwt>
<rscale>  0 0.10330357E+03</rscale>
<asrwt>0</asrwt>
<pdfrwt beam="1">  1        3 0.68309452E-01 0.10407089E+03</pdfrwt>
<pdfrwt beam="2">  1       -3 0.38404450E-02 0.10407089E+03</pdfrwt>
<totfact> 0.15918891E+03</totfact>
</mgrwt>
</event>
<event>
 8    1  0.7366917E-004  0.1217125E+03  0.7546771E-02  0.1240597E+00
         -2   -1    0    0    0  501 -0.00000000000E+00  0.00000000000E+00  0.32053805660E+02  0.32053805660E+02  0.00000000000E+00 0.  1.
          2   -1    0    0  501    0  0.00000000000E+00 -0.00000000000E+00 -0.55167926766E+03  0.55167926766E+03  0.00000000000E+00 0. -1.
         23    2    1    2    0    0 -0.37428271894E+01 -0.80609330165E+02 -0.37985290457E+03  0.39887611308E+03  0.91115594774E+02 0.  0.
         23    2    1    2    0    0  0.37428271894E+01  0.80609330165E+02 -0.13977255743E+03  0.18485696024E+03  0.90132430753E+02 0.  0.
          5    1    3    3  502    0 -0.37520087175E+02 -0.67963953983E+02 -0.18542691115E+03  0.20107731190E+03  0.47000000000E+01 0. -1.
         -5    1    3    3    0  502  0.33777259986E+02 -0.12645376182E+02 -0.19442599342E+03  0.19779880118E+03  0.47000000000E+01 0.  1.
          5    1    4    4  503    0 -0.40315005548E+02  0.40447201902E+02 -0.45283115019E+02  0.73033734122E+02  0.47000000000E+01 0. -1.
         -5    1    4    4    0  503  0.44057832737E+02  0.40162128263E+02 -0.94489442414E+02  0.11182322612E+03  0.47000000000E+01 0.  1.
<mgrwt>
<rscale>  0 0.12152849E+03</rscale>
<asrwt>0</asrwt>
<pdfrwt beam="1">  1        2 0.84873723E-01 0.12171247E+03</pdfrwt>
<pdfrwt beam="2">  1       -2 0.49313553E-02 0.12171247E+03</pdfrwt>
<totfact> 0.10518906E+04</totfact>
</mgrwt>
</event>
<event>
 8    1  0.7366917E-004  0.1102638E+03  0.7546771E-02  0.1261496E+00
         -1   -1    0    0    0  501 -0.00000000000E+00  0.00000000000E+00  0.42828389100E+02  0.42828389100E+02  0.00000000000E+00 0.  1.
          1   -1    0    0  501    0  0.00000000000E+00 -0.00000000000E+00 -0.74037181046E+03  0.74037181046E+03  0.00000000000E+00 0. -1.
         23    2    1    2    0    0 -0.54419199299E+02 -0.27217823163E+02 -0.36897901959E+02  0.11341620085E+03  0.88314892834E+02 0.  0.
         23    2    1    2    0    0  0.54419199299E+02  0.27217823163E+02 -0.66064551940E+03  0.66978399871E+03  0.91955660371E+02 0.  0.
          5    1    3    3  502    0  0.21055228326E+02  0.72896295637E+01 -0.15620302985E+02  0.27614221053E+02  0.47000000000E+01 0. -1.
         -5    1    4    4    0  503  0.23314339073E+02  0.57252086519E+02 -0.47945345124E+03  0.48344499348E+03  0.47000000000E+01 0.  1.
          5    1    4    4  503    0  0.31104860225E+02 -0.30034263356E+02 -0.18119206816E+03  0.18633900523E+03  0.47000000000E+01 0. -1.
         -5    1    3    3    0  502 -0.75474427625E+02 -0.34507452726E+02 -0.21277598975E+02  0.85801979797E+02  0.47000000000E+01 0.  1.
<mgrwt>
<rscale>  0 0.10950156E+03</rscale>
<asrwt>0</asrwt>
<pdfrwt beam="1">  1        1 0.11390336E+00 0.11026379E+03</pdfrwt>
<pdfrwt beam="2">  1       -1 0.65889828E-02 0.11026379E+03</pdfrwt>
<totfact> 0.29239932E+03</totfact>
</mgrwt>
</event>
<event>
 8    1  0.7366917E-004  0.1395372E+03  0.7546771E-02  0.1215335E+00
         -2   -1    0    0    0  501 -0.00000000000E+00  0.00000000000E+00  0.50368915167E+03  0.50368915167E+03  0.00000000000E+00 0.  1.
          2   -1    0    0  501    0  0.00000000000E+00 -0.00000000000E+00 -0.43714961425E+02  0.43714961425E+02  0.00000000000E+00 0. -1.
         23    2    1    2    0    0  0.65266718750E+02 -0.75018879300E+02  0.12430964684E+03  0.18389164750E+03  0.92063417782E+02 0.  0.
         23    2    1    2    0    0 -0.65266718750E+02  0.75018879300E+02  0.33566454340E+03  0.36351246559E+03  0.97893054496E+02 0.  0.
          5    1    4    4  502    0 -0.86261936298E+02  0.42934461961E+02  0.19381330567E+03  0.21649521272E+03  0.47000000000E+01 0. -1.
         -5    1    4    4    0  502  0.20995217548E+02  0.32084417339E+02  0.14185123773E+03  0.14701725287E+03  0.47000000000E+01 0.  1.
          5    1    3    3  503    0  0.72750387043E+02 -0.18925077676E+02  0.90736930072E+02  0.11792394947E+03  0.47000000000E+01 0. -1.
         -5    1    3    3    0  503 -0.74836682933E+01 -0.56093801623E+02  0.33572716772E+02  0.65967698028E+02  0.47000000000E+01 0.  1.
<mgrwt>
<rscale>  0 0.13851958E+03</rscale>
<asrwt>0</asrwt>
<pdfrwt beam="1">  1        2 0.67253791E-02 0.13953719E+03</pdfrwt>
<pdfrwt beam="2">  1       -2 0.77490634E-01 0.13953719E+03</pdfrwt>
<totfact> 0.15743346E+03</totfact>
</mgrwt>
</event>
<event>
 8    1  0.7366917E-004  0.1031499E+03  0.7546771E-02  0.1274380E+00
         -1   -1    0    0    0  501 -0.00000000000E+00  0.00000000000E+00  0.78839892686E+02  0.78839892686E+02  0.00000000000E+00 0.  1.
          1   -1    0    0  501    0  0.00000000000E+00 -0.00000000000E+00 -0.13348615164E+03  0.13348615164E+03  0.00000000000E+00 0. -1.
         23    2    1    2    0    0  0.46679340873E+01 -0.47993639727E+02 -0.27646557744E+02  0.10679065221E+03  0.91185153300E+02 0.  0.
         23    2    1    2    0    0 -0.46679340873E+01  0.47993639727E+02 -0.26999701207E+02  0.10553539211E+03  0.89908598362E+02 0.  0.
          5    1    4    4  502    0 -0.31703850868E+01  0.68529577382E+02  0.30207617787E+01  0.68830003047E+02  0.47000000000E+01 0. -1.
         -5    1    4    4    0  502 -0.14975490005E+01 -0.20535937654E+02 -0.30020462986E+02  0.36705389062E+02  0.47000000000E+01 0.  1.
          5    1    3    3  503    0 -0.23065763497E+02 -0.33802523505E+02 -0.52450973619E+02  0.66692088546E+02  0.47000000000E+01 0. -1.
         -5    1    3    3    0  503  0.27733697584E+02 -0.14191116222E+02  0.24804415876E+02  0.40098563668E+02  0.47000000000E+01 0.  1.
<mgrwt>
<rscale>  0 0.10286710E+03</rscale>
<asrwt>0</asrwt>
<pdfrwt beam="1">  1        1 0.20536331E-01 0.10314995E+03</pdfrwt>
<pdfrwt beam="2">  1       -1 0.12129214E-01 0.10314995E+03</pdfrwt>
<totfact> 0.10201897E+04</totfact>
</mgrwt>
</event>
<event>
 8    1  0.7366917E-004  0.9520372E+02  0.7546771E-02  0.1291411E+00
         -1   -1    0    0    0  501 -0.00000000000E+00  0.00000000000E+00  0.60398493333E+03  0.60398493333E+03  0.00000000000E+00 0.  1.
          1   -1    0    0  501    0  0.00000000000E+00 -0.00000000000E+00 -0.17590509251E+02  0.17590509251E+02  0.00000000000E+00 0. -1.
         23    2    1    2    0    0  0.28703143103E+02  0.35935291801E+01  0.16812752124E+03  0.19261046672E+03  0.89415572558E+02 0.  0.
         23    2    1    2    0    0 -0.28703143103E+02 -0.35935291801E+01  0.41826690284E+03  0.42896497586E+03  0.90702616435E+02 0.  0.
          5    1    3    3  502    0  0.50903321637E+02 -0.18456967222E+02  0.14035187672E+03  0.15050763134E+03  0.47000000000E+01 0. -1.
         -5    1    3    3    0  502 -0.22200178534E+02  0.22050496402E+02  0.27775644518E+02  0.42102835378E+02  0.47000000000E+01 0.  1.
          5    1    4    4  503    0  0.24156655013E+02  0.22306691241E+02  0.10324544359E+03  0.10845664607E+03  0.47000000000E+01 0. -1.
         -5    1    4    4    0  503 -0.52859798116E+02 -0.25900220421E+02  0.31502145925E+03  0.32050832979E+03  0.47000000000E+01 0.  1.
<mgrwt>
<rscale>  0 0.94895886E+02</rscale>
<asrwt>0</asrwt>
<pdfrwt beam="1">  1        1 0.27062327E-02 0.95203721E+02</pdfrwt>
<pdfrwt beam="2">  1       -1 0.92920743E-01 0.95203721E+02</pdfrwt>
<totfact> 0.43535916E+03</totfact>
</mgrwt>
</event>
<event>
 8    1  0.7366917E-004  0.1069213E+03  0.7546771E-02  0.1270518E+00
         -2   -1    0    0    0  501 -0.00000000000E+00  0.00000000000E+00  0.13296066689E+02  0.13296066689E+02  0.00000000000E+00 0.  1.
          2   -1    0    0  501    0  0.00000000000E+00 -0.00000000000E+00 -0.10010975426E+04  0.10010975426E+04  0.00000000000E+00 0. -1.
         23    2    1    2    0    0 -0.91864658611E+01 -0.34775095608E+02 -0.73971611878E+03  0.74740357383E+03  0.10068995662E+03 0.  0.
         23    2    1    2    0    0  0.91864658611E+01  0.34775095608E+02 -0.24808535715E+03  0.26699003547E+03  0.91889260427E+02 0.  0.
          5    1    3    3  502    0 -0.85898852458E+01  0.32969724595E+02 -0.15575862339E+03  0.15951058782E+03  0.47000000000E+01 0. -1.
         -5    1    3    3    0  502 -0.59658061526E+00 -0.67744820203E+02 -0.58395749539E+03  0.58789298601E+03  0.47000000000E+01 0.  1.
          5    1    4    4  503    0  0.39745348433E+02  0.36240423974E+02 -0.21503030183E+03  0.22170516854E+03  0.47000000000E+01 0. -1.
         -5    1    4    4    0  503 -0.30558882571E+02 -0.14653283658E+01 -0.33055055316E+02  0.45284866933E+02  0.47000000000E+01 0.  1.
<mgrwt>
<rscale>  0 0.10479805E+03</rscale>
<asrwt>0</asrwt>
<pdfrwt beam="1">  1        2 0.15401501E+00 0.10692131E+03</pdfrwt>
<pdfrwt beam="2">  1       -2 0.20455486E-02 0.10692131E+03</pdfrwt>
<totfact> 0.18386720E+04</totfact>
</mgrwt>
</event>
<event>
 8    1  0.7366917E-004  0.9843796E+02  0.7546771E-02  0.1284931E+00
          3   -1    0    0  501    0  0.00000000000E+00  0.00000000000E+00  0.10562446652E+03  0.10562446652E+03  0.00000000000E+00 0. -1.
         -3   -1    0    0    0  501 -0.00000000000E+00 -0.00000000000E+00 -0.93249260611E+02  0.93249260611E+02  0.00000000000E+00 0.  1.
         23    2    1    2    0    0  0.20345271583E+02 -0.28308600587E+02 -0.13819459772E+02  0.97010134079E+02  0.89468886785E+02 0.  0.
         23    2    1    2    0    0 -0.20345271583E+02  0.28308600587E+02  0.26194665683E+02  0.10186359306E+03  0.92058264904E+02 0.  0.
          5    1    4    4  502    0 -0.52209567327E+02 -0.41962424699E+01  0.11839314972E+02  0.53904607877E+02  0.47000000000E+01 0. -1.
         -5    1    3    3    0  503  0.45956197347E+02 -0.34366802924E+02 -0.30841195677E+02  0.65317061849E+02  0.47000000000E+01 0.  1.
          5    1    3    3  503    0 -0.25610925764E+02  0.60582023370E+01  0.17021735906E+02  0.31693072229E+02  0.47000000000E+01 0. -1.
         -5    1    4    4    0  502  0.31864295744E+02  0.32504843057E+02  0.14355350712E+02  0.47958985179E+02  0.47000000000E+01 0.  1.
<mgrwt>
<rscale>  0 0.97828014E+02</rscale>
<asrwt>0</asrwt>
<pdfrwt beam="1">  1        3 0.16249918E-01 0.98437955E+02</pdfrwt>
<pdfrwt beam="2">  1       -3 0.14346040E-01 0.98437955E+02</pdfrwt>
<totfact> 0.27815526E+03</totfact>
</mgrwt>
</event>
<event>
 8    1  0.2346403E-003  0.9442316E+02  0.7546771E-02  0.1292536E+00
          4   -1    0    0  501    0  0.00000000000E+00  0.00000000000E+00  0.34860746478E+03  0.34860746478E+03  0.00000000000E+00 0. -1.
         -4   -1    0    0    0  501 -0.00000000000E+00 -0.00000000000E+00 -0.98369630180E+02  0.98369630180E+02  0.00000000000E+00 0.  1.
         23    2    1    2    0    0 -0.16041675968E+01  0.39002256894E+01  0.31739005769E+03  0.33111012720E+03  0.94232067261E+02 0.  0.
         23    2    1    2    0    0  0.16041675968E+01 -0.39002256894E+01 -0.67152223091E+02  0.11586696776E+03  0.94328935314E+02 0.  0.
          5    1    4    4  502    0  0.92568928698E+01  0.33107553203E+02  0.42377261849E+01  0.34954949119E+02  0.47000000000E+01 0. -1.
         -5    1    3    3    0  503  0.20968478496E+02 -0.34094021953E+02  0.22506846584E+03  0.22864816583E+03  0.47000000000E+01 0.  1.
          5    1    3    3  503    0 -0.22572646093E+02  0.37994247643E+02  0.92321591851E+02  0.10246196137E+03  0.47000000000E+01 0. -1.
         -5    1    4    4    0  502 -0.76527252730E+01 -0.37007778893E+02 -0.71389949276E+02  0.80912018639E+02  0.47000000000E+01 0.  1.
<mgrwt>
<rscale>  0 0.94398958E+02</rscale>
<asrwt>0</asrwt>
<pdfrwt beam="1">  1        4 0.53631917E-01 0.94423160E+02</pdfrwt>
<pdfrwt beam="2">  1       -4 0.15133789E-01 0.94423160E+02</pdfrwt>
<totfact> 0.19403049E+02</totfact>
</mgrwt>
</event>
<event>
 8    1  0.7366917E-004  0.1164968E+03  0.7546771E-02  0.1249235E+00
          1   -1    0    0  501    0  0.00000000000E+00  0.00000000000E+00  0.14698033067E+03  0.14698033067E+03  0.00000000000E+00 0. -1.
         -1   -1    0    0    0  501 -0.00000000000E+00 -0.00000000000E+00 -0.10150762444E+03  0.10150762444E+03  0.00000000000E+00 0.  1.
         23    2    1    2    0    0  0.19932926774E+02  0.67772893004E+02 -0.15466247520E+02  0.11751899687E+03  0.92633812494E+02 0.  0.
         23    2    1    2    0    0 -0.19932926774E+02 -0.67772893004E+02  0.60938953746E+02  0.13096895824E+03  0.91917492039E+02 0.  0.
          5    1    3    3  502    0  0.36690721802E+02  0.48483564169E+02  0.27824149184E+02  0.67030876011E+02  0.47000000000E+01 0. -1.
         -5    1    4    4    0  503  0.31923364127E+02 -0.11142254530E+02  0.22549317431E+01  0.34211485358E+02  0.47000000000E+01 0.  1.
          5    1    4    4  503    0 -0.51856290901E+02 -0.56630638474E+02  0.58684022003E+02  0.96757472882E+02  0.47000000000E+01 0. -1.
         -5    1    3    3    0  502 -0.16757795029E+02  0.19289328835E+02 -0.43290396705E+02  0.50488120860E+02  0.47000000000E+01 0.  1.
<mgrwt>
<rscale>  0 0.11635437E+03</rscale>
<asrwt>0</asrwt>
<pdfrwt beam="1">  1        1 0.22612359E-01 0.11649682E+03</pdfrwt>
<pdfrwt beam="2">  1       -1 0.15616558E-01 0.11649682E+03</pdfrwt>
<totfact> 0.61709573E+03</totfact>
</mgrwt>
</event>
<event>
 8    1  0.7366917E-004  0.1025515E+03  0.7546771E-02  0.1275423E+00
         -2   -1    0    0    0  501 -0.00000000000E+00  0.00000000000E+00  0.29516457368E+02  0.29516457368E+02  0.00000000000E+00 0.  1.
          2   -1    0    0  501    0  0.00000000000E+00 -0.00000000000E+00 -0.38645237111E+03  0.38645237111E+03  0.00000000000E+00 0. -1.
         23    2    1    2    0    0 -0.28795349712E+02  0.38176609269E+02 -0.23977276653E+03  0.26078301251E+03  0.90720308557E+02 0.  0.
         23    2    1    2    0    0  0.28795349712E+02 -0.38176609269E+02 -0.11716314722E+03  0.15518581597E+03  0.89826548148E+02 0.  0.
          5    1    4    4  502    0  0.53318730957E+02 -0.11786550429E+01 -0.83869176027E+02  0.99500778821E+02  0.47000000000E+01 0. -1.
         -5    1    3    3    0  503 -0.46402258612E+02  0.16168109884E+02 -0.55367122973E+02  0.74176719311E+02  0.47000000000E+01 0.  1.
          5    1    3    3  503    0  0.17606908900E+02  0.22008499386E+02 -0.18440564355E+03  0.18660629320E+03  0.47000000000E+01 0. -1.
         -5    1    4    4    0  502 -0.24523381245E+02 -0.36997954226E+02 -0.33293971188E+02  0.55685037147E+02  0.47000000000E+01 0.  1.
<mgrwt>
<rscale>  0 0.10235343E+03</rscale>
<asrwt>0</asrwt>
<pdfrwt beam="1">  1        2 0.59454211E-01 0.10255145E+03</pdfrwt>
<pdfrwt beam="2">  1       -2 0.45409934E-02 0.10255145E+03</pdfrwt>
<totfact> 0.17220085E+04</totfact>
</mgrwt>
</event>
<event>
 8    1  0.7366917E-004  0.9296121E+02  0.7546771E-02  0.1302090E+00
         -2   -1    0    0    0  501 -0.00000000000E+00  0.00000000000E+00  0.31813672947E+02  0.31813672947E+02  0.00000000000E+00 0.  1.
          2   -1    0    0  501    0  0.00000000000E+00 -0.00000000000E+00 -0.31150576032E+03  0.31150576032E+03  0.00000000000E+00 0. -1.
         23    2    1    2    0    0 -0.16682292185E+02  0.76449312058E+00 -0.21406269486E+03  0.22952574066E+03  0.81119325516E+02 0.  0.
         23    2    1    2    0    0  0.16682292185E+02 -0.76449312058E+00 -0.65629392506E+02  0.11379369260E+03  0.91448914662E+02 0.  0.
          5    1    3    3  502    0 -0.43378896261E+02 -0.12403903308E+02 -0.17134344855E+03  0.17724630552E+03  0.47000000000E+01 0. -1.
         -5    1    3    3    0  502  0.26696604075E+02  0.13168396429E+02 -0.42719246314E+02  0.52279435147E+02  0.47000000000E+01 0.  1.
          5    1    4    4  503    0 -0.14528253439E+00  0.44286290517E+02 -0.34193010799E+02  0.56147561142E+02  0.47000000000E+01 0. -1.
         -5    1    4    4    0  503  0.16827574720E+02 -0.45050783637E+02 -0.31436381707E+02  0.57646131458E+02  0.47000000000E+01 0.  1.
<mgrwt>
<rscale>  0 0.90315179E+02</rscale>
<asrwt>0</asrwt>
<pdfrwt beam="1">  1        2 0.47923962E-01 0.92961214E+02</pdfrwt>
<pdfrwt beam="2">  1       -2 0.48944113E-02 0.92961214E+02</pdfrwt>
<totfact> 0.19135690E+04</totfact>
</mgrwt>
</event>
<event>
 8    1  0.7366917E-004  0.9261975E+02  0.7546771E-02  0.1297515E+00
         -2   -1    0    0    0  501 -0.00000000000E+00  0.00000000000E+00  0.60344860555E+02  0.60344860555E+02  0.00000000000E+00 0.  1.
          2   -1    0    0  501    0  0.00000000000E+00 -0.00000000000E+00 -0.23892837654E+03  0.23892837654E+03  0.00000000000E+00 0. -1.
         23    2    1    2    0    0  0.98042356075E+01 -0.25098439494E+01 -0.18607656458E+03  0.20785308634E+03  0.92065168572E+02 0.  0.
         23    2    1    2    0    0 -0.98042356075E+01  0.25098439494E+01  0.74930485917E+01  0.91420150754E+02  0.90548748386E+02 0.  0.
          5    1    4    4  502    0 -0.13701108532E+02  0.43664454736E+02 -0.86181908264E+01  0.46804574515E+02  0.47000000000E+01 0. -1.
         -5    1    3    3    0  503  0.50231428920E+02 -0.79450152977E+01 -0.92468381948E+02  0.10563527526E+03  0.47000000000E+01 0.  1.
          5    1    3    3  503    0 -0.40427193313E+02  0.54351713483E+01 -0.93608182629E+02  0.10221781108E+03  0.47000000000E+01 0. -1.
         -5    1    4    4    0  502  0.38968729246E+01 -0.41154610787E+02  0.16111239418E+02  0.44615576239E+02  0.47000000000E+01 0.  1.
<mgrwt>
<rscale>  0 0.92240629E+02</rscale>
<asrwt>0</asrwt>
<pdfrwt beam="1">  1        2 0.36758212E-01 0.92619747E+02</pdfrwt>
<pdfrwt beam="2">  1       -2 0.92838247E-02 0.92619747E+02</pdfrwt>
<totfact> 0.95894020E+03</totfact>
</mgrwt>
</event>
<event>
 8    1  0.7366917E-004  0.1203137E+03  0.7546771E-02  0.1244376E+00
         -1   -1    0    0    0  501 -0.00000000000E+00  0.00000000000E+00  0.93991029793E+02  0.93991029793E+02  0.00000000000E+00 0.  1.
          1   -1    0    0  501    0  0.00000000000E+00 -0.00000000000E+00 -0.15060586317E+03  0.15060586317E+03  0.00000000000E+00 0. -1.
         23    2    1    2    0    0  0.32531082775E+02 -0.63517637014E+02 -0.42005269728E+02  0.12339941951E+03  0.91488865405E+02 0.  0.
         23    2    1    2    0    0 -0.32531082775E+02  0.63517637014E+02 -0.14609563646E+02  0.12119747345E+03  0.96863959558E+02 0.  0.
          5    1    4    4  502    0  0.11483333383E+02  0.63061322797E+02 -0.34183920005E+02  0.72795794970E+02  0.47000000000E+01 0. -1.
         -5    1    3    3    0  503  0.90322114410E+01 -0.54223337188E+02  0.18071263961E+02  0.58055247140E+02  0.47000000000E+01 0.  1.
          5    1    3    3  503    0  0.23498871334E+02 -0.92942998262E+01 -0.60076533689E+02  0.65344172375E+02  0.47000000000E+01 0. -1.
         -5    1    4    4    0  502 -0.44014416158E+02  0.45631421736E+00  0.19574356358E+02  0.48401678475E+02  0.47000000000E+01 0.  1.
<mgrwt>
<rscale>  0 0.11922819E+03</rscale>
<asrwt>0</asrwt>
<pdfrwt beam="1">  1        1 0.23170132E-01 0.12031371E+03</pdfrwt>
<pdfrwt beam="2">  1       -1 0.14460159E-01 0.12031371E+03</pdfrwt>
<totfact> 0.67646221E+03</totfact>
</mgrwt>
</event>
<event>
 8    1  0.7366917E-004  0.9467687E+02  0.7546771E-02  0.1293639E+00
         -2   -1    0    0    0  501 -0.00000000000E+00  0.00000000000E+00  0.77741077557E+02  0.77741077557E+02  0.00000000000E+00 0.  1.
          2   -1    0    0  501    0  0.00000000000E+00 -0.00000000000E+00 -0.11166541302E+03  0.11166541302E+03  0.00000000000E+00 0. -1.
         23    2    1    2    0    0 -0.11624065980E+02 -0.21486969300E+02 -0.16983514623E+02  0.96188095412E+02  0.91470766753E+02 0.  0.
         23    2    1    2    0    0  0.11624065980E+02  0.21486969300E+02 -0.16940820839E+02  0.93218395165E+02  0.88350829237E+02 0.  0.
          5    1    4    4  502    0 -0.26089110963E+02  0.37892486052E+02  0.47447631080E+01  0.46487471290E+02  0.47000000000E+01 0. -1.
         -5    1    4    4    0  502  0.37713176943E+02 -0.16405516752E+02 -0.21685583948E+02  0.46730923875E+02  0.47000000000E+01 0.  1.
          5    1    3    3  503    0  0.33767435012E+02  0.45349783698E+01 -0.25704068326E+02  0.42937103123E+02  0.47000000000E+01 0. -1.
         -5    1    3    3    0  503 -0.45391500992E+02 -0.26021947669E+02  0.87205537035E+01  0.53250992289E+02  0.47000000000E+01 0.  1.
<mgrwt>
<rscale>  0 0.93915038E+02</rscale>
<asrwt>0</asrwt>
<pdfrwt beam="1">  1        2 0.17179294E-01 0.94676871E+02</pdfrwt>
<pdfrwt beam="2">  1       -2 0.11960166E-01 0.94676871E+02</pdfrwt>
<totfact> 0.14836947E+04</totfact>
</mgrwt>
</event>
<event>
 8    1  0.7366917E-004  0.9571047E+02  0.7546771E-02  0.1290282E+00
         -2   -1    0    0    0  501 -0.00000000000E+00  0.00000000000E+00  0.56022221350E+02  0.56022221350E+02  0.00000000000E+00 0.  1.
          2   -1    0    0  501    0  0.00000000000E+00 -0.00000000000E+00 -0.16941785166E+03  0.16941785166E+03  0.00000000000E+00 0. -1.
         23    2    1    2    0    0 -0.99682568542E+01  0.20221897431E+02 -0.81576089236E+02  0.12575831134E+03  0.93017220209E+02 0.  0.
         23    2    1    2    0    0  0.99682568542E+01 -0.20221897431E+02 -0.31819541076E+02  0.99681761672E+02  0.91737010717E+02 0.  0.
          5    1    4    4  502    0  0.26440716472E+02 -0.47955420765E+02 -0.37576366112E+02  0.66580080794E+02  0.47000000000E+01 0. -1.
         -5    1    4    4    0  502 -0.16472459618E+02  0.27733523335E+02  0.57568250367E+01  0.33101680878E+02  0.47000000000E+01 0.  1.
          5    1    3    3  503    0 -0.62355422277E+01 -0.36123566299E+02 -0.45356960953E+02  0.58507588704E+02  0.47000000000E+01 0. -1.
         -5    1    3    3    0  503 -0.37327146265E+01  0.56345463730E+02 -0.36219128283E+02  0.67250722636E+02  0.47000000000E+01 0.  1.
<mgrwt>
<rscale>  0 0.95398020E+02</rscale>
<asrwt>0</asrwt>
<pdfrwt beam="1">  1        2 0.26064285E-01 0.95710472E+02</pdfrwt>
<pdfrwt beam="2">  1       -2 0.86188033E-02 0.95710472E+02</pdfrwt>
<totfact> 0.15576045E+04</totfact>
</mgrwt>
</event>
<event>
 8    1  0.7366917E-004  0.1239119E+03  0.7546771E-02  0.1239010E+00
          3   -1    0    0  501    0  0.00000000000E+00  0.00000000000E+00  0.11029657922E+03  0.11029657922E+03  0.00000000000E+00 0. -1.
         -3   -1    0    0    0  501 -0.00000000000E+00 -0.00000000000E+00 -0.13501226174E+03  0.13501226174E+03  0.00000000000E+00 0.  1.
         23    2    1    2    0    0  0.72544943890E+02  0.41532049664E+02  0.25446104187E+01  0.11843374321E+03  0.83859385018E+02 0.  0.
         23    2    1    2    0    0 -0.72544943890E+02 -0.41532049664E+02 -0.27260292943E+02  0.12687509774E+03  0.91468501808E+02 0.  0.
          5    1    3    3  502    0  0.12413056659E+02  0.52819729611E+02  0.13478120182E+02  0.56104879782E+02  0.47000000000E+01 0. -1.
         -5    1    4    4    0  503  0.17663951524E+01  0.24122831157E+02 -0.52612757098E+01  0.25195280450E+02  0.47000000000E+01 0.  1.
          5    1    4    4  503    0 -0.74311339043E+02 -0.65654880821E+02 -0.21999017233E+02  0.10167981730E+03  0.47000000000E+01 0. -1.
         -5    1    3    3    0  502  0.60131887232E+02 -0.11287679946E+02 -0.10933509763E+02  0.62328863429E+02  0.47000000000E+01 0.  1.
<mgrwt>
<rscale>  0 0.12251200E+03</rscale>
<asrwt>0</asrwt>
<pdfrwt beam="1">  1        3 0.16968705E-01 0.12391193E+03</pdfrwt>
<pdfrwt beam="2">  1       -3 0.20771117E-01 0.12391193E+03</pdfrwt>
<totfact> 0.14232211E+03</totfact>
</mgrwt>
</event>
<event>
 8    1  0.7366917E-004  0.1131603E+03  0.7546771E-02  0.1255308E+00
         -1   -1    0    0    0  501 -0.00000000000E+00  0.00000000000E+00  0.25422902971E+02  0.25422902971E+02  0.00000000000E+00 0.  1.
          1   -1    0    0  501    0  0.00000000000E+00 -0.00000000000E+00 -0.50665101277E+03  0.50665101277E+03  0.00000000000E+00 0. -1.
         23    2    1    2    0    0  0.54438402086E+02 -0.38922859533E+02 -0.27233661334E+03  0.29450093311E+03  0.89916850616E+02 0.  0.
         23    2    1    2    0    0 -0.54438402086E+02  0.38922859533E+02 -0.20889149646E+03  0.23757298263E+03  0.91250951580E+02 0.  0.
          5    1    3    3  502    0 -0.86674773546E+01 -0.47065326333E+02 -0.10844923792E+03  0.11863219340E+03  0.47000000000E+01 0. -1.
         -5    1    4    4    0  503 -0.23675750748E+02  0.42032583706E+02 -0.32330375582E+02  0.58263388605E+02  0.47000000000E+01 0.  1.
          5    1    4    4  503    0 -0.30762651338E+02 -0.31097241737E+01 -0.17656112088E+03  0.17930959402E+03  0.47000000000E+01 0. -1.
         -5    1    3    3    0  502  0.63105879440E+02  0.81424668006E+01 -0.16388737542E+03  0.17586873971E+03  0.47000000000E+01 0.  1.
<mgrwt>
<rscale>  0 0.11289113E+03</rscale>
<asrwt>0</asrwt>
<pdfrwt beam="1">  1        1 0.77946311E-01 0.11316035E+03</pdfrwt>
<pdfrwt beam="2">  1       -1 0.39112158E-02 0.11316035E+03</pdfrwt>
<totfact> 0.10589315E+04</totfact>
</mgrwt>
</event>
<event>
 8    1  0.7366917E-004  0.9442065E+02  0.7546771E-02  0.1294465E+00
         -2   -1    0    0    0  501 -0.00000000000E+00  0.00000000000E+00  0.34642465255E+03  0.34642465255E+03  0.00000000000E+00 0.  1.
          2   -1    0    0  501    0  0.00000000000E+00 -0.00000000000E+00 -0.32604024118E+02  0.32604024118E+02  0.00000000000E+00 0. -1.
         23    2    1    2    0    0 -0.99621248005E+01 -0.25528522042E+02  0.25174573050E+03  0.26887017612E+03  0.90356568166E+02 0.  0.
         23    2    1    2    0    0  0.99621248005E+01  0.25528522042E+02  0.62074897932E+02  0.11015850055E+03  0.86779334652E+02 0.  0.
          5    1    3    3  502    0 -0.40247844979E+02 -0.97871724831E+01  0.21291472835E+03  0.21695725228E+03  0.47000000000E+01 0. -1.
         -5    1    4    4    0  503 -0.88183978626E+01 -0.19652385053E+02  0.56549109531E+02  0.60694910560E+02  0.47000000000E+01 0.  1.
          5    1    4    4  503    0  0.18780522663E+02  0.45180907096E+02  0.55257884003E+01  0.49463589993E+02  0.47000000000E+01 0. -1.
         -5    1    3    3    0  502  0.30285720179E+02 -0.15741349559E+02  0.38831002155E+02  0.51912923834E+02  0.47000000000E+01 0.  1.
<mgrwt>
<rscale>  0 0.93554467E+02</rscale>
<asrwt>0</asrwt>
<pdfrwt beam="1">  1        2 0.50160040E-02 0.94420648E+02</pdfrwt>
<pdfrwt beam="2">  1       -2 0.53296098E-01 0.94420648E+02</pdfrwt>
<totfact> 0.48611027E+03</totfact>
</mgrwt>
</event>
<event>
 8    1  0.7366917E-004  0.1058054E+03  0.7546771E-02  0.1269463E+00
         -1   -1    0    0    0  501 -0.00000000000E+00  0.00000000000E+00  0.63406863047E+02  0.63406863047E+02  0.00000000000E+00 0.  1.
          1   -1    0    0  501    0  0.00000000000E+00 -0.00000000000E+00 -0.19994174996E+03  0.19994174996E+03  0.00000000000E+00 0. -1.
         23    2    1    2    0    0 -0.16721305316E+02 -0.38859966395E+02 -0.19802807922E+02  0.10580129491E+03  0.94931890131E+02 0.  0.
         23    2    1    2    0    0  0.16721305316E+02  0.38859966395E+02 -0.11673207899E+03  0.15754731810E+03  0.96979792400E+02 0.  0.
          5    1    3    3  502    0  0.12626055476E+02 -0.35935873552E+02 -0.50198859600E+02  0.63188763163E+02  0.47000000000E+01 0. -1.
         -5    1    3    3    0  502 -0.29347360792E+02 -0.29240928424E+01  0.30396051679E+02  0.42612531749E+02  0.47000000000E+01 0.  1.
          5    1    4    4  503    0  0.48745686684E+02  0.31072754892E+02 -0.10884802270E+03  0.12333547792E+03  0.47000000000E+01 0. -1.
         -5    1    4    4    0  503 -0.32024381368E+02  0.77872115031E+01 -0.78840562929E+01  0.34211840182E+02  0.47000000000E+01 0.  1.
<mgrwt>
<rscale>  0 0.10533378E+03</rscale>
<asrwt>0</asrwt>
<pdfrwt beam="1">  1        1 0.30760269E-01 0.10580538E+03</pdfrwt>
<pdfrwt beam="2">  1       -1 0.97549021E-02 0.10580538E+03</pdfrwt>
<totfact> 0.86157565E+03</totfact>
</mgrwt>
</event>
<event>
 8    1  0.7366917E-004  0.9727443E+02  0.7546771E-02  0.1286401E+00
          1   -1    0    0  501    0  0.00000000000E+00  0.00000000000E+00  0.36072729826E+02  0.36072729826E+02  0.00000000000E+00 0. -1.
         -1   -1    0    0    0  501 -0.00000000000E+00 -0.00000000000E+00 -0.26625485523E+03  0.26625485523E+03  0.00000000000E+00 0.  1.
         23    2    1    2    0    0 -0.28894453409E+02 -0.17189940977E+02 -0.93564115369E+02  0.13461713389E+03  0.90758721582E+02 0.  0.
         23    2    1    2    0    0  0.28894453409E+02  0.17189940977E+02 -0.13661801003E+03  0.16771045116E+03  0.91279413100E+02 0.  0.
          5    1    4    4  502    0  0.23794877779E+02 -0.43143073936E+01  0.42868092495E+01  0.25005523196E+02  0.47000000000E+01 0. -1.
         -5    1    4    4    0  502  0.50995756308E+01  0.21504248371E+02 -0.14090481928E+03  0.14270492797E+03  0.47000000000E+01 0.  1.
          5    1    3    3  503    0  0.15399388389E+02 -0.15960779498E+02  0.77321159716E+01  0.23953355972E+02  0.47000000000E+01 0. -1.
         -5    1    3    3    0  503 -0.44293841798E+02 -0.12291614792E+01 -0.10129623134E+03  0.11066377792E+03  0.47000000000E+01 0.  1.
<mgrwt>
<rscale>  0 0.97152091E+02</rscale>
<asrwt>0</asrwt>
<pdfrwt beam="1">  1        1 0.55496509E-02 0.97274430E+02</pdfrwt>
<pdfrwt beam="2">  1       -1 0.40962285E-01 0.97274430E+02</pdfrwt>
<totfact> 0.78220208E+03</totfact>
</mgrwt>
</event>
<event>
 7    1  0.7366917E-004  0.2588176E+03  0.7546771E-02  0.1122774E+00
         -1   -1    0    0    0  501 -0.00000000000E+00  0.00000000000E+00  0.13139795521E+04  0.13139795521E+04  0.00000000000E+00 0.  1.
          1   -1    0    0  501    0  0.00000000000E+00 -0.00000000000E+00 -0.43436156654E+02  0.43436156654E+02  0.00000000000E+00 0. -1.
         23    2    1    2    0    0  0.12955185835E+03  0.78670331202E+02  0.26454950293E+03  0.31866152809E+03  0.92660806039E+02 0.  0.
          5    1    3    3  502    0  0.98571345578E+02  0.68311286085E+01  0.13757518724E+03  0.16944614670E+03  0.47000000000E+01 0. -1.
         -5    1    1    2    0  503 -0.13693001247E+03 -0.13497149165E+03  0.63743698021E+03  0.66581913882E+03  0.47000000000E+01 0.  1.
          5    1    1    2  503    0  0.73781541208E+01  0.56301160448E+02  0.36855691235E+03  0.37293504189E+03  0.47000000000E+01 0. -1.
         -5    1    3    3    0  502  0.30980512768E+02  0.71839202593E+02  0.12697431568E+03  0.14921538139E+03  0.47000000000E+01 0.  1.
<mgrwt>
<rscale>  0 0.23557829E+03</rscale>
<asrwt>0</asrwt>
<pdfrwt beam="1">  1        1 0.66824866E-02 0.25881757E+03</pdfrwt>
<pdfrwt beam="2">  1       -1 0.20215067E+00 0.25881757E+03</pdfrwt>
<totfact> 0.18014653E+02</totfact>
</mgrwt>
</event>
<event>
 8    1  0.1022982E-003  0.9473011E+02  0.7546771E-02  0.1292231E+00
         -2   -1    0    0    0  501 -0.00000000000E+00  0.00000000000E+00  0.24669678801E+02  0.24669678801E+02  0.00000000000E+00 0.  1.
          2   -1    0    0  501    0  0.00000000000E+00 -0.00000000000E+00 -0.75327158173E+03  0.75327158173E+03  0.00000000000E+00 0. -1.
         23    2    1    2    0    0  0.16845025921E+02 -0.21422339317E+01 -0.64580952335E+03  0.65272025732E+03  0.93195760627E+02 0.  0.
         23    2    1    2    0    0 -0.16845025921E+02  0.21422339317E+01 -0.82792379577E+02  0.12522100321E+03  0.92397929980E+02 0.  0.
          5    1    3    3  502    0  0.27369153810E+02 -0.42719031055E+02 -0.41169987059E+03  0.41484076420E+03  0.47000000000E+01 0. -1.
         -5    1    3    3    0  502 -0.10524127889E+02  0.40576797124E+02 -0.23410965276E+03  0.23787949312E+03  0.47000000000E+01 0.  1.
          5    1    4    4  503    0  0.48703368927E+01 -0.26187587098E+02 -0.84951129320E+02  0.89153206741E+02  0.47000000000E+01 0. -1.
         -5    1    4    4    0  503 -0.21715362814E+02  0.28329821030E+02  0.21587497434E+01  0.36067796469E+02  0.47000000000E+01 0.  1.
<mgrwt>
<rscale>  0 0.94533298E+02</rscale>
<asrwt>0</asrwt>
<pdfrwt beam="1">  1        2 0.11588791E+00 0.94730111E+02</pdfrwt>
<pdfrwt beam="2">  1       -2 0.37953360E-02 0.94730111E+02</pdfrwt>
<totfact> 0.10643777E+04</totfact>
</mgrwt>
</event>
<event>
 8    1  0.7366917E-004  0.9617933E+02  0.7546771E-02  0.1289198E+00
          1   -1    0    0  501    0  0.00000000000E+00  0.00000000000E+00  0.78941333822E+03  0.78941333822E+03  0.00000000000E+00 0. -1.
         -1   -1    0    0    0  501 -0.00000000000E+00 -0.00000000000E+00 -0.12849453549E+02  0.12849453549E+02  0.00000000000E+00 0.  1.
         23    2    1    2    0    0  0.22287956729E+02  0.13479736786E+02  0.26411467603E+03  0.28108188375E+03  0.92585133581E+02 0.  0.
         23    2    1    2    0    0 -0.22287956729E+02 -0.13479736786E+02  0.51244920865E+03  0.52118090802E+03  0.91361321823E+02 0.  0.
          5    1    4    4  502    0 -0.51729553625E+02  0.14693206809E+02  0.28979574603E+03  0.29478042924E+03  0.47000000000E+01 0. -1.
         -5    1    3    3    0  503 -0.21119480152E+02 -0.90059994362E+01  0.16543421834E+02  0.28686499851E+02  0.47000000000E+01 0.  1.
          5    1    3    3  503    0  0.43407436881E+02  0.22485736223E+02  0.24757125419E+03  0.25239538390E+03  0.47000000000E+01 0. -1.
         -5    1    4    4    0  502  0.29441596896E+02 -0.28172943596E+02  0.22265346261E+03  0.22640047878E+03  0.47000000000E+01 0.  1.
<mgrwt>
<rscale>  0 0.95883593E+02</rscale>
<asrwt>0</asrwt>
<pdfrwt beam="1">  1        1 0.12144817E+00 0.96179329E+02</pdfrwt>
<pdfrwt beam="2">  1       -1 0.19768396E-02 0.96179329E+02</pdfrwt>
<totfact> 0.15212696E+04</totfact>
</mgrwt>
</event>
<event>
 8    1  0.7366917E-004  0.1215419E+03  0.7546771E-02  0.1240607E+00
          1   -1    0    0  501    0  0.00000000000E+00  0.00000000000E+00  0.35324184973E+02  0.35324184973E+02  0.00000000000E+00 0. -1.
         -1   -1    0    0    0  501 -0.00000000000E+00 -0.00000000000E+00 -0.53867323876E+03  0.53867323876E+03  0.00000000000E+00 0.  1.
         23    2    1    2    0    0 -0.56974349778E+02 -0.54645430988E+02 -0.38749310687E+03  0.40608362056E+03  0.92308176014E+02 0.  0.
         23    2    1    2    0    0  0.56974349778E+02  0.54645430988E+02 -0.11585594692E+03  0.16791380317E+03  0.92413447064E+02 0.  0.
          5    1    4    4  502    0  0.44027747511E+02 -0.82589699205E+01 -0.85683604404E+02  0.96800946270E+02  0.47000000000E+01 0.  1.
         -5    1    3    3    0  503 -0.26951109475E+02 -0.77679281598E+02 -0.28762337392E+03  0.29918176468E+03  0.47000000000E+01 0.  1.
          5    1    3    3  503    0 -0.30023240303E+02  0.23033850611E+02 -0.99869732943E+02  0.10690185588E+03  0.47000000000E+01 0. -1.
         -5    1    4    4    0  502  0.12946602267E+02  0.62904400908E+02 -0.30172342519E+02  0.71112856903E+02  0.47000000000E+01 0. -1.
<mgrwt>
<rscale>  0 0.12152194E+03</rscale>
<asrwt>0</asrwt>
<pdfrwt beam="1">  1        1 0.54344903E-02 0.12154195E+03</pdfrwt>
<pdfrwt beam="2">  1       -1 0.82872801E-01 0.12154195E+03</pdfrwt>
<totfact> 0.21658609E+03</totfact>
</mgrwt>
</event>
<event>
 8    1  0.7366917E-004  0.9042742E+02  0.7546771E-02  0.1302931E+00
          1   -1    0    0  501    0  0.00000000000E+00  0.00000000000E+00  0.37662522118E+03  0.37662522118E+03  0.00000000000E+00 0. -1.
         -1   -1    0    0    0  501 -0.00000000000E+00 -0.00000000000E+00 -0.36432370677E+02  0.36432370677E+02  0.00000000000E+00 0.  1.
         23    2    1    2    0    0 -0.72723314496E+01  0.51294219727E+01  0.30229178073E+03  0.31500857466E+03  0.88152615592E+02 0.  0.
         23    2    1    2    0    0  0.72723314496E+01 -0.51294219727E+01  0.37901069771E+02  0.98049017198E+02  0.89988448754E+02 0.  0.
          5    1    4    4  502    0  0.82978735580E+01  0.40724489740E+02  0.66531365076E+01  0.42352012887E+02  0.47000000000E+01 0. -1.
         -5    1    3    3    0  503  0.24618476138E+02  0.15609830986E+02  0.35962445123E+02  0.46530889203E+02  0.47000000000E+01 0.  1.
          5    1    3    3  503    0 -0.31890807588E+02 -0.10480409013E+02  0.26632933561E+03  0.26847768546E+03  0.47000000000E+01 0. -1.
         -5    1    4    4    0  502 -0.10255421084E+01 -0.45853911713E+02  0.31247933264E+02  0.55697004311E+02  0.47000000000E+01 0.  1.
<mgrwt>
<rscale>  0 0.89967237E+02</rscale>
<asrwt>0</asrwt>
<pdfrwt beam="1">  1        1 0.57942339E-01 0.90427422E+02</pdfrwt>
<pdfrwt beam="2">  1       -1 0.56049804E-02 0.90427422E+02</pdfrwt>
<totfact> 0.89336594E+03</totfact>
</mgrwt>
</event>
<event>
 8    1  0.7366917E-004  0.1104022E+03  0.7546771E-02  0.1261108E+00
         -1   -1    0    0    0  501 -0.00000000000E+00  0.00000000000E+00  0.43855474476E+02  0.43855474476E+02  0.00000000000E+00 0.  1.
          1   -1    0    0  501    0  0.00000000000E+00 -0.00000000000E+00 -0.33377542200E+03  0.33377542200E+03  0.00000000000E+00 0. -1.
         23    2    1    2    0    0 -0.56353738207E+02 -0.16845008796E+02 -0.22531562538E+03  0.24971541576E+03  0.90172943278E+02 0.  0.
         23    2    1    2    0    0  0.56353738207E+02  0.16845008796E+02 -0.64604322143E+02  0.12791548071E+03  0.93429939709E+02 0.  0.
          5    1    4    4  502    0  0.25018872788E+02  0.16006035322E+02 -0.85041585775E+02  0.90201432768E+02  0.47000000000E+01 0. -1.
         -5    1    3    3    0  503 -0.47462260696E+02  0.24952953359E+02 -0.68528396912E+02  0.87140961981E+02  0.47000000000E+01 0.  1.
          5    1    3    3  503    0 -0.88914775105E+01 -0.41797962155E+02 -0.15678722846E+03  0.16257445378E+03  0.47000000000E+01 0. -1.
         -5    1    4    4    0  502  0.31334865419E+02  0.83897347379E+00  0.20437263631E+02  0.37714047941E+02  0.47000000000E+01 0.  1.
<mgrwt>
<rscale>  0 0.10971017E+03</rscale>
<asrwt>0</asrwt>
<pdfrwt beam="1">  1        1 0.51350066E-01 0.11040223E+03</pdfrwt>
<pdfrwt beam="2">  1       -1 0.67469959E-02 0.11040223E+03</pdfrwt>
<totfact> 0.80073296E+03</totfact>
</mgrwt>
</event>
<event>
 8    1  0.7366917E-004  0.9622227E+02  0.7546771E-02  0.1288855E+00
          2   -1    0    0  501    0  0.00000000000E+00  0.00000000000E+00  0.14658980118E+03  0.14658980118E+03  0.00000000000E+00 0. -1.
         -2   -1    0    0    0  501 -0.00000000000E+00 -0.00000000000E+00 -0.65799943836E+02  0.65799943836E+02  0.00000000000E+00 0.  1.
         23    2    1    2    0    0  0.26446281839E+02  0.18822156944E+01  0.63371205933E+02  0.11460357842E+03  0.91733973456E+02 0.  0.
         23    2    1    2    0    0 -0.26446281839E+02 -0.18822156944E+01  0.17418651414E+02  0.97786166600E+02  0.92497439977E+02 0.  0.
          5    1    3    3  502    0 -0.23368665091E+02 -0.25080553647E+02  0.40675404946E+02  0.53401378698E+02  0.47000000000E+01 0. -1.
         -5    1    4    4    0  503 -0.35821868511E+02  0.23660627304E+02 -0.22927776673E+02  0.48895853518E+02  0.47000000000E+01 0.  1.
          5    1    4    4  503    0  0.93755866722E+01 -0.25542842999E+02  0.40346428087E+02  0.48890313082E+02  0.47000000000E+01 0. -1.
         -5    1    3    3    0  502  0.49814946931E+02  0.26962769341E+02  0.22695800988E+02  0.61202199721E+02  0.47000000000E+01 0.  1.
<mgrwt>
<rscale>  0 0.96038322E+02</rscale>
<asrwt>0</asrwt>
<pdfrwt beam="1">  1        2 0.22552277E-01 0.96222269E+02</pdfrwt>
<pdfrwt beam="2">  1       -2 0.10123068E-01 0.96222269E+02</pdfrwt>
<totfact> 0.14232942E+04</totfact>
</mgrwt>
</event>
<event>
 8    1  0.7366917E-004  0.9045468E+02  0.7546771E-02  0.1302576E+00
          2   -1    0    0  501    0  0.00000000000E+00  0.00000000000E+00  0.58257955039E+03  0.58257955039E+03  0.00000000000E+00 0. -1.
         -2   -1    0    0    0  501 -0.00000000000E+00 -0.00000000000E+00 -0.16116386347E+02  0.16116386347E+02  0.00000000000E+00 0.  1.
         23    2    1    2    0    0 -0.59619029481E+01  0.13072992331E+02  0.16876838544E+03  0.19084402043E+03  0.87933069975E+02 0.  0.
         23    2    1    2    0    0  0.59619029481E+01 -0.13072992331E+02  0.39769477860E+03  0.40785191630E+03  0.89306222015E+02 0.  0.
          5    1    3    3  502    0 -0.29257648819E+02  0.82088681378E+01  0.16304637359E+03  0.16592047936E+03  0.47000000000E+01 0. -1.
         -5    1    3    3    0  502  0.23295745870E+02  0.48641241936E+01  0.57220118483E+01  0.24923541069E+02  0.47000000000E+01 0.  1.
          5    1    4    4  503    0  0.37858361202E+01 -0.50157341397E+02  0.17976702747E+03  0.18673073024E+03  0.47000000000E+01 0. -1.
         -5    1    4    4    0  503  0.21760668280E+01  0.37084349065E+02  0.21792775113E+03  0.22112118606E+03  0.47000000000E+01 0.  1.
<mgrwt>
<rscale>  0 0.90113894E+02</rscale>
<asrwt>0</asrwt>
<pdfrwt beam="1">  1        2 0.89627607E-01 0.90454678E+02</pdfrwt>
<pdfrwt beam="2">  1       -2 0.24794445E-02 0.90454678E+02</pdfrwt>
<totfact> 0.26483617E+04</totfact>
</mgrwt>
</event>
<event>
 7    1  0.7366917E-004  0.1636029E+03  0.7546771E-02  0.1194315E+00
          2   -1    0    0  501    0  0.00000000000E+00  0.00000000000E+00  0.52048453800E+03  0.52048453800E+03  0.00000000000E+00 0. -1.
         -2   -1    0    0    0  501 -0.00000000000E+00 -0.00000000000E+00 -0.79840385081E+02  0.79840385081E+02  0.00000000000E+00 0.  1.
         23    2    1    2    0    0  0.76878442803E+02 -0.52386451996E+02  0.20905926988E+01  0.13224893931E+03  0.93972208922E+02 0.  0.
          5    1    3    3  502    0  0.59680260805E+02 -0.38365589925E+02  0.44694084607E+02  0.83983946197E+02  0.47000000000E+01 0. -1.
         -5    1    1    2    0  503  0.11450868051E+02  0.71059120020E+02  0.16838692042E+03  0.18318505912E+03  0.47000000000E+01 0.  1.
          5    1    1    2  503    0 -0.88329310854E+02 -0.18672668024E+02  0.27016663981E+03  0.28489092466E+03  0.47000000000E+01 0. -1.
         -5    1    3    3    0  502  0.17198181998E+02 -0.14020862071E+02 -0.42603491908E+02  0.48264993111E+02  0.47000000000E+01 0.  1.
<mgrwt>
<rscale>  0 0.15512353E+03</rscale>
<asrwt>0</asrwt>
<pdfrwt beam="1">  1        2 0.80074542E-01 0.16360288E+03</pdfrwt>
<pdfrwt beam="2">  1       -2 0.12283136E-01 0.16360288E+03</pdfrwt>
<totfact> 0.27804562E+03</totfact>
</mgrwt>
</event>
<event>
 8    1  0.7366917E-004  0.1048733E+03  0.7546771E-02  0.1270639E+00
          2   -1    0    0  501    0  0.00000000000E+00  0.00000000000E+00  0.64725469762E+02  0.64725469762E+02  0.00000000000E+00 0. -1.
         -2   -1    0    0    0  501 -0.00000000000E+00 -0.00000000000E+00 -0.17794965522E+03  0.17794965522E+03  0.00000000000E+00 0.  1.
         23    2    1    2    0    0 -0.11265806980E+02 -0.50230594797E+02 -0.29325298225E+02  0.10837164748E+03  0.90743648815E+02 0.  0.
         23    2    1    2    0    0  0.11265806980E+02  0.50230594797E+02 -0.83898887236E+02  0.13430347751E+03  0.91369413541E+02 0.  0.
          5    1    3    3  502    0  0.34023080017E+02 -0.10156323776E+01 -0.22287557236E+02  0.40956399872E+02  0.47000000000E+01 0. -1.
         -5    1    3    3    0  502 -0.45288886997E+02 -0.49214962420E+02 -0.70377409895E+01  0.67415247605E+02  0.47000000000E+01 0.  1.
          5    1    4    4  503    0  0.51054390728E+02  0.22692052725E+02 -0.48943044139E+02  0.74424402175E+02  0.47000000000E+01 0. -1.
         -5    1    4    4    0  503 -0.39788583748E+02  0.27538542072E+02 -0.34955843097E+02  0.59879075333E+02  0.47000000000E+01 0.  1.
<mgrwt>
<rscale>  0 0.10473681E+03</rscale>
<asrwt>0</asrwt>
<pdfrwt beam="1">  1        2 0.99577649E-02 0.10487326E+03</pdfrwt>
<pdfrwt beam="2">  1       -2 0.27376869E-01 0.10487326E+03</pdfrwt>
<totfact> 0.71913305E+03</totfact>
</mgrwt>
</event>
<event>
 8    1  0.7366917E-004  0.1072255E+03  0.7546771E-02  0.1273915E+00
         -1   -1    0    0    0  501 -0.00000000000E+00  0.00000000000E+00  0.17268640480E+02  0.17268640480E+02  0.00000000000E+00 0.  1.
          1   -1    0    0  501    0  0.00000000000E+00 -0.00000000000E+00 -0.62018484644E+03  0.62018484644E+03  0.00000000000E+00 0. -1.
         23    2    1    2    0    0 -0.39203141672E+01  0.44277118665E+01 -0.19155515638E+03  0.21234736387E+03  0.91449721225E+02 0.  0.
         23    2    1    2    0    0  0.39203141672E+01 -0.44277118665E+01 -0.41136104957E+03  0.42510612304E+03  0.10706226808E+03 0.  0.
          5    1    4    4  502    0  0.27722559064E+02 -0.43111779196E+02 -0.30566303004E+03  0.30996635901E+03  0.47000000000E+01 0. -1.
         -5    1    4    4    0  502 -0.23802244897E+02  0.38684067329E+02 -0.10569801953E+03  0.11513976403E+03  0.47000000000E+01 0.  1.
          5    1    3    3  503    0  0.38300890802E+02  0.23362687436E+02 -0.92068484706E+02  0.10252545672E+03  0.47000000000E+01 0. -1.
         -5    1    3    3    0  503 -0.42221204969E+02 -0.18934975569E+02 -0.99486671677E+02  0.10982190715E+03  0.47000000000E+01 0.  1.
<mgrwt>
<rscale>  0 0.10309691E+03</rscale>
<asrwt>0</asrwt>
<pdfrwt beam="1">  1        1 0.95413064E-01 0.10722548E+03</pdfrwt>
<pdfrwt beam="2">  1       -1 0.26567136E-02 0.10722548E+03</pdfrwt>
<totfact> 0.14129483E+04</totfact>
</mgrwt>
</event>
<event>
 8    1  0.7366917E-004  0.1598760E+03  0.7546771E-02  0.1189762E+00
          1   -1    0    0  501    0  0.00000000000E+00  0.00000000000E+00  0.14402696367E+03  0.14402696367E+03  0.00000000000E+00 0. -1.
         -1   -1    0    0    0  501 -0.00000000000E+00 -0.00000000000E+00 -0.37663716001E+03  0.37663716001E+03  0.00000000000E+00 0.  1.
         23    2    1    2    0    0 -0.12552854375E+03 -0.25637268468E+02 -0.30675435099E+03  0.34443215868E+03  0.90114345425E+02 0.  0.
         23    2    1    2    0    0  0.12552854375E+03  0.25637268468E+02  0.74144154652E+02  0.17623196500E+03  0.95632970194E+02 0.  0.
          5    1    4    4  502    0  0.33832310193E+02  0.29083382165E+02  0.71382676877E+02  0.84309221851E+02  0.47000000000E+01 0. -1.
         -5    1    3    3    0  503 -0.95838354968E+02 -0.52683402635E+02 -0.26290956325E+03  0.28478774490E+03  0.47000000000E+01 0.  1.
          5    1    3    3  503    0 -0.29690188784E+02  0.27046134167E+02 -0.43844787737E+02  0.59644413779E+02  0.47000000000E+01 0. -1.
         -5    1    4    4    0  502  0.91696233559E+02 -0.34461136971E+01  0.27614777749E+01  0.91922743149E+02  0.47000000000E+01 0.  1.
<mgrwt>
<rscale>  0 0.15906016E+03</rscale>
<asrwt>0</asrwt>
<pdfrwt beam="1">  1        1 0.22157995E-01 0.15987605E+03</pdfrwt>
<pdfrwt beam="2">  1       -1 0.57944177E-01 0.15987605E+03</pdfrwt>
<totfact> 0.69386361E+02</totfact>
</mgrwt>
</event>
<event>
 8    1  0.7366917E-004  0.9958154E+02  0.7546771E-02  0.1281325E+00
          2   -1    0    0  501    0  0.00000000000E+00  0.00000000000E+00  0.51370892154E+03  0.51370892154E+03  0.00000000000E+00 0. -1.
         -2   -1    0    0    0  501 -0.00000000000E+00 -0.00000000000E+00 -0.27993713375E+02  0.27993713375E+02  0.00000000000E+00 0.  1.
         23    2    1    2    0    0 -0.29917354907E+02  0.25786729039E+02  0.91250543381E+02  0.13486254869E+03  0.91111151096E+02 0.  0.
         23    2    1    2    0    0  0.29917354907E+02 -0.25786729039E+02  0.39446466479E+03  0.40684008622E+03  0.91413787107E+02 0.  0.
          5    1    3    3  502    0 -0.57299322134E+02  0.24996331278E+01  0.76494057777E+02  0.95722992839E+02  0.47000000000E+01 0. -1.
         -5    1    4    4    0  503  0.45017094437E+02 -0.71049745959E+00  0.35286880204E+03  0.35576048832E+03  0.47000000000E+01 0.  1.
          5    1    4    4  503    0 -0.15099739531E+02 -0.25076231579E+02  0.41595862753E+02  0.51079597906E+02  0.47000000000E+01 0. -1.
         -5    1    3    3    0  502  0.27381967228E+02  0.23287095911E+02  0.14756485604E+02  0.39139555856E+02  0.47000000000E+01 0.  1.
<mgrwt>
<rscale>  0 0.99512036E+02</rscale>
<asrwt>0</asrwt>
<pdfrwt beam="1">  1        2 0.79032135E-01 0.99581544E+02</pdfrwt>
<pdfrwt beam="2">  1       -2 0.43067255E-02 0.99581544E+02</pdfrwt>
<totfact> 0.13700023E+04</totfact>
</mgrwt>
</event>
<event>
 8    1  0.7366917E-004  0.1452855E+03  0.7546771E-02  0.1206973E+00
          1   -1    0    0  501    0  0.00000000000E+00  0.00000000000E+00  0.15378289994E+03  0.15378289994E+03  0.00000000000E+00 0. -1.
         -1   -1    0    0    0  501 -0.00000000000E+00 -0.00000000000E+00 -0.18487657342E+03  0.18487657342E+03  0.00000000000E+00 0.  1.
         23    2    1    2    0    0 -0.24913666035E+02  0.11032524055E+03  0.71986403898E+02  0.16052082162E+03  0.88275378044E+02 0.  0.
         23    2    1    2    0    0  0.24913666035E+02 -0.11032524055E+03 -0.10308007738E+03  0.17813865174E+03  0.91189513835E+02 0.  0.
          5    1    4    4  502    0 -0.20676773712E+02 -0.93942278972E+02 -0.62928409008E+02  0.11504240701E+03  0.47000000000E+01 0. -1.
         -5    1    3    3    0  503 -0.34471174108E+02  0.31342377262E+02 -0.81163717928E+01  0.47524435272E+02  0.47000000000E+01 0.  1.
          5    1    3    3  503    0  0.95575080727E+01  0.78982863288E+02  0.80102775691E+02  0.11299638635E+03  0.47000000000E+01 0. -1.
         -5    1    4    4    0  502  0.45590439747E+02 -0.16382961578E+02 -0.40151668377E+02  0.63096244737E+02  0.47000000000E+01 0.  1.
<mgrwt>
<rscale>  0 0.14483058E+03</rscale>
<asrwt>0</asrwt>
<pdfrwt beam="1">  1        1 0.23658908E-01 0.14528550E+03</pdfrwt>
<pdfrwt beam="2">  1       -1 0.28442550E-01 0.14528550E+03</pdfrwt>
<totfact> 0.22422747E+03</totfact>
</mgrwt>
</event>
<event>
 8    1  0.7366917E-004  0.1173745E+03  0.7546771E-02  0.1248391E+00
          1   -1    0    0  501    0  0.00000000000E+00  0.00000000000E+00  0.29441020822E+02  0.29441020822E+02  0.00000000000E+00 0. -1.
         -1   -1    0    0    0  501 -0.00000000000E+00 -0.00000000000E+00 -0.46201480011E+03  0.46201480011E+03  0.00000000000E+00 0.  1.
         23    2    1    2    0    0  0.55690032144E+02  0.39988023379E+02 -0.20056723881E+03  0.23238758772E+03  0.95269890030E+02 0.  0.
         23    2    1    2    0    0 -0.55690032144E+02 -0.39988023379E+02 -0.23200654047E+03  0.25906823321E+03  0.92676280373E+02 0.  0.
          5    1    3    3  502    0 -0.30458163102E+01 -0.26655536571E+02 -0.34102723279E+02  0.43644935123E+02  0.47000000000E+01 0. -1.
         -5    1    3    3    0  502  0.58735848454E+02  0.66643559950E+02 -0.16646451553E+03  0.18874265259E+03  0.47000000000E+01 0.  1.
          5    1    4    4  503    0 -0.69723413581E+02 -0.72282772730E+01 -0.99707707878E+02  0.12197261743E+03  0.47000000000E+01 0. -1.
         -5    1    4    4    0  503  0.14033381437E+02 -0.32759746106E+02 -0.13229883260E+03  0.13709561578E+03  0.47000000000E+01 0.  1.
<mgrwt>
<rscale>  0 0.11684716E+03</rscale>
<asrwt>0</asrwt>
<pdfrwt beam="1">  1        1 0.45293882E-02 0.11737450E+03</pdfrwt>
<pdfrwt beam="2">  1       -1 0.71079194E-01 0.11737450E+03</pdfrwt>
<totfact> 0.37753874E+03</totfact>
</mgrwt>
</event>
<event>
 8    1  0.7366917E-004  0.1148208E+03  0.7546771E-02  0.1252203E+00
          2   -1    0    0  501    0  0.00000000000E+00  0.00000000000E+00  0.14539400215E+04  0.14539400215E+04  0.00000000000E+00 0. -1.
         -2   -1    0    0    0  501 -0.00000000000E+00 -0.00000000000E+00 -0.90123246123E+01  0.90123246123E+01  0.00000000000E+00 0.  1.
         23    2    1    2    0    0  0.14282912992E+02  0.64475900017E+02  0.72805453512E+03  0.73705306359E+03  0.93929064456E+02 0.  0.
         23    2    1    2    0    0 -0.14282912992E+02 -0.64475900017E+02  0.71687316175E+03  0.72589928250E+03  0.93067153277E+02 0.  0.
          5    1    4    4  502    0  0.14972877905E+02 -0.65517733940E+02  0.63951496893E+03  0.64305384379E+03  0.47000000000E+01 0. -1.
         -5    1    3    3    0  503 -0.58100750472E+01  0.85179031507E+02  0.55458236830E+03  0.56113538260E+03  0.47000000000E+01 0.  1.
          5    1    3    3  503    0  0.20092988040E+02 -0.20703131489E+02  0.17347216682E+03  0.17591768099E+03  0.47000000000E+01 0. -1.
         -5    1    4    4    0  502 -0.29255790897E+02  0.10418339224E+01  0.77358192818E+02  0.82845438710E+02  0.47000000000E+01 0.  1.
<mgrwt>
<rscale>  0 0.11464438E+03</rscale>
<asrwt>0</asrwt>
<pdfrwt beam="1">  1        2 0.22368289E+00 0.11482078E+03</pdfrwt>
<pdfrwt beam="2">  1       -2 0.13865126E-02 0.11482078E+03</pdfrwt>
<totfact> 0.18262848E+04</totfact>
</mgrwt>
</event>
<event>
 8    1  0.7366917E-004  0.1051930E+03  0.7546771E-02  0.1270871E+00
          2   -1    0    0  501    0  0.00000000000E+00  0.00000000000E+00  0.76346345104E+03  0.76346345104E+03  0.00000000000E+00 0. -1.
         -2   -1    0    0    0  501 -0.00000000000E+00 -0.00000000000E+00 -0.15786307796E+02  0.15786307796E+02  0.00000000000E+00 0.  1.
         23    2    1    2    0    0 -0.21951012551E+02  0.37824098421E+02  0.49436205708E+03  0.50496142576E+03  0.93164846648E+02 0.  0.
         23    2    1    2    0    0  0.21951012551E+02 -0.37824098421E+02  0.25331508616E+03  0.27428833307E+03  0.95671560092E+02 0.  0.
          5    1    4    4  502    0  0.38437760607E+02  0.20834182176E+02  0.99915043072E+02  0.10916331994E+03  0.47000000000E+01 0. -1.
         -5    1    4    4    0  502 -0.16486748056E+02 -0.58658280597E+02  0.15340004309E+03  0.16512501314E+03  0.47000000000E+01 0.  1.
          5    1    3    3  503    0 -0.25323447752E+00  0.61595777382E+02  0.40850650455E+03  0.41315101135E+03  0.47000000000E+01 0. -1.
         -5    1    3    3    0  503 -0.21697778073E+02 -0.23771678961E+02  0.85855552531E+02  0.91810414411E+02  0.47000000000E+01 0.  1.
<mgrwt>
<rscale>  0 0.10461964E+03</rscale>
<asrwt>0</asrwt>
<pdfrwt beam="1">  1        2 0.11745589E+00 0.10519295E+03</pdfrwt>
<pdfrwt beam="2">  1       -2 0.24286633E-02 0.10519295E+03</pdfrwt>
<totfact> 0.20255436E+04</totfact>
</mgrwt>
</event>
<event>
 8    1  0.7366917E-004  0.1057697E+03  0.7546771E-02  0.1270264E+00
          1   -1    0    0  501    0  0.00000000000E+00  0.00000000000E+00  0.15291474831E+03  0.15291474831E+03  0.00000000000E+00 0. -1.
         -1   -1    0    0    0  501 -0.00000000000E+00 -0.00000000000E+00 -0.82095216940E+02  0.82095216940E+02  0.00000000000E+00 0.  1.
         23    2    1    2    0    0 -0.51219304998E+02 -0.13521867968E+02  0.78358990565E+02  0.12897186315E+03  0.87677545377E+02 0.  0.
         23    2    1    2    0    0  0.51219304998E+02  0.13521867968E+02 -0.75394591902E+01  0.10603810211E+03  0.91547679032E+02 0.  0.
          5    1    3    3  502    0 -0.71384570686E+02 -0.26241597818E+02  0.47891968399E+02  0.90000605694E+02  0.47000000000E+01 0. -1.
         -5    1    4    4    0  503  0.73128244581E+02  0.12096352996E+02  0.13244405177E+02  0.75442469338E+02  0.47000000000E+01 0.  1.
          5    1    4    4  503    0 -0.21908939583E+02  0.14255149722E+01 -0.20783864367E+02  0.30595632771E+02  0.47000000000E+01 0. -1.
         -5    1    3    3    0  502  0.20165265689E+02  0.12719729851E+02  0.30467022166E+02  0.38971257452E+02  0.47000000000E+01 0.  1.
<mgrwt>
<rscale>  0 0.10492686E+03</rscale>
<asrwt>0</asrwt>
<pdfrwt beam="1">  1        1 0.23525346E-01 0.10576973E+03</pdfrwt>
<pdfrwt beam="2">  1       -1 0.12630033E-01 0.10576973E+03</pdfrwt>
<totfact> 0.81029176E+03</totfact>
</mgrwt>
</event>
<event>
 8    1  0.7366917E-004  0.1223575E+03  0.7546771E-02  0.1242609E+00
         -1   -1    0    0    0  501 -0.00000000000E+00  0.00000000000E+00  0.44380499269E+02  0.44380499269E+02  0.00000000000E+00 0.  1.
          1   -1    0    0  501    0  0.00000000000E+00 -0.00000000000E+00 -0.43022994168E+03  0.43022994168E+03  0.00000000000E+00 0. -1.
         23    2    1    2    0    0 -0.60285579383E+02 -0.35212422276E+02 -0.75259145458E+02  0.14364992131E+03  0.10048430302E+03 0.  0.
         23    2    1    2    0    0  0.60285579383E+02  0.35212422276E+02 -0.31059029696E+03  0.33096051964E+03  0.90522191949E+02 0.  0.
          5    1    4    4  502    0  0.55098360807E+02 -0.18686835208E+02 -0.18820989586E+03  0.19705350054E+03  0.47000000000E+01 0. -1.
         -5    1    3    3    0  503 -0.35421826781E+02 -0.41005445762E+02 -0.96057462745E+02  0.11038694915E+03  0.47000000000E+01 0.  1.
          5    1    3    3  503    0 -0.24863752602E+02  0.57930234865E+01  0.20798317286E+02  0.33262972154E+02  0.47000000000E+01 0. -1.
         -5    1    4    4    0  502  0.51872185761E+01  0.53899257484E+02 -0.12238040110E+03  0.13390701911E+03  0.47000000000E+01 0.  1.
<mgrwt>
<rscale>  0 0.12029604E+03</rscale>
<asrwt>0</asrwt>
<pdfrwt beam="1">  1        1 0.66189221E-01 0.12235751E+03</pdfrwt>
<pdfrwt beam="2">  1       -1 0.68277692E-02 0.12235751E+03</pdfrwt>
<totfact> 0.57684751E+03</totfact>
</mgrwt>
</event>
<event>
 8    1  0.7366917E-004  0.1059385E+03  0.7546771E-02  0.1268397E+00
         -1   -1    0    0    0  501 -0.00000000000E+00  0.00000000000E+00  0.14409155307E+02  0.14409155307E+02  0.00000000000E+00 0.  1.
          1   -1    0    0  501    0  0.00000000000E+00 -0.00000000000E+00 -0.77724686764E+03  0.77724686764E+03  0.00000000000E+00 0. -1.
         23    2    1    2    0    0 -0.22157454194E+02 -0.48330850046E+02 -0.38668916160E+03  0.40093824231E+03  0.91630467686E+02 0.  0.
         23    2    1    2    0    0  0.22157454194E+02  0.48330850046E+02 -0.37614855073E+03  0.39071778063E+03  0.91355503618E+02 0.  0.
          5    1    3    3  502    0 -0.12714465484E+02 -0.74553227900E+02 -0.31227205015E+03  0.32133435037E+03  0.47000000000E+01 0. -1.
         -5    1    4    4    0  503  0.52717652642E+02  0.36606083229E+02 -0.31178044135E+03  0.31835246164E+03  0.47000000000E+01 0. -1.
          5    1    4    4  503    0 -0.30560198448E+02  0.11724766817E+02 -0.64368109386E+02  0.72365318987E+02  0.47000000000E+01 0.  1.
         -5    1    3    3    0  502 -0.94429887098E+01  0.26222377853E+02 -0.74417111449E+02  0.79603891943E+02  0.47000000000E+01 0.  1.
<mgrwt>
<rscale>  0 0.10587902E+03</rscale>
<asrwt>0</asrwt>
<pdfrwt beam="1">  1        1 0.11957645E+00 0.10593850E+03</pdfrwt>
<pdfrwt beam="2">  1       -1 0.22167930E-02 0.10593850E+03</pdfrwt>
<totfact> 0.13312950E+04</totfact>
</mgrwt>
</event>
<event>
 8    1  0.7366917E-004  0.9524255E+02  0.7546771E-02  0.1291068E+00
          1   -1    0    0  501    0  0.00000000000E+00  0.00000000000E+00  0.10254182569E+04  0.10254182569E+04  0.00000000000E+00 0. -1.
         -1   -1    0    0    0  501 -0.00000000000E+00 -0.00000000000E+00 -0.99213279433E+01  0.99213279433E+01  0.00000000000E+00 0.  1.
         23    2    1    2    0    0 -0.12104522319E+02  0.23621928778E+02  0.68192189306E+03  0.68843405194E+03  0.90661241183E+02 0.  0.
         23    2    1    2    0    0  0.12104522319E+02 -0.23621928778E+02  0.33357503593E+03  0.34690553294E+03  0.91469280134E+02 0.  0.
          5    1    4    4  502    0  0.12840173879E+00 -0.56275271894E+02  0.15627561519E+03  0.16616582265E+03  0.47000000000E+01 0.  1.
         -5    1    3    3    0  503  0.17429440031E+02 -0.28602842783E+02  0.21361972131E+03  0.21628079741E+03  0.47000000000E+01 0.  1.
          5    1    3    3  503    0 -0.29533962350E+02  0.52224771561E+02  0.46830217175E+03  0.47215325453E+03  0.47000000000E+01 0. -1.
         -5    1    4    4    0  502  0.11976120580E+02  0.32653343116E+02  0.17729942074E+03  0.18073971029E+03  0.47000000000E+01 0. -1.
<mgrwt>
<rscale>  0 0.95048020E+02</rscale>
<asrwt>0</asrwt>
<pdfrwt beam="1">  1        1 0.15775657E+00 0.95242555E+02</pdfrwt>
<pdfrwt beam="2">  1       -1 0.15263590E-02 0.95242555E+02</pdfrwt>
<totfact> 0.14560119E+04</totfact>
</mgrwt>
</event>
<event>
 8    1  0.7366917E-004  0.1027505E+03  0.7546771E-02  0.1275797E+00
          1   -1    0    0  501    0  0.00000000000E+00  0.00000000000E+00  0.15359211338E+03  0.15359211338E+03  0.00000000000E+00 0. -1.
         -1   -1    0    0    0  501 -0.00000000000E+00 -0.00000000000E+00 -0.72879897509E+02  0.72879897509E+02  0.00000000000E+00 0.  1.
         23    2    1    2    0    0  0.26929438489E+02 -0.26474154353E+02  0.72366597114E+02  0.12567651190E+03  0.95559331092E+02 0.  0.
         23    2    1    2    0    0 -0.26929438489E+02  0.26474154353E+02  0.83456187542E+01  0.10079549899E+03  0.93080651899E+02 0.  0.
          5    1    4    4  502    0 -0.52477750943E+02  0.34245973647E+02  0.26463839106E+02  0.68184498497E+02  0.47000000000E+01 0. -1.
         -5    1    4    4    0  502  0.25548312454E+02 -0.77718192940E+01 -0.18118220352E+02  0.32611000492E+02  0.47000000000E+01 0.  1.
          5    1    3    3  503    0 -0.15490294592E+02  0.28718711419E+02  0.24204783766E+02  0.40898351669E+02  0.47000000000E+01 0. -1.
         -5    1    3    3    0  503  0.42419733081E+02 -0.55192865771E+02  0.48161813348E+02  0.84778160228E+02  0.47000000000E+01 0.  1.
<mgrwt>
<rscale>  0 0.10217032E+03</rscale>
<asrwt>0</asrwt>
<pdfrwt beam="1">  1        1 0.23629556E-01 0.10275048E+03</pdfrwt>
<pdfrwt beam="2">  1       -1 0.11212292E-01 0.10275048E+03</pdfrwt>
<totfact> 0.96463148E+03</totfact>
</mgrwt>
</event>
<event>
 8    1  0.7366917E-004  0.1158987E+03  0.7546771E-02  0.1252098E+00
          1   -1    0    0  501    0  0.00000000000E+00  0.00000000000E+00  0.15668566271E+04  0.15668566271E+04  0.00000000000E+00 0. -1.
         -1   -1    0    0    0  501 -0.00000000000E+00 -0.00000000000E+00 -0.99240722785E+01  0.99240722785E+01  0.00000000000E+00 0.  1.
         23    2    1    2    0    0 -0.38682462355E+02  0.58356023465E+02  0.46601365402E+03  0.48020956972E+03  0.92362041746E+02 0.  0.
         23    2    1    2    0    0  0.38682462355E+02 -0.58356023465E+02  0.10909189008E+04  0.10965711296E+04  0.86385391653E+02 0.  0.
          5    1    4    4  502    0  0.31996317259E+02 -0.80931738292E+02  0.86577771386E+03  0.87015334879E+03  0.47000000000E+01 0. -1.
         -5    1    4    4    0  502  0.66861450962E+01  0.22575714827E+02  0.22514118693E+03  0.22641778086E+03  0.47000000000E+01 0.  1.
          5    1    3    3  503    0 -0.13029025368E+02  0.75199626070E+02  0.40021447331E+03  0.40745362179E+03  0.47000000000E+01 0. -1.
         -5    1    3    3    0  503 -0.25653436988E+02 -0.16843602605E+02  0.65799180704E+02  0.72755947931E+02  0.47000000000E+01 0.  1.
<mgrwt>
<rscale>  0 0.11470428E+03</rscale>
<asrwt>0</asrwt>
<pdfrwt beam="1">  1        1 0.24105467E+00 0.11589868E+03</pdfrwt>
<pdfrwt beam="2">  1       -1 0.15267816E-02 0.11589868E+03</pdfrwt>
<totfact> 0.64079004E+03</totfact>
</mgrwt>
</event>
<event>
 8    1  0.7366917E-004  0.9367091E+02  0.7546771E-02  0.1294642E+00
          2   -1    0    0  501    0  0.00000000000E+00  0.00000000000E+00  0.59017941537E+03  0.59017941537E+03  0.00000000000E+00 0. -1.
         -2   -1    0    0    0  501 -0.00000000000E+00 -0.00000000000E+00 -0.98728803345E+02  0.98728803345E+02  0.00000000000E+00 0.  1.
         23    2    1    2    0    0  0.24590152864E+02  0.26770264840E+01 -0.72118251829E+02  0.11760785677E+03  0.89547326251E+02 0.  0.
         23    2    1    2    0    0 -0.24590152864E+02 -0.26770264840E+01  0.56356886385E+03  0.57130036194E+03  0.90345985862E+02 0.  0.
          5    1    4    4  502    0 -0.31582669910E+02 -0.38334467472E+02  0.42690035151E+03  0.42980576608E+03  0.47000000000E+01 0. -1.
         -5    1    3    3    0  503  0.38982831645E+02 -0.19718525405E+02 -0.78383093570E+02  0.89858114630E+02  0.47000000000E+01 0.  1.
          5    1    3    3  503    0 -0.14392678781E+02  0.22395551889E+02  0.62648417405E+01  0.27749742142E+02  0.47000000000E+01 0. -1.
         -5    1    4    4    0  502  0.69925170453E+01  0.35657440988E+02  0.13666851234E+03  0.14149459586E+03  0.47000000000E+01 0.  1.
<mgrwt>
<rscale>  0 0.93477795E+02</rscale>
<asrwt>0</asrwt>
<pdfrwt beam="1">  1        2 0.90796831E-01 0.93670909E+02</pdfrwt>
<pdfrwt beam="2">  1       -2 0.15189047E-01 0.93670909E+02</pdfrwt>
<totfact> 0.16862503E+03</totfact>
</mgrwt>
</event>
<event>
 8    1  0.7366917E-004  0.1112142E+03  0.7546771E-02  0.1258921E+00
          1   -1    0    0  501    0  0.00000000000E+00  0.00000000000E+00  0.27734375371E+03  0.27734375371E+03  0.00000000000E+00 0. -1.
         -1   -1    0    0    0  501 -0.00000000000E+00 -0.00000000000E+00 -0.64010034233E+02  0.64010034233E+02  0.00000000000E+00 0.  1.
         23    2    1    2    0    0  0.42132716241E+02  0.43118385515E+02  0.11873315982E+02  0.11184625204E+03  0.93457196171E+02 0.  0.
         23    2    1    2    0    0 -0.42132716241E+02 -0.43118385515E+02  0.20146040350E+03  0.22950753590E+03  0.91940491142E+02 0.  0.
          5    1    4    4  502    0 -0.21670754154E+02 -0.68096032946E+02  0.10050425071E+03  0.12340942306E+03  0.47000000000E+01 0. -1.
         -5    1    4    4    0  502 -0.20461962087E+02  0.24977647431E+02  0.10095615279E+03  0.10609811285E+03  0.47000000000E+01 0.  1.
          5    1    3    3  503    0 -0.26802618696E+02  0.69619473497E+01  0.18418444024E+02  0.33588363463E+02  0.47000000000E+01 0. -1.
         -5    1    3    3    0  503  0.68935334937E+02  0.36156438166E+02 -0.65451280416E+01  0.78257888579E+02  0.47000000000E+01 0.  1.
<mgrwt>
<rscale>  0 0.11089501E+03</rscale>
<asrwt>0</asrwt>
<pdfrwt beam="1">  1        1 0.42668269E-01 0.11121425E+03</pdfrwt>
<pdfrwt beam="2">  1       -1 0.98476978E-02 0.11121425E+03</pdfrwt>
<totfact> 0.57015149E+03</totfact>
</mgrwt>
</event>
<event>
 8    1  0.7366917E-004  0.1673528E+03  0.7546771E-02  0.1180780E+00
          3   -1    0    0  501    0  0.00000000000E+00  0.00000000000E+00  0.33724059869E+03  0.33724059869E+03  0.00000000000E+00 0. -1.
         -3   -1    0    0    0  501 -0.00000000000E+00 -0.00000000000E+00 -0.90097267287E+02  0.90097267287E+02  0.00000000000E+00 0.  1.
         23    2    1    2    0    0 -0.12557700863E+03 -0.62027955102E+02  0.18464500601E+03  0.24920021689E+03  0.91596493066E+02 0.  0.
         23    2    1    2    0    0  0.12557700863E+03  0.62027955102E+02  0.62498325395E+02  0.17813764909E+03  0.90608658737E+02 0.  0.
          5    1    3    3  502    0 -0.52310113870E+02  0.18691114880E+02  0.83625025773E+02  0.10050343638E+03  0.47000000000E+01 0. -1.
         -5    1    3    3    0  502 -0.73266894756E+02 -0.80719069982E+02  0.10101998024E+03  0.14869678051E+03  0.47000000000E+01 0.  1.
          5    1    4    4  503    0  0.36241446807E+02  0.52031359701E+02  0.60995364858E+02  0.88109190174E+02  0.47000000000E+01 0. -1.
         -5    1    4    4    0  503  0.89335561819E+02  0.99965954008E+01  0.15029605367E+01  0.90028458920E+02  0.47000000000E+01 0.  1.
<mgrwt>
<rscale>  0 0.16721801E+03</rscale>
<asrwt>0</asrwt>
<pdfrwt beam="1">  1        3 0.51883168E-01 0.16735283E+03</pdfrwt>
<pdfrwt beam="2">  1       -3 0.13861118E-01 0.16735283E+03</pdfrwt>
<totfact> 0.37693957E+02</totfact>
</mgrwt>
</event>
<event>
 7    1  0.9699655E-004  0.1647460E+03  0.7546771E-02  0.1194753E+00
          3   -1    0    0  501    0  0.00000000000E+00  0.00000000000E+00  0.50834730756E+03  0.50834730756E+03  0.00000000000E+00 0. -1.
         -3   -1    0    0    0  501 -0.00000000000E+00 -0.00000000000E+00 -0.63846709237E+02  0.63846709237E+02  0.00000000000E+00 0.  1.
         23    2    1    2    0    0 -0.84345918029E+02 -0.35022622841E+02  0.38300063912E+02  0.13385611460E+03  0.90054131061E+02 0.  0.
          5    1    1    2  502    0  0.11662551551E+03  0.51218204562E+02  0.33342853950E+03  0.35696147733E+03  0.47000000000E+01 0. -1.
         -5    1    1    2    0  502 -0.32279597477E+02 -0.16195581721E+02  0.72771994907E+02  0.81376424862E+02  0.47000000000E+01 0.  1.
          5    1    3    3  503    0  0.15270376430E+01  0.21526476953E+02  0.19000997842E+02  0.29135012836E+02  0.47000000000E+01 0. -1.
         -5    1    3    3    0  503 -0.85872955672E+02 -0.56549099794E+02  0.19299066070E+02  0.10472110176E+03  0.47000000000E+01 0.  1.
<mgrwt>
<rscale>  0 0.15475110E+03</rscale>
<asrwt>0</asrwt>
<pdfrwt beam="1">  1        3 0.78207275E-01 0.16474599E+03</pdfrwt>
<pdfrwt beam="2">  1       -3 0.98225710E-02 0.16474599E+03</pdfrwt>
<totfact> 0.28472511E+02</totfact>
</mgrwt>
</event>
<event>
 8    1  0.7366917E-004  0.1126166E+03  0.7546771E-02  0.1256384E+00
         -1   -1    0    0    0  501 -0.00000000000E+00  0.00000000000E+00  0.58689433420E+02  0.58689433420E+02  0.00000000000E+00 0.  1.
          1   -1    0    0  501    0  0.00000000000E+00 -0.00000000000E+00 -0.28462904547E+03  0.28462904547E+03  0.00000000000E+00 0. -1.
         23    2    1    2    0    0  0.31776198480E+02 -0.55595807338E+02 -0.19821879026E+03  0.22734027262E+03  0.91062012719E+02 0.  0.
         23    2    1    2    0    0 -0.31776198480E+02  0.55595807338E+02 -0.27720821791E+02  0.11597820627E+03  0.92638435787E+02 0.  0.
          5    1    4    4  502    0  0.15312979080E+02 -0.18052613578E+02 -0.12301641728E+02  0.27088827485E+02  0.47000000000E+01 0. -1.
         -5    1    3    3    0  503  0.31247650072E+02 -0.79780099923E+02 -0.16499670614E+03  0.18597656577E+03  0.47000000000E+01 0. -1.
          5    1    3    3  503    0  0.52854840816E+00  0.24184292585E+02 -0.33222084122E+02  0.41363706854E+02  0.47000000000E+01 0.  1.
         -5    1    4    4    0  502 -0.47089177560E+02  0.73648420916E+02 -0.15419180064E+02  0.88889378784E+02  0.47000000000E+01 0.  1.
<mgrwt>
<rscale>  0 0.11229192E+03</rscale>
<asrwt>0</asrwt>
<pdfrwt beam="1">  1        1 0.43789083E-01 0.11261661E+03</pdfrwt>
<pdfrwt beam="2">  1       -1 0.90291438E-02 0.11261661E+03</pdfrwt>
<totfact> 0.63032671E+03</totfact>
</mgrwt>
</event>
<event>
 8    1  0.7366917E-004  0.9779237E+02  0.7546771E-02  0.1286225E+00
          2   -1    0    0  501    0  0.00000000000E+00  0.00000000000E+00  0.41084151319E+02  0.41084151319E+02  0.00000000000E+00 0. -1.
         -2   -1    0    0    0  501 -0.00000000000E+00 -0.00000000000E+00 -0.50253382985E+03  0.50253382985E+03  0.00000000000E+00 0.  1.
         23    2    1    2    0    0  0.27112705363E+02  0.97232029559E+01 -0.43059428743E+03  0.44107334288E+03  0.91129654691E+02 0.  0.
         23    2    1    2    0    0 -0.27112705363E+02 -0.97232029559E+01 -0.30855391099E+02  0.10254463829E+03  0.93454310836E+02 0.  0.
          5    1    4    4  502    0 -0.52991415737E+02 -0.32557737166E+02 -0.14351143256E+02  0.64001107052E+02  0.47000000000E+01 0. -1.
         -5    1    4    4    0  502  0.25878710374E+02  0.22834534210E+02 -0.16504247843E+02  0.38543531235E+02  0.47000000000E+01 0.  1.
          5    1    3    3  503    0 -0.10276359343E+02  0.42903200657E+02 -0.17054697474E+03  0.17622329239E+03  0.47000000000E+01 0. -1.
         -5    1    3    3    0  503  0.37389064706E+02 -0.33179997701E+02 -0.26004731269E+03  0.26485005049E+03  0.47000000000E+01 0.  1.
<mgrwt>
<rscale>  0 0.97232816E+02</rscale>
<asrwt>0</asrwt>
<pdfrwt beam="1">  1        2 0.63206390E-02 0.97792370E+02</pdfrwt>
<pdfrwt beam="2">  1       -2 0.77312892E-01 0.97792370E+02</pdfrwt>
<totfact> 0.16773751E+03</totfact>
</mgrwt>
</event>
<event>
 8    1  0.7366917E-004  0.9875904E+02  0.7546771E-02  0.1284020E+00
         -2   -1    0    0    0  501 -0.00000000000E+00  0.00000000000E+00  0.28339544464E+02  0.28339544464E+02  0.00000000000E+00 0.  1.
          2   -1    0    0  501    0  0.00000000000E+00 -0.00000000000E+00 -0.48400587990E+03  0.48400587990E+03  0.00000000000E+00 0. -1.
         23    2    1    2    0    0  0.35121773873E+02  0.63986900038E+01 -0.85090310314E+02  0.12883540040E+03  0.89909494790E+02 0.  0.
         23    2    1    2    0    0 -0.35121773873E+02 -0.63986900038E+01 -0.37057602513E+03  0.38351002397E+03  0.92080757227E+02 0.  0.
          5    1    3    3  502    0 -0.13221873745E+02 -0.29963328179E+02 -0.15586239584E+02  0.36573758971E+02  0.47000000000E+01 0. -1.
         -5    1    4    4    0  503  0.33499998161E+01 -0.33543114174E+02 -0.57035682830E+02  0.66419290294E+02  0.47000000000E+01 0.  1.
          5    1    4    4  503    0 -0.38471773690E+02  0.27144424170E+02 -0.31354034230E+03  0.31709073367E+03  0.47000000000E+01 0. -1.
         -5    1    3    3    0  502  0.48343647618E+02  0.36362018183E+02 -0.69504070730E+02  0.92261641430E+02  0.47000000000E+01 0.  1.
<mgrwt>
<rscale>  0 0.98249802E+02</rscale>
<asrwt>0</asrwt>
<pdfrwt beam="1">  1        2 0.74462441E-01 0.98759041E+02</pdfrwt>
<pdfrwt beam="2">  1       -2 0.43599300E-02 0.98759041E+02</pdfrwt>
<totfact> 0.14340624E+04</totfact>
</mgrwt>
</event>
<event>
 8    1  0.7366917E-004  0.9612478E+02  0.7546771E-02  0.1290525E+00
         -1   -1    0    0    0  501 -0.00000000000E+00  0.00000000000E+00  0.17112337122E+02  0.17112337122E+02  0.00000000000E+00 0.  1.
          1   -1    0    0  501    0  0.00000000000E+00 -0.00000000000E+00 -0.52309123699E+03  0.52309123699E+03  0.00000000000E+00 0. -1.
         23    2    1    2    0    0 -0.13855576634E+02  0.18267269201E+02 -0.26301106983E+03  0.27891189971E+03  0.89951958403E+02 0.  0.
         23    2    1    2    0    0  0.13855576634E+02 -0.18267269201E+02 -0.24296783003E+03  0.26129167440E+03  0.93350428757E+02 0.  0.
          5    1    3    3  502    0 -0.35637836635E+02  0.43568210445E+02 -0.13089287935E+03  0.14255974265E+03  0.47000000000E+01 0. -1.
         -5    1    3    3    0  502  0.21782260002E+02 -0.25300941244E+02 -0.13211819048E+03  0.13635215706E+03  0.47000000000E+01 0.  1.
          5    1    4    4  503    0  0.33356174464E+02  0.26636212409E+02 -0.15114952061E+03  0.15713175925E+03  0.47000000000E+01 0. -1.
         -5    1    4    4    0  503 -0.19500597830E+02 -0.44903481610E+02 -0.91818309428E+02  0.10415991514E+03  0.47000000000E+01 0.  1.
<mgrwt>
<rscale>  0 0.95289748E+02</rscale>
<asrwt>0</asrwt>
<pdfrwt beam="1">  1        1 0.80475556E-01 0.96124777E+02</pdfrwt>
<pdfrwt beam="2">  1       -1 0.26326679E-02 0.96124777E+02</pdfrwt>
<totfact> 0.17775520E+04</totfact>
</mgrwt>
</event>
<event>
 8    1  0.7366917E-004  0.1120673E+03  0.7546771E-02  0.1260147E+00
         -3   -1    0    0    0  501 -0.00000000000E+00  0.00000000000E+00  0.16571893872E+03  0.16571893872E+03  0.00000000000E+00 0.  1.
          3   -1    0    0  501    0  0.00000000000E+00 -0.00000000000E+00 -0.11455864139E+03  0.11455864139E+03  0.00000000000E+00 0. -1.
         23    2    1    2    0    0  0.55131250530E+02 -0.10850406534E+01  0.11247808768E+03  0.15877783367E+03  0.97562534602E+02 0.  0.
         23    2    1    2    0    0 -0.55131250530E+02  0.10850406534E+01 -0.61317790348E+02  0.12149974644E+03  0.89228273957E+02 0.  0.
          5    1    4    4  502    0 -0.78118646992E+02 -0.20652676318E+01 -0.58351649426E+02  0.97641145676E+02  0.47000000000E+01 0. -1.
         -5    1    3    3    0  503  0.82042879612E+02  0.80067275851E+01  0.90874779881E+02  0.12278215424E+03  0.47000000000E+01 0.  1.
          5    1    3    3  503    0 -0.26911629082E+02 -0.90917682386E+01  0.21603307797E+02  0.35995679425E+02  0.47000000000E+01 0. -1.
         -5    1    4    4    0  502  0.22987396462E+02  0.31503082852E+01 -0.29661409219E+01  0.23858600763E+02  0.47000000000E+01 0.  1.
<mgrwt>
<rscale>  0 0.11022871E+03</rscale>
<asrwt>0</asrwt>
<pdfrwt beam="1">  1        3 0.17624406E-01 0.11206730E+03</pdfrwt>
<pdfrwt beam="2">  1       -3 0.25495221E-01 0.11206730E+03</pdfrwt>
<totfact> 0.90937945E+02</totfact>
</mgrwt>
</event>
<event>
 8    1  0.7366917E-004  0.9439071E+02  0.7546771E-02  0.1292839E+00
         -1   -1    0    0    0  501 -0.00000000000E+00  0.00000000000E+00  0.98244560235E+02  0.98244560235E+02  0.00000000000E+00 0.  1.
          1   -1    0    0  501    0  0.00000000000E+00 -0.00000000000E+00 -0.11314109847E+03  0.11314109847E+03  0.00000000000E+00 0. -1.
         23    2    1    2    0    0  0.11134217466E+01  0.16671600256E+01  0.40151225232E+02  0.10211597737E+03  0.93869765183E+02 0.  0.
         23    2    1    2    0    0 -0.11134217466E+01 -0.16671600256E+01 -0.55047763472E+02  0.10926968134E+03  0.94369422308E+02 0.  0.
          5    1    4    4  502    0  0.42149686525E+02 -0.17917199508E+02 -0.38306341524E+02  0.59892302621E+02  0.47000000000E+01 0. -1.
         -5    1    4    4    0  502 -0.43263108271E+02  0.16250039482E+02 -0.16741421948E+02  0.49377378720E+02  0.47000000000E+01 0.  1.
          5    1    3    3  503    0 -0.36093487735E+02 -0.26979237972E+02  0.28437984362E+02  0.53492318074E+02  0.47000000000E+01 0.  1.
         -5    1    3    3    0  503  0.37206909481E+02  0.28646397997E+02  0.11713240870E+02  0.48623659293E+02  0.47000000000E+01 0. -1.
<mgrwt>
<rscale>  0 0.94265580E+02</rscale>
<asrwt>0</asrwt>
<pdfrwt beam="1">  1        1 0.17406323E-01 0.94390715E+02</pdfrwt>
<pdfrwt beam="2">  1       -1 0.15114548E-01 0.94390715E+02</pdfrwt>
<totfact> 0.88837034E+03</totfact>
</mgrwt>
</event>
<event>
 8    1  0.7366917E-004  0.9035678E+02  0.7546771E-02  0.1302117E+00
         -2   -1    0    0    0  501 -0.00000000000E+00  0.00000000000E+00  0.94669129103E+02  0.94669129103E+02  0.00000000000E+00 0.  1.
          2   -1    0    0  501    0  0.00000000000E+00 -0.00000000000E+00 -0.88946453051E+02  0.88946453051E+02  0.00000000000E+00 0. -1.
         23    2    1    2    0    0  0.54650158134E+01 -0.94887348334E+01  0.19460491596E+02  0.92428668501E+02  0.89690833095E+02 0.  0.
         23    2    1    2    0    0 -0.54650158134E+01  0.94887348334E+01 -0.13737815545E+02  0.91186913653E+02  0.89478618446E+02 0.  0.
          5    1    4    4  502    0  0.38490550880E+02  0.90076459249E+01  0.99476765049E+01  0.41032992336E+02  0.47000000000E+01 0. -1.
         -5    1    3    3    0  503 -0.85631877387E+01 -0.33323951937E+02 -0.22917374554E+02  0.41606610213E+02  0.47000000000E+01 0. -1.
          5    1    3    3  503    0  0.14028203552E+02  0.23835217104E+02  0.42377866150E+02  0.50822058289E+02  0.47000000000E+01 0.  1.
         -5    1    4    4    0  502 -0.43955566693E+02  0.48108890853E+00 -0.23685492049E+02  0.50153921317E+02  0.47000000000E+01 0.  1.
<mgrwt>
<rscale>  0 0.90304074E+02</rscale>
<asrwt>0</asrwt>
<pdfrwt beam="1">  1        2 0.13684070E-01 0.90356782E+02</pdfrwt>
<pdfrwt beam="2">  1       -2 0.14564481E-01 0.90356782E+02</pdfrwt>
<totfact> 0.14017489E+04</totfact>
</mgrwt>
</event>
<event>
 8    1  0.7366917E-004  0.9457499E+02  0.7546771E-02  0.1293421E+00
          1   -1    0    0  501    0  0.00000000000E+00  0.00000000000E+00  0.77049271540E+03  0.77049271540E+03  0.00000000000E+00 0. -1.
         -1   -1    0    0    0  501 -0.00000000000E+00 -0.00000000000E+00 -0.11507544092E+02  0.11507544092E+02  0.00000000000E+00 0.  1.
         23    2    1    2    0    0 -0.28815506311E+01  0.19482137063E+02  0.43177197594E+03  0.44200844770E+03  0.92501738510E+02 0.  0.
         23    2    1    2    0    0  0.28815506311E+01 -0.19482137063E+02  0.32721319537E+03  0.33999181180E+03  0.90211417616E+02 0.  0.
          5    1    4    4  502    0  0.40839851410E+02 -0.50145427576E+01  0.24147843210E+03  0.24500400461E+03  0.47000000000E+01 0. -1.
         -5    1    4    4    0  502 -0.37958300779E+02 -0.14467594306E+02  0.85734763265E+02  0.94987807192E+02  0.47000000000E+01 0.  1.
          5    1    3    3  503    0  0.25615256345E+02  0.47203306730E+02  0.27257204737E+03  0.27785230704E+03  0.47000000000E+01 0. -1.
         -5    1    3    3    0  503 -0.28496806976E+02 -0.27721169667E+02  0.15919992858E+03  0.16415614065E+03  0.47000000000E+01 0.  1.
<mgrwt>
<rscale>  0 0.94010230E+02</rscale>
<asrwt>0</asrwt>
<pdfrwt beam="1">  1        1 0.11853730E+00 0.94574989E+02</pdfrwt>
<pdfrwt beam="2">  1       -1 0.17703920E-02 0.94574989E+02</pdfrwt>
<totfact> 0.18425011E+04</totfact>
</mgrwt>
</event>
<event>
 8    1  0.7366917E-004  0.1199389E+03  0.7546771E-02  0.1244275E+00
          1   -1    0    0  501    0  0.00000000000E+00  0.00000000000E+00  0.10653282813E+04  0.10653282813E+04  0.00000000000E+00 0. -1.
         -1   -1    0    0    0  501 -0.00000000000E+00 -0.00000000000E+00 -0.22744889606E+02  0.22744889606E+02  0.00000000000E+00 0.  1.
         23    2    1    2    0    0  0.53899234264E+02  0.50463003397E+02  0.17243124460E+03  0.21004254369E+03  0.94518219831E+02 0.  0.
         23    2    1    2    0    0 -0.53899234264E+02 -0.50463003397E+02  0.87015214710E+03  0.87803062722E+03  0.91221604180E+02 0.  0.
          5    1    4    4  502    0 -0.55467713033E+02  0.79352284919E+01  0.33595439452E+03  0.34062748015E+03  0.47000000000E+01 0. -1.
         -5    1    3    3    0  503  0.35481443011E+02 -0.14430730326E+02  0.20399512345E+02  0.43650989448E+02  0.47000000000E+01 0.  1.
          5    1    3    3  503    0  0.18417791253E+02  0.64893733724E+02  0.15203173225E+03  0.16639155424E+03  0.47000000000E+01 0. -1.
         -5    1    4    4    0  502  0.15684787695E+01 -0.58398231889E+02  0.53419775258E+03  0.53740314706E+03  0.47000000000E+01 0.  1.
<mgrwt>
<rscale>  0 0.11928852E+03</rscale>
<asrwt>0</asrwt>
<pdfrwt beam="1">  1        1 0.16389662E+00 0.11993888E+03</pdfrwt>
<pdfrwt beam="2">  1       -1 0.34992146E-02 0.11993888E+03</pdfrwt>
<totfact> 0.41892996E+03</totfact>
</mgrwt>
</event>
<event>
 8    1  0.7366917E-004  0.1005563E+03  0.7546771E-02  0.1279559E+00
         -1   -1    0    0    0  501 -0.00000000000E+00  0.00000000000E+00  0.37699805949E+02  0.37699805949E+02  0.00000000000E+00 0.  1.
          1   -1    0    0  501    0  0.00000000000E+00 -0.00000000000E+00 -0.27793703747E+03  0.27793703747E+03  0.00000000000E+00 0. -1.
         23    2    1    2    0    0  0.92096236365E+01  0.83558853359E+01 -0.15230370774E+03  0.18205591337E+03  0.98961094459E+02 0.  0.
         23    2    1    2    0    0 -0.92096236365E+01 -0.83558853359E+01 -0.87933523783E+02  0.13358093004E+03  0.99784378935E+02 0.  0.
          5    1    4    4  502    0 -0.35068926757E+02  0.32679889285E+02 -0.61583250382E+02  0.78181785060E+02  0.47000000000E+01 0. -1.
         -5    1    4    4    0  502  0.25859303121E+02 -0.41035774621E+02 -0.26350273401E+02  0.55399144984E+02  0.47000000000E+01 0.  1.
          5    1    3    3  503    0  0.16239785960E+02  0.52301319620E+02 -0.85840036642E+02  0.10193017499E+03  0.47000000000E+01 0. -1.
         -5    1    3    3    0  503 -0.70301623238E+01 -0.43945434284E+02 -0.66463671093E+02  0.80125738386E+02  0.47000000000E+01 0.  1.
<mgrwt>
<rscale>  0 0.10035140E+03</rscale>
<asrwt>0</asrwt>
<pdfrwt beam="1">  1        1 0.42759545E-01 0.10055625E+03</pdfrwt>
<pdfrwt beam="2">  1       -1 0.57999701E-02 0.10055625E+03</pdfrwt>
<totfact> 0.12448977E+04</totfact>
</mgrwt>
</event>
<event>
 8    1  0.7366917E-004  0.1023020E+03  0.7546771E-02  0.1275762E+00
          1   -1    0    0  501    0  0.00000000000E+00  0.00000000000E+00  0.15362403532E+03  0.15362403532E+03  0.00000000000E+00 0. -1.
         -1   -1    0    0    0  501 -0.00000000000E+00 -0.00000000000E+00 -0.72490450597E+02  0.72490450597E+02  0.00000000000E+00 0.  1.
         23    2    1    2    0    0 -0.45800715508E+02  0.70245195796E+01  0.69175413809E+02  0.12311592876E+03  0.90693134376E+02 0.  0.
         23    2    1    2    0    0  0.45800715508E+02 -0.70245195796E+01  0.11958170916E+02  0.10299855716E+03  0.91206663727E+02 0.  0.
          5    1    3    3  502    0  0.78958100322E+00 -0.27704399501E+02  0.57004987421E+02  0.63559545159E+02  0.47000000000E+01 0. -1.
         -5    1    3    3    0  502 -0.46590296511E+02  0.34728919080E+02  0.12170426388E+02  0.59556383604E+02  0.47000000000E+01 0.  1.
          5    1    4    4  503    0  0.19107550059E+01 -0.32120457373E+02  0.34529528534E+02  0.47431562354E+02  0.47000000000E+01 0. -1.
         -5    1    4    4    0  503  0.43889960502E+02  0.25095937794E+02 -0.22571357618E+02  0.55566994802E+02  0.47000000000E+01 0.  1.
<mgrwt>
<rscale>  0 0.10218744E+03</rscale>
<asrwt>0</asrwt>
<pdfrwt beam="1">  1        1 0.23634467E-01 0.10230203E+03</pdfrwt>
<pdfrwt beam="2">  1       -1 0.11152377E-01 0.10230203E+03</pdfrwt>
<totfact> 0.97192011E+03</totfact>
</mgrwt>
</event>
<event>
 8    1  0.7366917E-004  0.1069456E+03  0.7546771E-02  0.1266920E+00
         -1   -1    0    0    0  501 -0.00000000000E+00  0.00000000000E+00  0.35618843544E+02  0.35618843544E+02  0.00000000000E+00 0.  1.
          1   -1    0    0  501    0  0.00000000000E+00 -0.00000000000E+00 -0.31779987725E+03  0.31779987725E+03  0.00000000000E+00 0. -1.
         23    2    1    2    0    0  0.96292331485E+01  0.53436729915E+02 -0.14597238769E+03  0.18024207647E+03  0.90725200080E+02 0.  0.
         23    2    1    2    0    0 -0.96292331485E+01 -0.53436729915E+02 -0.13620864602E+03  0.17317664432E+03  0.92136576083E+02 0.  0.
          5    1    4    4  502    0  0.16546024346E+02 -0.12592294712E+02 -0.11990163657E+03  0.12178189216E+03  0.47000000000E+01 0. -1.
         -5    1    4    4    0  502 -0.26175257494E+02 -0.40844435203E+02 -0.16307009454E+02  0.51394752157E+02  0.47000000000E+01 0.  1.
          5    1    3    3  503    0 -0.22200036378E+02  0.64668958879E+02 -0.75528594141E+02  0.10198810906E+03  0.47000000000E+01 0. -1.
         -5    1    3    3    0  503  0.31829269527E+02 -0.11232228964E+02 -0.70443793545E+02  0.78253967409E+02  0.47000000000E+01 0.  1.
<mgrwt>
<rscale>  0 0.10664089E+03</rscale>
<asrwt>0</asrwt>
<pdfrwt beam="1">  1        1 0.48892288E-01 0.10694557E+03</pdfrwt>
<pdfrwt beam="2">  1       -1 0.54798222E-02 0.10694557E+03</pdfrwt>
<totfact> 0.11547521E+04</totfact>
</mgrwt>
</event>
<event>
 8    1  0.7366917E-004  0.9293748E+02  0.7546771E-02  0.1297018E+00
          2   -1    0    0  501    0  0.00000000000E+00  0.00000000000E+00  0.75557545489E+02  0.75557545489E+02  0.00000000000E+00 0. -1.
         -2   -1    0    0    0  501 -0.00000000000E+00 -0.00000000000E+00 -0.11202348285E+03  0.11202348285E+03  0.00000000000E+00 0.  1.
         23    2    1    2    0    0  0.53113213263E+00 -0.11256406517E+00 -0.20247737681E+02  0.93239066843E+02  0.91012405377E+02 0.  0.
         23    2    1    2    0    0 -0.53113213263E+00  0.11256406517E+00 -0.16218199685E+02  0.94341961501E+02  0.92935896869E+02 0.  0.
          5    1    3    3  502    0  0.41406069624E+02  0.18730854369E+02 -0.83184615569E+01  0.46439146308E+02  0.47000000000E+01 0. -1.
         -5    1    3    3    0  502 -0.40874937491E+02 -0.18843418435E+02 -0.11929276124E+02  0.46799920535E+02  0.47000000000E+01 0.  1.
          5    1    4    4  503    0  0.20084731982E+02  0.69600904507E+01  0.33459883018E+02  0.39918580755E+02  0.47000000000E+01 0. -1.
         -5    1    4    4    0  503 -0.20615864114E+02 -0.68475263855E+01 -0.49678082703E+02  0.54423380746E+02  0.47000000000E+01 0.  1.
<mgrwt>
<rscale>  0 0.92452841E+02</rscale>
<asrwt>0</asrwt>
<pdfrwt beam="1">  1        2 0.11624238E-01 0.92937483E+02</pdfrwt>
<pdfrwt beam="2">  1       -2 0.17234382E-01 0.92937483E+02</pdfrwt>
<totfact> 0.12958685E+04</totfact>
</mgrwt>
</event>
<event>
 8    1  0.7366917E-004  0.1315759E+03  0.7546771E-02  0.1225715E+00
         -2   -1    0    0    0  501 -0.00000000000E+00  0.00000000000E+00  0.32144684340E+03  0.32144684340E+03  0.00000000000E+00 0.  1.
          2   -1    0    0  501    0  0.00000000000E+00 -0.00000000000E+00 -0.46156739053E+03  0.46156739053E+03  0.00000000000E+00 0. -1.
         23    2    1    2    0    0 -0.63988445647E+01 -0.95292810145E+02  0.29813801892E+03  0.32588112335E+03  0.90501731213E+02 0.  0.
         23    2    1    2    0    0  0.63988445647E+01  0.95292810145E+02 -0.43825856605E+03  0.45713311058E+03  0.88195494199E+02 0.  0.
          5    1    4    4  502    0  0.46035907969E+02  0.65388957212E+02 -0.26623784737E+03  0.27802823943E+03  0.47000000000E+01 0.  1.
         -5    1    4    4    0  502 -0.39637063404E+02  0.29903852933E+02 -0.17202071868E+03  0.17910487115E+03  0.47000000000E+01 0. -1.
          5    1    3    3  503    0  0.29481344392E+02 -0.51918782162E+02  0.76481367305E+02  0.97140100644E+02  0.47000000000E+01 0. -1.
         -5    1    3    3    0  503 -0.35880188957E+02 -0.43374027984E+02  0.22165665161E+03  0.22874102270E+03  0.47000000000E+01 0.  1.
<mgrwt>
<rscale>  0 0.13118028E+03</rscale>
<asrwt>0</asrwt>
<pdfrwt beam="1">  1        2 0.71010368E-01 0.13157594E+03</pdfrwt>
<pdfrwt beam="2">  1       -2 0.49453361E-01 0.13157594E+03</pdfrwt>
<totfact> 0.27257650E+02</totfact>
</mgrwt>
</event>
<event>
 8    1  0.7366917E-004  0.1204975E+03  0.7546771E-02  0.1243433E+00
          1   -1    0    0  501    0  0.00000000000E+00  0.00000000000E+00  0.91149884351E+02  0.91149884351E+02  0.00000000000E+00 0. -1.
         -1   -1    0    0    0  501 -0.00000000000E+00 -0.00000000000E+00 -0.17963886846E+03  0.17963886846E+03  0.00000000000E+00 0.  1.
         23    2    1    2    0    0 -0.30011237042E+01  0.79309903587E+02 -0.94174587146E+02  0.15293298202E+03  0.90667395325E+02 0.  0.
         23    2    1    2    0    0  0.30011237042E+01 -0.79309903587E+02  0.56856030356E+01  0.11785577079E+03  0.86940146519E+02 0.  0.
          5    1    4    4  502    0  0.25897284258E+02 -0.86272381139E+02  0.15585275429E+02  0.91534604875E+02  0.47000000000E+01 0. -1.
         -5    1    4    4    0  502 -0.22896160554E+02  0.69624775526E+01 -0.98996723929E+01  0.26321165918E+02  0.47000000000E+01 0.  1.
          5    1    3    3  503    0  0.23727866820E+02  0.14094709512E+02  0.76354894426E+01  0.29018325229E+02  0.47000000000E+01 0. -1.
         -5    1    3    3    0  503 -0.26728990525E+02  0.65215194075E+02 -0.10181007659E+03  0.12391465679E+03  0.47000000000E+01 0.  1.
<mgrwt>
<rscale>  0 0.11979666E+03</rscale>
<asrwt>0</asrwt>
<pdfrwt beam="1">  1        1 0.14023059E-01 0.12049749E+03</pdfrwt>
<pdfrwt beam="2">  1       -1 0.27636749E-01 0.12049749E+03</pdfrwt>
<totfact> 0.45445201E+03</totfact>
</mgrwt>
</event>
<event>
 8    1  0.7366917E-004  0.1133180E+03  0.7546771E-02  0.1266088E+00
          2   -1    0    0  501    0  0.00000000000E+00  0.00000000000E+00  0.11696043146E+02  0.11696043146E+02  0.00000000000E+00 0. -1.
         -2   -1    0    0    0  501 -0.00000000000E+00 -0.00000000000E+00 -0.90159249952E+03  0.90159249952E+03  0.00000000000E+00 0.  1.
         23    2    1    2    0    0  0.13011207991E+02  0.32310086879E+00 -0.33674873562E+03  0.34865293374E+03  0.89385464924E+02 0.  0.
         23    2    1    2    0    0 -0.13011207991E+02 -0.32310086879E+00 -0.55314772076E+03  0.56463560893E+03  0.11256808588E+03 0.  0.
          5    1    3    3  502    0 -0.20771901719E+02  0.33531816672E+02 -0.10978662239E+03  0.11675207529E+03  0.47000000000E+01 0. -1.
         -5    1    4    4    0  503 -0.29496434111E+02  0.50858781597E+02 -0.31123988062E+03  0.31677911639E+03  0.47000000000E+01 0.  1.
          5    1    4    4  503    0  0.16485226119E+02 -0.51181882466E+02 -0.24190784014E+03  0.24785649254E+03  0.47000000000E+01 0. -1.
         -5    1    3    3    0  502  0.33783109710E+02 -0.33208715803E+02 -0.22696211323E+03  0.23190085845E+03  0.47000000000E+01 0.  1.
<mgrwt>
<rscale>  0 0.10707297E+03</rscale>
<asrwt>0</asrwt>
<pdfrwt beam="1">  1        2 0.17993907E-02 0.11331800E+03</pdfrwt>
<pdfrwt beam="2">  1       -2 0.13870658E+00 0.11331800E+03</pdfrwt>
<totfact> 0.23128457E+03</totfact>
</mgrwt>
</event>
<event>
 8    1  0.7366917E-004  0.9474232E+02  0.7546771E-02  0.1293093E+00
         -1   -1    0    0    0  501 -0.00000000000E+00  0.00000000000E+00  0.24387418610E+02  0.24387418610E+02  0.00000000000E+00 0.  1.
          1   -1    0    0  501    0  0.00000000000E+00 -0.00000000000E+00 -0.37059813438E+03  0.37059813438E+03  0.00000000000E+00 0. -1.
         23    2    1    2    0    0 -0.13551988623E+02 -0.17687963445E+02 -0.20585716318E+03  0.22564794302E+03  0.89684458572E+02 0.  0.
         23    2    1    2    0    0  0.13551988623E+02  0.17687963445E+02 -0.14035355259E+03  0.16933760997E+03  0.92084667453E+02 0.  0.
          5    1    4    4  502    0  0.10746056723E+02  0.43636316523E+02 -0.13489587486E+03  0.14226240863E+03  0.47000000000E+01 0. -1.
         -5    1    4    4    0  502  0.28059319003E+01 -0.25948353078E+02 -0.54576777231E+01  0.27075201337E+02  0.47000000000E+01 0.  1.
          5    1    3    3  503    0  0.17537811399E+02  0.25149783827E+02 -0.12574348396E+03  0.12951293454E+03  0.47000000000E+01 0. -1.
         -5    1    3    3    0  503 -0.31089800023E+02 -0.42837747272E+02 -0.80113679229E+02  0.96135008485E+02  0.47000000000E+01 0.  1.
<mgrwt>
<rscale>  0 0.94154071E+02</rscale>
<asrwt>0</asrwt>
<pdfrwt beam="1">  1        1 0.57015099E-01 0.94742316E+02</pdfrwt>
<pdfrwt beam="2">  1       -1 0.37519105E-02 0.94742316E+02</pdfrwt>
<totfact> 0.16442349E+04</totfact>
</mgrwt>
</event>
<event>
 8    1  0.7366917E-004  0.2042815E+03  0.7546771E-02  0.1146309E+00
         -2   -1    0    0    0  501 -0.00000000000E+00  0.00000000000E+00  0.19994899383E+03  0.19994899383E+03  0.00000000000E+00 0.  1.
          2   -1    0    0  501    0  0.00000000000E+00 -0.00000000000E+00 -0.45932194619E+03  0.45932194619E+03  0.00000000000E+00 0. -1.
         23    2    1    2    0    0  0.14586212985E+03 -0.10960963282E+03  0.11421471885E+03  0.23347911331E+03  0.90429319464E+02 0.  0.
         23    2    1    2    0    0 -0.14586212985E+03  0.10960963282E+03 -0.37358767121E+03  0.42579182671E+03  0.91874365780E+02 0.  0.
          5    1    3    3  502    0  0.19326797133E+02 -0.14882939676E+02 -0.15214335587E+02  0.29130619427E+02  0.47000000000E+01 0. -1.
         -5    1    3    3    0  502  0.12653533272E+03 -0.94726693145E+02  0.12942905444E+03  0.20434849388E+03  0.47000000000E+01 0.  1.
          5    1    4    4  503    0 -0.15005845410E+03  0.74126111009E+02 -0.29197798080E+03  0.33657904161E+03  0.47000000000E+01 0. -1.
         -5    1    4    4    0  503  0.41963242511E+01  0.35483521812E+02 -0.81609690407E+02  0.89212785102E+02  0.47000000000E+01 0.  1.
<mgrwt>
<rscale>  0 0.20411986E+03</rscale>
<asrwt>0</asrwt>
<pdfrwt beam="1">  1        2 0.70664914E-01 0.20428150E+03</pdfrwt>
<pdfrwt beam="2">  1       -2 0.30761384E-01 0.20428150E+03</pdfrwt>
<totfact> 0.67140350E+02</totfact>
</mgrwt>
</event>
<event>
 8    1  0.7366917E-004  0.1086926E+03  0.7546771E-02  0.1265361E+00
         -1   -1    0    0    0  501 -0.00000000000E+00  0.00000000000E+00  0.20617407043E+02  0.20617407043E+02  0.00000000000E+00 0.  1.
          1   -1    0    0  501    0  0.00000000000E+00 -0.00000000000E+00 -0.80741234934E+03  0.80741234934E+03  0.00000000000E+00 0. -1.
         23    2    1    2    0    0  0.34910148574E+02 -0.48208091786E+02 -0.15246332664E+03  0.18445328441E+03  0.85060035109E+02 0.  0.
         23    2    1    2    0    0 -0.34910148574E+02  0.48208091786E+02 -0.63433161565E+03  0.64357647197E+03  0.90946896959E+02 0.  0.
          5    1    4    4  502    0 -0.61553870143E+02  0.52305636639E+02 -0.49731036877E+03  0.50384963177E+03  0.47000000000E+01 0. -1.
         -5    1    3    3    0  503 -0.20600205806E+02 -0.18726041064E+02 -0.12350689464E+02  0.30816596558E+02  0.47000000000E+01 0.  1.
          5    1    3    3  503    0  0.55510354380E+02 -0.29482050722E+02 -0.14011263717E+03  0.15363668785E+03  0.47000000000E+01 0. -1.
         -5    1    4    4    0  502  0.26643721569E+02 -0.40975448529E+01 -0.13702124689E+03  0.13972684020E+03  0.47000000000E+01 0.  1.
<mgrwt>
<rscale>  0 0.10745260E+03</rscale>
<asrwt>0</asrwt>
<pdfrwt beam="1">  1        1 0.12421725E+00 0.10869258E+03</pdfrwt>
<pdfrwt beam="2">  1       -1 0.31719095E-02 0.10869258E+03</pdfrwt>
<totfact> 0.75161849E+03</totfact>
</mgrwt>
</event>
<event>
 8    1  0.7366917E-004  0.1335915E+03  0.7546771E-02  0.1222351E+00
         -4   -1    0    0    0  501 -0.00000000000E+00  0.00000000000E+00  0.14845498710E+03  0.14845498710E+03  0.00000000000E+00 0.  1.
          4   -1    0    0  501    0  0.00000000000E+00 -0.00000000000E+00 -0.18639166186E+03  0.18639166186E+03  0.00000000000E+00 0. -1.
         23    2    1    2    0    0 -0.74337218493E+02 -0.63103960437E+02  0.81017352471E+02  0.15623860801E+03  0.91315712532E+02 0.  0.
         23    2    1    2    0    0  0.74337218493E+02  0.63103960437E+02 -0.11895402723E+03  0.17860804095E+03  0.90788985132E+02 0.  0.
          5    1    4    4  502    0  0.62855384775E+02  0.46252975841E+02 -0.13238244947E+03  0.15374439859E+03  0.47000000000E+01 0. -1.
         -5    1    3    3    0  503 -0.59540443215E+02 -0.13562998448E+02  0.14889980391E+01  0.61264397657E+02  0.47000000000E+01 0. -1.
          5    1    3    3  503    0 -0.14796775278E+02 -0.49540961989E+02  0.79528354432E+02  0.94974210353E+02  0.47000000000E+01 0.  1.
         -5    1    4    4    0  502  0.11481833718E+02  0.16850984596E+02  0.13428422244E+02  0.24863642359E+02  0.47000000000E+01 0.  1.
<mgrwt>
<rscale>  0 0.13350155E+03</rscale>
<asrwt>0</asrwt>
<pdfrwt beam="1">  1        4 0.28675640E-01 0.13359151E+03</pdfrwt>
<pdfrwt beam="2">  1       -4 0.22839229E-01 0.13359151E+03</pdfrwt>
<totfact> 0.34016714E+02</totfact>
</mgrwt>
</event>
<event>
 8    1  0.7366917E-004  0.9040559E+02  0.7546771E-02  0.1302802E+00
          1   -1    0    0  501    0  0.00000000000E+00  0.00000000000E+00  0.33140807251E+03  0.33140807251E+03  0.00000000000E+00 0. -1.
         -1   -1    0    0    0  501 -0.00000000000E+00 -0.00000000000E+00 -0.26160891076E+02  0.26160891076E+02  0.00000000000E+00 0.  1.
         23    2    1    2    0    0 -0.10024934812E+02 -0.63095188856E+01  0.10305070401E+03  0.13608174739E+03  0.88082262851E+02 0.  0.
         23    2    1    2    0    0  0.10024934812E+02  0.63095188856E+01  0.20219647742E+03  0.22148721619E+03  0.89626235608E+02 0.  0.
          5    1    4    4  502    0  0.38941226393E+02 -0.17975573831E+01  0.38494202923E+02  0.54986761899E+02  0.47000000000E+01 0. -1.
         -5    1    4    4    0  502 -0.28916291581E+02  0.81070762687E+01  0.16370227449E+03  0.16650045429E+03  0.47000000000E+01 0.  1.
          5    1    3    3  503    0  0.76746845649E+01 -0.43761335239E+02  0.69251494840E+02  0.82412467398E+02  0.47000000000E+01 0. -1.
         -5    1    3    3    0  503 -0.17699619377E+02  0.37451816354E+02  0.33799209174E+02  0.53669279994E+02  0.47000000000E+01 0.  1.
<mgrwt>
<rscale>  0 0.90020533E+02</rscale>
<asrwt>0</asrwt>
<pdfrwt beam="1">  1        1 0.50985854E-01 0.90405594E+02</pdfrwt>
<pdfrwt beam="2">  1       -1 0.40247527E-02 0.90405594E+02</pdfrwt>
<totfact> 0.16961592E+04</totfact>
</mgrwt>
</event>
<event>
 8    1  0.7366917E-004  0.1469164E+03  0.7546771E-02  0.1204501E+00
          3   -1    0    0  501    0  0.00000000000E+00  0.00000000000E+00  0.33598183537E+03  0.33598183537E+03  0.00000000000E+00 0. -1.
         -3   -1    0    0    0  501 -0.00000000000E+00 -0.00000000000E+00 -0.68379688200E+02  0.68379688200E+02  0.00000000000E+00 0.  1.
         23    2    1    2    0    0 -0.52699874905E+02  0.10159618617E+03  0.82290086204E+02  0.16787689656E+03  0.91169799011E+02 0.  0.
         23    2    1    2    0    0  0.52699874905E+02 -0.10159618617E+03  0.18531206097E+03  0.23648462701E+03  0.92115997589E+02 0.  0.
          5    1    3    3  502    0 -0.23428754663E+02  0.10121456484E+03  0.89676949494E+02  0.13732203010E+03  0.47000000000E+01 0. -1.
         -5    1    4    4    0  503  0.77104960107E+02 -0.62026023313E+02  0.13903227495E+03  0.17071750326E+03  0.47000000000E+01 0.  1.
          5    1    4    4  503    0 -0.24405085202E+02 -0.39570162862E+02  0.46279786013E+02  0.65767123747E+02  0.47000000000E+01 0. -1.
         -5    1    3    3    0  502 -0.29271120242E+02  0.38162133176E+00 -0.73868632892E+01  0.30554866458E+02  0.47000000000E+01 0.  1.
<mgrwt>
<rscale>  0 0.14676829E+03</rscale>
<asrwt>0</asrwt>
<pdfrwt beam="1">  1        3 0.51689512E-01 0.14691637E+03</pdfrwt>
<pdfrwt beam="2">  1       -3 0.10519952E-01 0.14691637E+03</pdfrwt>
<totfact> 0.59371595E+02</totfact>
</mgrwt>
</event>
<event>
 8    1  0.7366917E-004  0.9559634E+02  0.7546771E-02  0.1291648E+00
          1   -1    0    0  501    0  0.00000000000E+00  0.00000000000E+00  0.15710736110E+03  0.15710736110E+03  0.00000000000E+00 0. -1.
         -1   -1    0    0    0  501 -0.00000000000E+00 -0.00000000000E+00 -0.35870435937E+03  0.35870435937E+03  0.00000000000E+00 0.  1.
         23    2    1    2    0    0  0.19789059063E+02  0.47167025832E+01 -0.33788374186E+03  0.35114681267E+03  0.93406674786E+02 0.  0.
         23    2    1    2    0    0 -0.19789059063E+02 -0.47167025832E+01  0.13628674359E+03  0.16466490780E+03  0.90147663532E+02 0.  0.
          5    1    4    4  502    0 -0.37908586869E+02  0.17489882211E+02  0.12761733603E+03  0.13435487112E+03  0.47000000000E+01 0. -1.
         -5    1    3    3    0  503  0.18832914584E+02 -0.33742341211E+02 -0.27150778215E+03  0.27428414105E+03  0.47000000000E+01 0.  1.
          5    1    3    3  503    0  0.95614447908E+00  0.38459043794E+02 -0.66375959709E+02  0.76862671623E+02  0.47000000000E+01 0. -1.
         -5    1    4    4    0  502  0.18119527805E+02 -0.22206584794E+02  0.86694075612E+01  0.30310036681E+02  0.47000000000E+01 0.  1.
<mgrwt>
<rscale>  0 0.94790779E+02</rscale>
<asrwt>0</asrwt>
<pdfrwt beam="1">  1        1 0.24170364E-01 0.95596344E+02</pdfrwt>
<pdfrwt beam="2">  1       -1 0.55185285E-01 0.95596344E+02</pdfrwt>
<totfact> 0.67694879E+02</totfact>
</mgrwt>
</event>
<event>
 8    1  0.7366917E-004  0.9137590E+02  0.7546771E-02  0.1299559E+00
          2   -1    0    0  501    0  0.00000000000E+00  0.00000000000E+00  0.17071688120E+03  0.17071688120E+03  0.00000000000E+00 0. -1.
         -2   -1    0    0    0  501 -0.00000000000E+00 -0.00000000000E+00 -0.49223767755E+02  0.49223767755E+02  0.00000000000E+00 0.  1.
         23    2    1    2    0    0  0.75242101284E+00 -0.16187470293E+00  0.69615291675E+02  0.11487316555E+03  0.91372659954E+02 0.  0.
         23    2    1    2    0    0 -0.75242101284E+00  0.16187470293E+00  0.51877821772E+02  0.10506748341E+03  0.91363424506E+02 0.  0.
          5    1    4    4  502    0 -0.28104164965E+01  0.23969767103E+02  0.70335307357E+02  0.74509017151E+02  0.47000000000E+01 0. -1.
         -5    1    4    4    0  502  0.20579954837E+01 -0.23807892400E+02 -0.18457485585E+02  0.30558466258E+02  0.47000000000E+01 0.  1.
          5    1    3    3  503    0 -0.27995656000E+02  0.17536628302E+02  0.73351371046E+02  0.80584140632E+02  0.47000000000E+01 0. -1.
         -5    1    3    3    0  503  0.28748077013E+02 -0.17698503005E+02 -0.37360793718E+01  0.34289024915E+02  0.47000000000E+01 0.  1.
<mgrwt>
<rscale>  0 0.91373592E+02</rscale>
<asrwt>0</asrwt>
<pdfrwt beam="1">  1        2 0.26264135E-01 0.91375901E+02</pdfrwt>
<pdfrwt beam="2">  1       -2 0.75728875E-02 0.91375901E+02</pdfrwt>
<totfact> 0.18741052E+04</totfact>
</mgrwt>
</event>
<event>
 8    1  0.7366917E-004  0.1346305E+03  0.7546771E-02  0.1223261E+00
          2   -1    0    0  501    0  0.00000000000E+00  0.00000000000E+00  0.68428988889E+03  0.68428988889E+03  0.00000000000E+00 0. -1.
         -2   -1    0    0    0  501 -0.00000000000E+00 -0.00000000000E+00 -0.25411571275E+02  0.25411571275E+02  0.00000000000E+00 0.  1.
         23    2    1    2    0    0  0.59967142575E+02 -0.64804576520E+02  0.28454802089E+03  0.31189680277E+03  0.92284061790E+02 0.  0.
         23    2    1    2    0    0 -0.59967142575E+02  0.64804576520E+02  0.37433029673E+03  0.39780465740E+03  0.10163504844E+03 0.  0.
          5    1    4    4  502    0 -0.42552389498E+02 -0.17011359779E+02  0.18703824370E+03  0.19262784539E+03  0.47000000000E+01 0. -1.
         -5    1    3    3    0  503  0.49798466301E+02 -0.19677034603E+02  0.24508686511E+03  0.25091180600E+03  0.47000000000E+01 0.  1.
          5    1    3    3  503    0  0.10168676273E+02 -0.45127541917E+02  0.39461155778E+02  0.60984996778E+02  0.47000000000E+01 0. -1.
         -5    1    4    4    0  502 -0.17414753076E+02  0.81815936300E+02  0.18729205303E+03  0.20517681200E+03  0.47000000000E+01 0.  1.
<mgrwt>
<rscale>  0 0.13286823E+03</rscale>
<asrwt>0</asrwt>
<pdfrwt beam="1">  1        2 0.10527535E+00 0.13463051E+03</pdfrwt>
<pdfrwt beam="2">  1       -2 0.39094730E-02 0.13463051E+03</pdfrwt>
<totfact> 0.11705451E+04</totfact>
</mgrwt>
</event>
<event>
 8    1  0.7366917E-004  0.2091511E+03  0.7546771E-02  0.1142478E+00
          1   -1    0    0  501    0  0.00000000000E+00  0.00000000000E+00  0.33632282618E+03  0.33632282618E+03  0.00000000000E+00 0. -1.
         -1   -1    0    0    0  501 -0.00000000000E+00 -0.00000000000E+00 -0.26425061545E+03  0.26425061545E+03  0.00000000000E+00 0.  1.
         23    2    1    2    0    0 -0.98549100454E+01 -0.18855449776E+03  0.25065831824E+03  0.32645640101E+03  0.89968168706E+02 0.  0.
         23    2    1    2    0    0  0.98549100454E+01  0.18855449776E+03 -0.17858610751E+03  0.27411704062E+03  0.87162126431E+02 0.  0.
          5    1    4    4  502    0 -0.12107181229E+02  0.83214819130E+02 -0.27556836924E+02  0.88615795553E+02  0.47000000000E+01 0. -1.
         -5    1    3    3    0  503  0.31911277787E+02 -0.26558865629E+02  0.48854910837E+02  0.64285265080E+02  0.47000000000E+01 0.  1.
          5    1    3    3  503    0 -0.41766187833E+02 -0.16199563213E+03  0.20180340741E+03  0.26217113593E+03  0.47000000000E+01 0. -1.
         -5    1    4    4    0  502  0.21962091274E+02  0.10533967863E+03 -0.15102927059E+03  0.18550124506E+03  0.47000000000E+01 0.  1.
<mgrwt>
<rscale>  0 0.20885257E+03</rscale>
<asrwt>0</asrwt>
<pdfrwt beam="1">  1        1 0.51741973E-01 0.20915112E+03</pdfrwt>
<pdfrwt beam="2">  1       -1 0.40653941E-01 0.20915112E+03</pdfrwt>
<totfact> 0.45783661E+02</totfact>
</mgrwt>
</event>
<event>
 8    1  0.7366917E-004  0.9195948E+02  0.7546771E-02  0.1299161E+00
          2   -1    0    0  501    0  0.00000000000E+00  0.00000000000E+00  0.33491488149E+03  0.33491488149E+03  0.00000000000E+00 0. -1.
         -2   -1    0    0    0  501 -0.00000000000E+00 -0.00000000000E+00 -0.47906007823E+02  0.47906007823E+02  0.00000000000E+00 0.  1.
         23    2    1    2    0    0  0.18156767977E-01  0.11161186575E+02  0.27712203199E+03  0.29198144796E+03  0.91279641314E+02 0.  0.
         23    2    1    2    0    0 -0.18156767977E-01 -0.11161186575E+02  0.98868416693E+01  0.90839441353E+02  0.89607377217E+02 0.  0.
          5    1    3    3  502    0 -0.27763485121E+02 -0.13377155507E+02  0.22872494584E+03  0.23083966350E+03  0.47000000000E+01 0. -1.
         -5    1    4    4    0  503 -0.13375399140E+02  0.24570987916E+02 -0.25833692641E+02  0.38368013042E+02  0.47000000000E+01 0.  1.
          5    1    4    4  503    0  0.13357242372E+02 -0.35732174491E+02  0.35720534310E+02  0.52471428312E+02  0.47000000000E+01 0. -1.
         -5    1    3    3    0  502  0.27781641889E+02  0.24538342082E+02  0.48397086154E+02  0.61141784455E+02  0.47000000000E+01 0.  1.
<mgrwt>
<rscale>  0 0.91541720E+02</rscale>
<asrwt>0</asrwt>
<pdfrwt beam="1">  1        2 0.51525365E-01 0.91959477E+02</pdfrwt>
<pdfrwt beam="2">  1       -2 0.73701553E-02 0.91959477E+02</pdfrwt>
<totfact> 0.95841971E+03</totfact>
</mgrwt>
</event>
<event>
 8    1  0.7366917E-004  0.9896376E+02  0.7546771E-02  0.1283421E+00
          1   -1    0    0  501    0  0.00000000000E+00  0.00000000000E+00  0.14665214895E+03  0.14665214895E+03  0.00000000000E+00 0. -1.
         -1   -1    0    0    0  501 -0.00000000000E+00 -0.00000000000E+00 -0.45670220212E+03  0.45670220212E+03  0.00000000000E+00 0.  1.
         23    2    1    2    0    0  0.38034867155E+02  0.41259847750E+01 -0.43399120647E+03  0.44475033182E+03  0.89391361362E+02 0.  0.
         23    2    1    2    0    0 -0.38034867155E+02 -0.41259847750E+01  0.12394115330E+03  0.15860401926E+03  0.91269658556E+02 0.  0.
          5    1    4    4  502    0 -0.37657833558E+02 -0.36530732434E+02  0.11196442077E+03  0.12373652799E+03  0.47000000000E+01 0. -1.
         -5    1    4    4    0  502 -0.37703359681E+00  0.32404747659E+02  0.11976732531E+02  0.34867491267E+02  0.47000000000E+01 0.  1.
          5    1    3    3  503    0  0.15421529462E+02 -0.29556400006E+02 -0.62239000552E+02  0.70761483464E+02  0.47000000000E+01 0. -1.
         -5    1    3    3    0  503  0.22613337694E+02  0.33682384781E+02 -0.37175220592E+03  0.37398884835E+03  0.47000000000E+01 0.  1.
<mgrwt>
<rscale>  0 0.98528507E+02</rscale>
<asrwt>0</asrwt>
<pdfrwt beam="1">  1        1 0.22561870E-01 0.98963758E+02</pdfrwt>
<pdfrwt beam="2">  1       -1 0.70261875E-01 0.98963758E+02</pdfrwt>
<totfact> 0.46624569E+02</totfact>
</mgrwt>
</event>
<event>
 8    1  0.7366917E-004  0.1237916E+03  0.7546771E-02  0.1237369E+00
         -1   -1    0    0    0  501 -0.00000000000E+00  0.00000000000E+00  0.15055240203E+03  0.15055240203E+03  0.00000000000E+00 0.  1.
          1   -1    0    0  501    0  0.00000000000E+00 -0.00000000000E+00 -0.12016435743E+03  0.12016435743E+03  0.00000000000E+00 0. -1.
         23    2    1    2    0    0 -0.34247101683E+02 -0.75648121286E+02  0.69248606147E+02  0.14096886729E+03  0.90450814612E+02 0.  0.
         23    2    1    2    0    0  0.34247101683E+02  0.75648121286E+02 -0.38860561542E+02  0.12974789217E+03  0.91808877850E+02 0.  0.
          5    1    4    4  502    0 -0.33504853738E+01  0.33460174649E+02 -0.60236648395E+02  0.69147327134E+02  0.47000000000E+01 0. -1.
         -5    1    3    3    0  503 -0.55853226257E+02 -0.40274426075E+02  0.11876592356E+02  0.70033961226E+02  0.47000000000E+01 0.  1.
          5    1    3    3  503    0  0.21606124574E+02 -0.35373695211E+02  0.57372013791E+02  0.70934906065E+02  0.47000000000E+01 0. -1.
         -5    1    4    4    0  502  0.37597587056E+02  0.42187946636E+02  0.21376086853E+02  0.60600565039E+02  0.47000000000E+01 0.  1.
<mgrwt>
<rscale>  0 0.12353993E+03</rscale>
<asrwt>0</asrwt>
<pdfrwt beam="1">  1        1 0.18486824E-01 0.12379165E+03</pdfrwt>
<pdfrwt beam="2">  1       -1 0.23161908E-01 0.12379165E+03</pdfrwt>
<totfact> 0.42648426E+03</totfact>
</mgrwt>
</event>
<event>
 8    1  0.7366917E-004  0.9532726E+02  0.7546771E-02  0.1290807E+00
          2   -1    0    0  501    0  0.00000000000E+00  0.00000000000E+00  0.59293991232E+03  0.59293991232E+03  0.00000000000E+00 0. -1.
         -2   -1    0    0    0  501 -0.00000000000E+00 -0.00000000000E+00 -0.15360684993E+02  0.15360684993E+02  0.00000000000E+00 0.  1.
         23    2    1    2    0    0  0.14282089219E+02 -0.18845648990E+02  0.26079289532E+03  0.27766926463E+03  0.92347981634E+02 0.  0.
         23    2    1    2    0    0 -0.14282089219E+02  0.18845648990E+02  0.31678633200E+03  0.33063133268E+03  0.91675304456E+02 0.  0.
          5    1    3    3  502    0  0.33491130575E+02 -0.41519478820E+02  0.22312395311E+03  0.22946004314E+03  0.47000000000E+01 0. -1.
         -5    1    3    3    0  502 -0.19209041356E+02  0.22673829830E+02  0.37668942216E+02  0.48209221490E+02  0.47000000000E+01 0.  1.
          5    1    4    4  503    0  0.35493632538E+02 -0.23426173816E+01  0.79669521785E+02  0.87376246820E+02  0.47000000000E+01 0. -1.
         -5    1    4    4    0  503 -0.49775721758E+02  0.21188266371E+02  0.23711681022E+03  0.24325508586E+03  0.47000000000E+01 0.  1.
<mgrwt>
<rscale>  0 0.95163963E+02</rscale>
<asrwt>0</asrwt>
<pdfrwt beam="1">  1        2 0.91221507E-01 0.95327259E+02</pdfrwt>
<pdfrwt beam="2">  1       -2 0.23631828E-02 0.95327259E+02</pdfrwt>
<totfact> 0.27986073E+04</totfact>
</mgrwt>
</event>
<event>
 8    1  0.7366917E-004  0.9557779E+02  0.7546771E-02  0.1291910E+00
          2   -1    0    0  501    0  0.00000000000E+00  0.00000000000E+00  0.48055290233E+03  0.48055290233E+03  0.00000000000E+00 0. -1.
         -2   -1    0    0    0  501 -0.00000000000E+00 -0.00000000000E+00 -0.18361703611E+02  0.18361703611E+02  0.00000000000E+00 0.  1.
         23    2    1    2    0    0  0.20873110478E+02  0.96594955039E+01  0.24020435923E+03  0.25722623184E+03  0.89096619241E+02 0.  0.
         23    2    1    2    0    0 -0.20873110478E+02 -0.96594955039E+01  0.22198683949E+03  0.24168837410E+03  0.92769179544E+02 0.  0.
          5    1    4    4  502    0 -0.72499222922E+01  0.37929142582E+02  0.14430130939E+03  0.14945279897E+03  0.47000000000E+01 0. -1.
         -5    1    4    4    0  502 -0.13623188185E+02 -0.47588638086E+02  0.77685530099E+02  0.92235575121E+02  0.47000000000E+01 0.  1.
          5    1    3    3  503    0 -0.11040033929E+02 -0.21462648622E+02  0.17814026654E+02  0.30363747804E+02  0.47000000000E+01 0. -1.
         -5    1    3    3    0  503  0.31913144406E+02  0.31122144126E+02  0.22239033258E+03  0.22686248404E+03  0.47000000000E+01 0.  1.
<mgrwt>
<rscale>  0 0.94674976E+02</rscale>
<asrwt>0</asrwt>
<pdfrwt beam="1">  1        2 0.73931206E-01 0.95577786E+02</pdfrwt>
<pdfrwt beam="2">  1       -2 0.28248778E-02 0.95577786E+02</pdfrwt>
<totfact> 0.27211952E+04</totfact>
</mgrwt>
</event>
<event>
 8    1  0.7366917E-004  0.1197822E+03  0.7546771E-02  0.1244326E+00
          1   -1    0    0  501    0  0.00000000000E+00  0.00000000000E+00  0.32553887494E+02  0.32553887494E+02  0.00000000000E+00 0. -1.
         -1   -1    0    0    0  501 -0.00000000000E+00 -0.00000000000E+00 -0.50093421055E+03  0.50093421055E+03  0.00000000000E+00 0.  1.
         23    2    1    2    0    0 -0.17817570288E+02 -0.74810047605E+02 -0.13426867182E+03  0.17855378814E+03  0.89103142450E+02 0.  0.
         23    2    1    2    0    0  0.17817570288E+02  0.74810047605E+02 -0.33411165123E+03  0.35493430990E+03  0.91835504130E+02 0.  0.
          5    1    4    4  502    0 -0.35436804889E+02  0.47867057419E+02 -0.17642334173E+03  0.18626408090E+03  0.47000000000E+01 0. -1.
         -5    1    3    3    0  503  0.13764066247E+02 -0.80415725015E+02 -0.11419784138E+03  0.14042569326E+03  0.47000000000E+01 0. -1.
          5    1    3    3  503    0 -0.31581636535E+02  0.56056774100E+01 -0.20070830437E+02  0.38128094889E+02  0.47000000000E+01 0.  1.
         -5    1    4    4    0  502  0.53254375177E+02  0.26942990187E+02 -0.15768830950E+03  0.16867022899E+03  0.47000000000E+01 0.  1.
<mgrwt>
<rscale>  0 0.11925830E+03</rscale>
<asrwt>0</asrwt>
<pdfrwt beam="1">  1        1 0.50082906E-02 0.11978217E+03</pdfrwt>
<pdfrwt beam="2">  1       -1 0.77066798E-01 0.11978217E+03</pdfrwt>
<totfact> 0.28046872E+03</totfact>
</mgrwt>
</event>
<event>
 8    1  0.7366917E-004  0.1016785E+03  0.7546771E-02  0.1278234E+00
          1   -1    0    0  501    0  0.00000000000E+00  0.00000000000E+00  0.30710496648E+03  0.30710496648E+03  0.00000000000E+00 0. -1.
         -1   -1    0    0    0  501 -0.00000000000E+00 -0.00000000000E+00 -0.33622593966E+02  0.33622593966E+02  0.00000000000E+00 0.  1.
         23    2    1    2    0    0  0.41089518396E+02  0.66881825913E+01  0.16577521579E+03  0.19447349468E+03  0.92765498182E+02 0.  0.
         23    2    1    2    0    0 -0.41089518396E+02 -0.66881825913E+01  0.10770715672E+03  0.14625406576E+03  0.89757115795E+02 0.  0.
          5    1    3    3  502    0 -0.49343721888E+01 -0.25092568694E+02  0.11780267070E+03  0.12063807134E+03  0.47000000000E+01 0. -1.
         -5    1    3    3    0  502  0.46023890585E+02  0.31780751285E+02  0.47972545091E+02  0.73835423337E+02  0.47000000000E+01 0.  1.
          5    1    4    4  503    0 -0.41618643350E+02 -0.39661463921E+02  0.38220598823E+02  0.69195717852E+02  0.47000000000E+01 0. -1.
         -5    1    4    4    0  503  0.52912495326E+00  0.32973281330E+02  0.69486557896E+02  0.77058347913E+02  0.47000000000E+01 0.  1.
<mgrwt>
<rscale>  0 0.10098723E+03</rscale>
<asrwt>0</asrwt>
<pdfrwt beam="1">  1        1 0.47246916E-01 0.10167850E+03</pdfrwt>
<pdfrwt beam="2">  1       -1 0.51727070E-02 0.10167850E+03</pdfrwt>
<totfact> 0.13052190E+04</totfact>
</mgrwt>
</event>
<event>
 8    1  0.7366917E-004  0.1162615E+03  0.7546771E-02  0.1250365E+00
          1   -1    0    0  501    0  0.00000000000E+00  0.00000000000E+00  0.36240538057E+03  0.36240538057E+03  0.00000000000E+00 0. -1.
         -1   -1    0    0    0  501 -0.00000000000E+00 -0.00000000000E+00 -0.46185612468E+02  0.46185612468E+02  0.00000000000E+00 0.  1.
         23    2    1    2    0    0 -0.45921838747E+02  0.57021754942E+02  0.66182317401E+02  0.13377902372E+03  0.90312968287E+02 0.  0.
         23    2    1    2    0    0  0.45921838747E+02 -0.57021754942E+02  0.25003745070E+03  0.27481196932E+03  0.87421941843E+02 0.  0.
          5    1    4    4  502    0  0.18252836489E+02 -0.68818026844E+02  0.22285490757E+03  0.23399890318E+03  0.47000000000E+01 0. -1.
         -5    1    4    4    0  502  0.27669002259E+02  0.11796271902E+02  0.27182543129E+02  0.40813066140E+02  0.47000000000E+01 0.  1.
          5    1    3    3  503    0  0.21531417056E+02 -0.57520709972E+01  0.21273069504E+02  0.31166034835E+02  0.47000000000E+01 0. -1.
         -5    1    3    3    0  503 -0.67453255804E+02  0.62773825939E+02  0.44909247897E+02  0.10261298889E+03  0.47000000000E+01 0.  1.
<mgrwt>
<rscale>  0 0.11569959E+03</rscale>
<asrwt>0</asrwt>
<pdfrwt beam="1">  1        1 0.55754672E-01 0.11626146E+03</pdfrwt>
<pdfrwt beam="2">  1       -1 0.71054791E-02 0.11626146E+03</pdfrwt>
<totfact> 0.67177062E+03</totfact>
</mgrwt>
</event>
<event>
 8    1  0.7366917E-004  0.1449896E+03  0.7546771E-02  0.1206935E+00
          3   -1    0    0  501    0  0.00000000000E+00  0.00000000000E+00  0.42389755143E+03  0.42389755143E+03  0.00000000000E+00 0. -1.
         -3   -1    0    0    0  501 -0.00000000000E+00 -0.00000000000E+00 -0.19009760792E+03  0.19009760792E+03  0.00000000000E+00 0.  1.
         23    2    1    2    0    0 -0.10248190665E+03 -0.45614262871E+02 -0.14714433496E+03  0.20657552445E+03  0.91862885986E+02 0.  0.
         23    2    1    2    0    0  0.10248190665E+03  0.45614262871E+02  0.38094427846E+03  0.40741963490E+03  0.91044019244E+02 0.  0.
          5    1    3    3  502    0 -0.17674304885E+02 -0.55531039598E+02 -0.71897606639E+02  0.92668404823E+02  0.47000000000E+01 0. -1.
         -5    1    3    3    0  502 -0.84807601768E+02  0.99167767268E+01 -0.75246728320E+02  0.11390711962E+03  0.47000000000E+01 0.  1.
          5    1    4    4  503    0  0.85484824146E+02  0.10119338846E+02  0.33867454790E+03  0.34947474240E+03  0.47000000000E+01 0. -1.
         -5    1    4    4    0  503  0.16997082508E+02  0.35494924025E+02  0.42269730560E+02  0.57944892500E+02  0.47000000000E+01 0.  1.
<mgrwt>
<rscale>  0 0.14486010E+03</rscale>
<asrwt>0</asrwt>
<pdfrwt beam="1">  1        3 0.65215008E-01 0.14498963E+03</pdfrwt>
<pdfrwt beam="2">  1       -3 0.29245786E-01 0.14498963E+03</pdfrwt>
<totfact> 0.61881863E+01</totfact>
</mgrwt>
</event>
<event>
 8    1  0.7366917E-004  0.9368878E+02  0.7546771E-02  0.1296629E+00
         -2   -1    0    0    0  501 -0.00000000000E+00  0.00000000000E+00  0.78129083237E+02  0.78129083237E+02  0.00000000000E+00 0.  1.
          2   -1    0    0  501    0  0.00000000000E+00 -0.00000000000E+00 -0.19349991150E+03  0.19349991150E+03  0.00000000000E+00 0. -1.
         23    2    1    2    0    0 -0.40130773175E+01  0.74741163929E+01 -0.14902191564E+03  0.17602590333E+03  0.93303912554E+02 0.  0.
         23    2    1    2    0    0  0.40130773175E+01 -0.74741163929E+01  0.33651087368E+02  0.95603091413E+02  0.89081918487E+02 0.  0.
          5    1    4    4  502    0  0.10700058658E+02  0.37473674357E+02  0.30681468019E+02  0.49821782434E+02  0.47000000000E+01 0. -1.
         -5    1    3    3    0  503 -0.33107823939E+02  0.14106027479E+01 -0.11714585996E+02  0.35460391018E+02  0.47000000000E+01 0.  1.
          5    1    3    3  503    0  0.29094746622E+02  0.60635136449E+01 -0.13730732964E+03  0.14056551231E+03  0.47000000000E+01 0. -1.
         -5    1    4    4    0  502 -0.66869813406E+01 -0.44947790750E+02  0.29696193487E+01  0.45781308979E+02  0.47000000000E+01 0.  1.
<mgrwt>
<rscale>  0 0.92619659E+02</rscale>
<asrwt>0</asrwt>
<pdfrwt beam="1">  1        2 0.29769217E-01 0.93688779E+02</pdfrwt>
<pdfrwt beam="2">  1       -2 0.12019859E-01 0.93688779E+02</pdfrwt>
<totfact> 0.80183614E+03</totfact>
</mgrwt>
</event>
<event>
 8    1  0.7366917E-004  0.1298548E+03  0.7546771E-02  0.1227789E+00
         -2   -1    0    0    0  501 -0.00000000000E+00  0.00000000000E+00  0.32474836490E+03  0.32474836490E+03  0.00000000000E+00 0.  1.
          2   -1    0    0  501    0  0.00000000000E+00 -0.00000000000E+00 -0.11720892746E+03  0.11720892746E+03  0.00000000000E+00 0. -1.
         23    2    1    2    0    0 -0.14480712341E+02  0.91012913333E+02  0.26879403528E+03  0.29838016105E+03  0.91035408942E+02 0.  0.
         23    2    1    2    0    0  0.14480712341E+02 -0.91012913333E+02 -0.61254597845E+02  0.14357713131E+03  0.91483470939E+02 0.  0.
          5    1    4    4  502    0  0.44740378647E+02 -0.41355942255E+02 -0.59381338730E+02  0.85207093781E+02  0.47000000000E+01 0. -1.
         -5    1    4    4    0  502 -0.30259666306E+02 -0.49656971078E+02 -0.18732591160E+01  0.58370037531E+02  0.47000000000E+01 0.  1.
          5    1    3    3  503    0 -0.18925364880E+02 -0.13847310098E+02  0.61410852648E+02  0.65903719589E+02  0.47000000000E+01 0. -1.
         -5    1    3    3    0  503  0.44446525387E+01  0.10486022343E+03  0.20738318264E+03  0.23247644146E+03  0.47000000000E+01 0.  1.
<mgrwt>
<rscale>  0 0.12977590E+03</rscale>
<asrwt>0</asrwt>
<pdfrwt beam="1">  1        2 0.18032143E-01 0.12985479E+03</pdfrwt>
<pdfrwt beam="2">  1       -2 0.49961287E-01 0.12985479E+03</pdfrwt>
<totfact> 0.11784481E+03</totfact>
</mgrwt>
</event>
<event>
 8    1  0.7366917E-004  0.2445222E+03  0.7546771E-02  0.1117281E+00
          1   -1    0    0  501    0  0.00000000000E+00  0.00000000000E+00  0.22066354624E+04  0.22066354624E+04  0.00000000000E+00 0. -1.
         -1   -1    0    0    0  501 -0.00000000000E+00 -0.00000000000E+00 -0.26790602454E+02  0.26790602454E+02  0.00000000000E+00 0.  1.
         23    2    1    2    0    0 -0.20228237736E+03 -0.10247233246E+03  0.10636625338E+04  0.10907738542E+04  0.83611458818E+02 0.  0.
         23    2    1    2    0    0  0.20228237736E+03  0.10247233246E+03  0.11161823262E+04  0.11426522107E+04  0.91500547761E+02 0.  0.
          5    1    4    4  502    0  0.90881278310E+02  0.62229512985E+02  0.74190976861E+03  0.75005607376E+03  0.47000000000E+01 0. -1.
         -5    1    3    3    0  503 -0.13612544112E+03 -0.25813981140E+02  0.67673282698E+03  0.69078644055E+03  0.47000000000E+01 0.  1.
          5    1    3    3  503    0 -0.66156936245E+02 -0.76658351319E+02  0.38692970681E+03  0.39998741361E+03  0.47000000000E+01 0. -1.
         -5    1    4    4    0  502  0.11140109905E+03  0.40242819475E+02  0.37427255756E+03  0.39259613693E+03  0.47000000000E+01 0.  1.
<mgrwt>
<rscale>  0 0.24380871E+03</rscale>
<asrwt>0</asrwt>
<pdfrwt beam="1">  1        1 0.33948224E+00 0.24452217E+03</pdfrwt>
<pdfrwt beam="2">  1       -1 0.41216329E-02 0.24452217E+03</pdfrwt>
<totfact> 0.58403167E+02</totfact>
</mgrwt>
</event>
<event>
 8    1  0.7366917E-004  0.1327552E+03  0.7546771E-02  0.1223762E+00
         -2   -1    0    0    0  501 -0.00000000000E+00  0.00000000000E+00  0.15310399170E+02  0.15310399170E+02  0.00000000000E+00 0.  1.
          2   -1    0    0  501    0  0.00000000000E+00 -0.00000000000E+00 -0.13089969696E+04  0.13089969696E+04  0.00000000000E+00 0. -1.
         23    2    1    2    0    0  0.93185348501E+02  0.33759727417E+02 -0.88461890841E+03  0.89452476592E+03  0.88321658479E+02 0.  0.
         23    2    1    2    0    0 -0.93185348501E+02 -0.33759727417E+02 -0.40906766202E+03  0.42978260285E+03  0.86910903989E+02 0.  0.
          5    1    3    3  502    0  0.74526831284E+02  0.63033580892E+02 -0.65336373718E+03  0.66063132227E+03  0.47000000000E+01 0. -1.
         -5    1    4    4    0  503 -0.86181114232E+02  0.90034995686E+01 -0.30090191962E+03  0.31316497678E+03  0.47000000000E+01 0.  1.
          5    1    4    4  503    0 -0.70042342686E+01 -0.42763226986E+02 -0.10816574241E+03  0.11661762607E+03  0.47000000000E+01 0. -1.
         -5    1    3    3    0  502  0.18658517217E+02 -0.29273853475E+02 -0.23125517123E+03  0.23389344365E+03  0.47000000000E+01 0.  1.
<mgrwt>
<rscale>  0 0.13252099E+03</rscale>
<asrwt>0</asrwt>
<pdfrwt beam="1">  1        2 0.20138407E+00 0.13275520E+03</pdfrwt>
<pdfrwt beam="2">  1       -2 0.23554470E-02 0.13275520E+03</pdfrwt>
<totfact> 0.10212058E+04</totfact>
</mgrwt>
</event>
<event>
 8    1  0.7366917E-004  0.1090031E+03  0.7546771E-02  0.1262655E+00
         -1   -1    0    0    0  501 -0.00000000000E+00  0.00000000000E+00  0.57711767233E+02  0.57711767233E+02  0.00000000000E+00 0.  1.
          1   -1    0    0  501    0  0.00000000000E+00 -0.00000000000E+00 -0.20502464086E+03  0.20502464086E+03  0.00000000000E+00 0. -1.
         23    2    1    2    0    0 -0.44287481147E+02  0.40250961857E+02 -0.71235341653E+02  0.12980989244E+03  0.90524103736E+02 0.  0.
         23    2    1    2    0    0  0.44287481147E+02 -0.40250961857E+02 -0.76077531978E+02  0.13292651566E+03  0.91105141332E+02 0.  0.
          5    1    3    3  502    0 -0.14446999016E+02  0.56285288950E+02 -0.92683483910E+01  0.59031701777E+02  0.47000000000E+01 0. -1.
         -5    1    3    3    0  502 -0.29840482131E+02 -0.16034327093E+02 -0.61966993262E+02  0.70778190660E+02  0.47000000000E+01 0.  1.
          5    1    4    4  503    0  0.15622404254E+02 -0.14147192881E+02 -0.89161765158E+02  0.91739375119E+02  0.47000000000E+01 0. -1.
         -5    1    4    4    0  503  0.28665076894E+02 -0.26103768976E+02  0.13084233180E+02  0.41187140542E+02  0.47000000000E+01 0.  1.
<mgrwt>
<rscale>  0 0.10888157E+03</rscale>
<asrwt>0</asrwt>
<pdfrwt beam="1">  1        1 0.31542252E-01 0.10900306E+03</pdfrwt>
<pdfrwt beam="2">  1       -1 0.88787335E-02 0.10900306E+03</pdfrwt>
<totfact> 0.96535602E+03</totfact>
</mgrwt>
</event>
<event>
 8    1  0.7366917E-004  0.1491059E+03  0.7546771E-02  0.1202955E+00
          3   -1    0    0  501    0  0.00000000000E+00  0.00000000000E+00  0.38757606229E+03  0.38757606229E+03  0.00000000000E+00 0. -1.
         -3   -1    0    0    0  501 -0.00000000000E+00 -0.00000000000E+00 -0.69537976063E+02  0.69537976063E+02  0.00000000000E+00 0.  1.
         23    2    1    2    0    0  0.57479436120E+02  0.10047135908E+03  0.55130667495E+02  0.15486763103E+03  0.86868941920E+02 0.  0.
         23    2    1    2    0    0 -0.57479436120E+02 -0.10047135908E+03  0.26290741873E+03  0.30224640733E+03  0.93990426889E+02 0.  0.
          5    1    3    3  502    0  0.29203433137E+02  0.14062172781E+02  0.54783988336E+02  0.63827584854E+02  0.47000000000E+01 0. -1.
         -5    1    3    3    0  502  0.28276002983E+02  0.86409186295E+02  0.34667915988E+00  0.91040046173E+02  0.47000000000E+01 0.  1.
          5    1    4    4  503    0 -0.83049319715E+02 -0.81259007080E+02  0.19507344305E+03  0.22710339918E+03  0.47000000000E+01 0. -1.
         -5    1    4    4    0  503  0.25569883595E+02 -0.19212351996E+02  0.67833975680E+02  0.75143008143E+02  0.47000000000E+01 0.  1.
<mgrwt>
<rscale>  0 0.14799778E+03</rscale>
<asrwt>0</asrwt>
<pdfrwt beam="1">  1        3 0.59627085E-01 0.14910594E+03</pdfrwt>
<pdfrwt beam="2">  1       -3 0.10698150E-01 0.14910594E+03</pdfrwt>
<totfact> 0.43267220E+02</totfact>
</mgrwt>
</event>
<event>
 8    1  0.7366917E-004  0.1096442E+03  0.7546771E-02  0.1264923E+00
          2   -1    0    0  501    0  0.00000000000E+00  0.00000000000E+00  0.27176324369E+03  0.27176324369E+03  0.00000000000E+00 0. -1.
         -2   -1    0    0    0  501 -0.00000000000E+00 -0.00000000000E+00 -0.42404680697E+02  0.42404680697E+02  0.00000000000E+00 0.  1.
         23    2    1    2    0    0 -0.28525596857E+02 -0.32124347392E+02  0.14506923449E+03  0.18184315374E+03  0.10087698646E+03 0.  0.
         23    2    1    2    0    0  0.28525596857E+02  0.32124347392E+02  0.84289328507E+02  0.13232477065E+03  0.92517407307E+02 0.  0.
          5    1    4    4  502    0  0.48173697295E+02  0.14105302964E+02  0.91358550935E+02  0.10434624819E+03  0.47000000000E+01 0. -1.
         -5    1    4    4    0  502 -0.19648100438E+02  0.18019044429E+02 -0.70692224280E+01  0.27978522454E+02  0.47000000000E+01 0.  1.
          5    1    3    3  503    0 -0.75003189659E+01  0.33352375304E+02  0.79684536029E+02  0.86835194507E+02  0.47000000000E+01 0. -1.
         -5    1    3    3    0  503 -0.21025277891E+02 -0.65476722696E+02  0.65384698459E+02  0.95007959235E+02  0.47000000000E+01 0.  1.
<mgrwt>
<rscale>  0 0.10768254E+03</rscale>
<asrwt>0</asrwt>
<pdfrwt beam="1">  1        2 0.41809729E-01 0.10964420E+03</pdfrwt>
<pdfrwt beam="2">  1       -2 0.65237972E-02 0.10964420E+03</pdfrwt>
<totfact> 0.14582137E+04</totfact>
</mgrwt>
</event>
<event>
 8    1  0.7366917E-004  0.1024294E+03  0.7546771E-02  0.1276212E+00
          3   -1    0    0  501    0  0.00000000000E+00  0.00000000000E+00  0.17811406371E+03  0.17811406371E+03  0.00000000000E+00 0. -1.
         -3   -1    0    0    0  501 -0.00000000000E+00 -0.00000000000E+00 -0.58838155072E+02  0.58838155072E+02  0.00000000000E+00 0.  1.
         23    2    1    2    0    0 -0.11830079282E+02  0.42384205958E+02  0.43788269740E+02  0.10971162782E+03  0.90459145591E+02 0.  0.
         23    2    1    2    0    0  0.11830079282E+02 -0.42384205958E+02  0.75487638901E+02  0.12724059097E+03  0.92495473794E+02 0.  0.
          5    1    4    4  502    0  0.36485568973E+02 -0.13928265223E+02  0.79883605787E+02  0.89043100737E+02  0.47000000000E+01 0. -1.
         -5    1    4    4    0  502 -0.24655489691E+02 -0.28455940735E+02 -0.43959668858E+01  0.38197490230E+02  0.47000000000E+01 0.  1.
          5    1    3    3  503    0  0.33251609626E+02  0.43579967432E+02  0.27722436568E+02  0.61607682908E+02  0.47000000000E+01 0. -1.
         -5    1    3    3    0  503 -0.45081688908E+02 -0.11957614738E+01  0.16065833171E+02  0.48103944909E+02  0.47000000000E+01 0.  1.
<mgrwt>
<rscale>  0 0.10196754E+03</rscale>
<asrwt>0</asrwt>
<pdfrwt beam="1">  1        3 0.27402163E-01 0.10242941E+03</pdfrwt>
<pdfrwt beam="2">  1       -3 0.90520239E-02 0.10242941E+03</pdfrwt>
<totfact> 0.23990548E+03</totfact>
</mgrwt>
</event>
<event>
 8    1  0.7366917E-004  0.9865318E+02  0.7546771E-02  0.1284998E+00
         -1   -1    0    0    0  501 -0.00000000000E+00  0.00000000000E+00  0.79742055631E+02  0.79742055631E+02  0.00000000000E+00 0.  1.
          1   -1    0    0  501    0  0.00000000000E+00 -0.00000000000E+00 -0.12482335697E+03  0.12482335697E+03  0.00000000000E+00 0. -1.
         23    2    1    2    0    0 -0.15417497221E+02 -0.33574791692E+02 -0.46250883723E+02  0.10590529679E+03  0.87816978909E+02 0.  0.
         23    2    1    2    0    0  0.15417497221E+02  0.33574791692E+02  0.11695823852E+01  0.98660115813E+02  0.91473956247E+02 0.  0.
          5    1    4    4  502    0  0.28752210562E+02 -0.24564518724E+02  0.62264517583E+01  0.38613001616E+02  0.47000000000E+01 0. -1.
         -5    1    3    3    0  503 -0.44473541342E+02 -0.27869711624E+02 -0.53465005975E+02  0.75068059582E+02  0.47000000000E+01 0.  1.
          5    1    3    3  503    0  0.29056044121E+02 -0.57050800678E+01  0.72141222527E+01  0.30837237205E+02  0.47000000000E+01 0. -1.
         -5    1    4    4    0  502 -0.13334713341E+02  0.58139310415E+02 -0.50568693731E+01  0.60047114196E+02  0.47000000000E+01 0.  1.
<mgrwt>
<rscale>  0 0.97796846E+02</rscale>
<asrwt>0</asrwt>
<pdfrwt beam="1">  1        1 0.19203593E-01 0.98653183E+02</pdfrwt>
<pdfrwt beam="2">  1       -1 0.12268009E-01 0.98653183E+02</pdfrwt>
<totfact> 0.10866025E+04</totfact>
</mgrwt>
</event>
<event>
 8    1  0.7366917E-004  0.9303746E+02  0.7546771E-02  0.1296601E+00
          1   -1    0    0  501    0  0.00000000000E+00  0.00000000000E+00  0.11157099015E+03  0.11157099015E+03  0.00000000000E+00 0. -1.
         -1   -1    0    0    0  501 -0.00000000000E+00 -0.00000000000E+00 -0.13304893091E+03  0.13304893091E+03  0.00000000000E+00 0.  1.
         23    2    1    2    0    0  0.43174176779E+01 -0.31760407264E+00 -0.90710224347E+02  0.12993965507E+03  0.92936689160E+02 0.  0.
         23    2    1    2    0    0 -0.43174176779E+01  0.31760407264E+00  0.69232283590E+02  0.11468026599E+03  0.91322031012E+02 0.  0.
          5    1    3    3  502    0  0.32092313521E+02 -0.19022267917E+02 -0.51655684763E+01  0.37954398448E+02  0.47000000000E+01 0. -1.
         -5    1    4    4    0  503  0.31583756583E+02  0.30486202636E+02  0.30230908328E+02  0.53506448671E+02  0.47000000000E+01 0.  1.
          5    1    4    4  503    0 -0.35901174261E+02 -0.30168598564E+02  0.39001375262E+02  0.61173817316E+02  0.47000000000E+01 0. -1.
         -5    1    3    3    0  502 -0.27774895843E+02  0.18704663844E+02 -0.85544655871E+02  0.91985256626E+02  0.47000000000E+01 0.  1.
<mgrwt>
<rscale>  0 0.92631593E+02</rscale>
<asrwt>0</asrwt>
<pdfrwt beam="1">  1        1 0.17164768E-01 0.93037461E+02</pdfrwt>
<pdfrwt beam="2">  1       -1 0.20469066E-01 0.93037461E+02</pdfrwt>
<totfact> 0.56072933E+03</totfact>
</mgrwt>
</event>
<event>
 8    1  0.7366917E-004  0.1373113E+03  0.7546771E-02  0.1217257E+00
          1   -1    0    0  501    0  0.00000000000E+00  0.00000000000E+00  0.48031464853E+03  0.48031464853E+03  0.00000000000E+00 0. -1.
         -1   -1    0    0    0  501 -0.00000000000E+00 -0.00000000000E+00 -0.65127782769E+02  0.65127782769E+02  0.00000000000E+00 0.  1.
         23    2    1    2    0    0  0.94964341116E+02 -0.35202468548E+02  0.37986244319E+03  0.40366019492E+03  0.91589504522E+02 0.  0.
         23    2    1    2    0    0 -0.94964341116E+02  0.35202468548E+02  0.35324422563E+02  0.14178223637E+03  0.92719727383E+02 0.  0.
          5    1    4    4  502    0 -0.46020378751E+02 -0.27277859106E+02 -0.24471133943E+01  0.53759047813E+02  0.47000000000E+01 0. -1.
         -5    1    4    4    0  502 -0.48943962365E+02  0.62480327654E+02  0.37771535957E+02  0.88023188560E+02  0.47000000000E+01 0.  1.
          5    1    3    3  503    0 -0.18014556861E+01 -0.31041169961E+02  0.16442946809E+03  0.16740949630E+03  0.47000000000E+01 0. -1.
         -5    1    3    3    0  503  0.96765796802E+02 -0.41612985876E+01  0.21543297511E+03  0.23625069863E+03  0.47000000000E+01 0.  1.
<mgrwt>
<rscale>  0 0.13712072E+03</rscale>
<asrwt>0</asrwt>
<pdfrwt beam="1">  1        1 0.73894559E-01 0.13731128E+03</pdfrwt>
<pdfrwt beam="2">  1       -1 0.10019659E-01 0.13731128E+03</pdfrwt>
<totfact> 0.28237409E+03</totfact>
</mgrwt>
</event>
<event>
 8    1  0.7366917E-004  0.9973945E+02  0.7546771E-02  0.1282850E+00
          1   -1    0    0  501    0  0.00000000000E+00  0.00000000000E+00  0.59522383770E+02  0.59522383770E+02  0.00000000000E+00 0. -1.
         -1   -1    0    0    0  501 -0.00000000000E+00 -0.00000000000E+00 -0.23637661214E+03  0.23637661214E+03  0.00000000000E+00 0.  1.
         23    2    1    2    0    0  0.22140790294E+02  0.20196230833E+02 -0.17084637999E+03  0.19597876996E+03  0.91220010871E+02 0.  0.
         23    2    1    2    0    0 -0.22140790294E+02 -0.20196230833E+02 -0.60078483722E+01  0.99920225946E+02  0.95130725721E+02 0.  0.
          5    1    4    4  502    0 -0.38731725865E+02 -0.51081267857E+02 -0.59006179774E+01  0.64547268005E+02  0.47000000000E+01 0. -1.
         -5    1    3    3    0  503 -0.22315743677E+02 -0.12517717081E+02 -0.11272115916E+03  0.11568420540E+03  0.47000000000E+01 0.  1.
          5    1    3    3  503    0  0.44456533971E+02  0.32713947913E+02 -0.58125220835E+02  0.80294564560E+02  0.47000000000E+01 0. -1.
         -5    1    4    4    0  502  0.16590935571E+02  0.30885037024E+02 -0.10723039479E+00  0.35372957941E+02  0.47000000000E+01 0.  1.
<mgrwt>
<rscale>  0 0.98795424E+02</rscale>
<asrwt>0</asrwt>
<pdfrwt beam="1">  1        1 0.91572898E-02 0.99739447E+02</pdfrwt>
<pdfrwt beam="2">  1       -1 0.36365633E-01 0.99739447E+02</pdfrwt>
<totfact> 0.49338325E+03</totfact>
</mgrwt>
</event>
<event>
 8    1  0.7366917E-004  0.9500693E+02  0.7546771E-02  0.1291507E+00
          2   -1    0    0  501    0  0.00000000000E+00  0.00000000000E+00  0.62770133161E+03  0.62770133161E+03  0.00000000000E+00 0. -1.
         -2   -1    0    0    0  501 -0.00000000000E+00 -0.00000000000E+00 -0.15665466179E+02  0.15665466179E+02  0.00000000000E+00 0.  1.
         23    2    1    2    0    0 -0.85885366722E+01  0.27191811574E+02  0.20969604838E+03  0.22996185714E+03  0.89982584170E+02 0.  0.
         23    2    1    2    0    0  0.85885366722E+01 -0.27191811574E+02  0.40233981705E+03  0.41340494065E+03  0.90626480627E+02 0.  0.
          5    1    4    4  502    0  0.43074112393E+02 -0.28693393683E+02  0.31694922332E+03  0.32118155328E+03  0.47000000000E+01 0. -1.
         -5    1    3    3    0  503 -0.17103786712E+02  0.57005693776E+02  0.16409650614E+03  0.17461942037E+03  0.47000000000E+01 0.  1.
          5    1    3    3  503    0  0.85152500402E+01 -0.29813882202E+02  0.45599542245E+02  0.55342436774E+02  0.47000000000E+01 0. -1.
         -5    1    4    4    0  502 -0.34485575721E+02  0.15015821091E+01  0.85390593724E+02  0.92223387371E+02  0.47000000000E+01 0.  1.
<mgrwt>
<rscale>  0 0.94853053E+02</rscale>
<asrwt>0</asrwt>
<pdfrwt beam="1">  1        2 0.96569416E-01 0.95006929E+02</pdfrwt>
<pdfrwt beam="2">  1       -2 0.24100722E-02 0.95006929E+02</pdfrwt>
<totfact> 0.25503967E+04</totfact>
</mgrwt>
</event>
<event>
 8    1  0.7366917E-004  0.9116772E+02  0.7546771E-02  0.1300915E+00
         -2   -1    0    0    0  501 -0.00000000000E+00  0.00000000000E+00  0.52608401457E+02  0.52608401457E+02  0.00000000000E+00 0.  1.
          2   -1    0    0  501    0  0.00000000000E+00 -0.00000000000E+00 -0.15669549665E+03  0.15669549665E+03  0.00000000000E+00 0. -1.
         23    2    1    2    0    0  0.63751606429E+01 -0.56948433573E+01 -0.61610070058E+02  0.11003341982E+03  0.90766066514E+02 0.  0.
         23    2    1    2    0    0 -0.63751606429E+01  0.56948433573E+01 -0.42477025134E+02  0.99270478287E+02  0.89315487352E+02 0.  0.
          5    1    4    4  502    0  0.41199507863E+02  0.14674741027E+01 -0.16099533862E+02  0.44506605340E+02  0.47000000000E+01 0. -1.
         -5    1    4    4    0  502 -0.47574668506E+02  0.42273692546E+01 -0.26377491273E+02  0.54763872946E+02  0.47000000000E+01 0.  1.
          5    1    3    3  503    0  0.21864851735E+02 -0.43823606281E+02 -0.27433046042E+02  0.56331538448E+02  0.47000000000E+01 0. -1.
         -5    1    3    3    0  503 -0.15489691092E+02  0.38128762923E+02 -0.34177024016E+02  0.53701881371E+02  0.47000000000E+01 0.  1.
<mgrwt>
<rscale>  0 0.90804532E+02</rscale>
<asrwt>0</asrwt>
<pdfrwt beam="1">  1        2 0.24106999E-01 0.91167718E+02</pdfrwt>
<pdfrwt beam="2">  1       -2 0.80936003E-02 0.91167718E+02</pdfrwt>
<totfact> 0.18584054E+04</totfact>
</mgrwt>
</event>
<event>
 8    1  0.7366917E-004  0.1411218E+03  0.7546771E-02  0.1212028E+00
          2   -1    0    0  501    0  0.00000000000E+00  0.00000000000E+00  0.50813377250E+03  0.50813377250E+03  0.00000000000E+00 0. -1.
         -2   -1    0    0    0  501 -0.00000000000E+00 -0.00000000000E+00 -0.43200826945E+02  0.43200826945E+02  0.00000000000E+00 0.  1.
         23    2    1    2    0    0 -0.92330373602E+02  0.56190086188E+02  0.31861161472E+03  0.34846625582E+03  0.90736689035E+02 0.  0.
         23    2    1    2    0    0  0.92330373602E+02 -0.56190086188E+02  0.14632133084E+03  0.20286834362E+03  0.89796488305E+02 0.  0.
          5    1    4    4  502    0 -0.44269683166E+00 -0.37181081843E+02  0.76268277834E+02  0.84979815434E+02  0.47000000000E+01 0. -1.
         -5    1    3    3    0  503  0.39945333727E+01  0.35334818102E+02  0.44618969424E+02  0.57249000862E+02  0.47000000000E+01 0.  1.
          5    1    3    3  503    0 -0.96324906975E+02  0.20855268086E+02  0.27399264529E+03  0.29121725496E+03  0.47000000000E+01 0. -1.
         -5    1    4    4    0  502  0.92773070433E+02 -0.19009004345E+02  0.70053053002E+02  0.11788852819E+03  0.47000000000E+01 0.  1.
<mgrwt>
<rscale>  0 0.14097092E+03</rscale>
<asrwt>0</asrwt>
<pdfrwt beam="1">  1        2 0.78174422E-01 0.14112183E+03</pdfrwt>
<pdfrwt beam="2">  1       -2 0.66462814E-02 0.14112183E+03</pdfrwt>
<totfact> 0.74111320E+03</totfact>
</mgrwt>
</event>
<event>
 8    1  0.7366917E-004  0.1141432E+03  0.7546771E-02  0.1253190E+00
         -2   -1    0    0    0  501 -0.00000000000E+00  0.00000000000E+00  0.17936519431E+02  0.17936519431E+02  0.00000000000E+00 0.  1.
          2   -1    0    0  501    0  0.00000000000E+00 -0.00000000000E+00 -0.10290747907E+04  0.10290747907E+04  0.00000000000E+00 0. -1.
         23    2    1    2    0    0  0.60860297998E+02  0.23116384906E+02 -0.78983471487E+03  0.79800541607E+03  0.93463490963E+02 0.  0.
         23    2    1    2    0    0 -0.60860297998E+02 -0.23116384906E+02 -0.22130355636E+03  0.24900589402E+03  0.93756749495E+02 0.  0.
          5    1    4    4  502    0 -0.44137614321E+02 -0.55484696671E+02 -0.18113402277E+03  0.19457210686E+03  0.47000000000E+01 0. -1.
         -5    1    3    3    0  503 -0.14487174672E+02  0.33494624045E+02 -0.21230012995E+03  0.21546508591E+03  0.47000000000E+01 0.  1.
          5    1    3    3  503    0  0.75347472669E+02 -0.10378239139E+02 -0.57753458492E+03  0.58254033016E+03  0.47000000000E+01 0. -1.
         -5    1    4    4    0  502 -0.16722683676E+02  0.32368311765E+02 -0.40169533588E+02  0.54433787159E+02  0.47000000000E+01 0.  1.
<mgrwt>
<rscale>  0 0.11408297E+03</rscale>
<asrwt>0</asrwt>
<pdfrwt beam="1">  1        2 0.15831923E+00 0.11414320E+03</pdfrwt>
<pdfrwt beam="2">  1       -2 0.27594639E-02 0.11414320E+03</pdfrwt>
<totfact> 0.11518265E+04</totfact>
</mgrwt>
</event>
<event>
 8    1  0.7366917E-004  0.1281509E+03  0.7546771E-02  0.1231148E+00
          2   -1    0    0  501    0  0.00000000000E+00  0.00000000000E+00  0.49019618571E+03  0.49019618571E+03  0.00000000000E+00 0. -1.
         -2   -1    0    0    0  501 -0.00000000000E+00 -0.00000000000E+00 -0.33081531825E+02  0.33081531825E+02  0.00000000000E+00 0.  1.
         23    2    1    2    0    0  0.37618522114E+02 -0.83107504782E+02  0.20567780840E+03  0.24106654989E+03  0.86531555248E+02 0.  0.
         23    2    1    2    0    0 -0.37618522114E+02  0.83107504782E+02  0.25143684549E+03  0.28221116764E+03  0.90003585012E+02 0.  0.
          5    1    4    4  502    0  0.19330902950E+02  0.11619187245E+02  0.12206811352E+02  0.26072697683E+02  0.47000000000E+01 0. -1.
         -5    1    3    3    0  503  0.55957929142E+01 -0.29631215739E+02  0.50593246559E+01  0.30935555765E+02  0.47000000000E+01 0.  1.
          5    1    3    3  503    0  0.32022729200E+02 -0.53476289043E+02  0.20061848374E+03  0.21013099413E+03  0.47000000000E+01 0. -1.
         -5    1    4    4    0  502 -0.56949425064E+02  0.71488317537E+02  0.23923003414E+03  0.25613846996E+03  0.47000000000E+01 0.  1.
<mgrwt>
<rscale>  0 0.12754305E+03</rscale>
<asrwt>0</asrwt>
<pdfrwt beam="1">  1        2 0.75414792E-01 0.12815091E+03</pdfrwt>
<pdfrwt beam="2">  1       -2 0.50894668E-02 0.12815091E+03</pdfrwt>
<totfact> 0.11471561E+04</totfact>
</mgrwt>
</event>
<event>
 8    1  0.7366917E-004  0.9244311E+02  0.7546771E-02  0.1299603E+00
          1   -1    0    0  501    0  0.00000000000E+00  0.00000000000E+00  0.19293145993E+03  0.19293145993E+03  0.00000000000E+00 0. -1.
         -1   -1    0    0    0  501 -0.00000000000E+00 -0.00000000000E+00 -0.47698389351E+02  0.47698389351E+02  0.00000000000E+00 0.  1.
         23    2    1    2    0    0 -0.54380521516E+00 -0.18318054378E+01  0.30512067567E+02  0.93298122577E+02  0.88147048583E+02 0.  0.
         23    2    1    2    0    0  0.54380521516E+00  0.18318054378E+01  0.11472100301E+03  0.14733172670E+03  0.92423362447E+02 0.  0.
          5    1    4    4  502    0  0.42388383955E+02  0.99860450318E+01  0.83468012640E+02  0.94262905343E+02  0.47000000000E+01 0. -1.
         -5    1    3    3    0  503 -0.17775720325E+02 -0.25834377650E+02 -0.17880750806E+02  0.36403331592E+02  0.47000000000E+01 0.  1.
          5    1    3    3  503    0  0.17231915109E+02  0.24002572212E+02  0.48392818373E+02  0.56894790985E+02  0.47000000000E+01 0. -1.
         -5    1    4    4    0  502 -0.41844578740E+02 -0.81542395939E+01  0.31252990368E+02  0.53068821357E+02  0.47000000000E+01 0.  1.
<mgrwt>
<rscale>  0 0.91355220E+02</rscale>
<asrwt>0</asrwt>
<pdfrwt beam="1">  1        1 0.29681763E-01 0.92443113E+02</pdfrwt>
<pdfrwt beam="2">  1       -1 0.73382139E-02 0.92443113E+02</pdfrwt>
<totfact> 0.13633127E+04</totfact>
</mgrwt>
</event>
<event>
 8    1  0.7366917E-004  0.1228308E+03  0.7546771E-02  0.1239552E+00
          1   -1    0    0  501    0  0.00000000000E+00  0.00000000000E+00  0.14336346908E+03  0.14336346908E+03  0.00000000000E+00 0. -1.
         -1   -1    0    0    0  501 -0.00000000000E+00 -0.00000000000E+00 -0.11712061579E+03  0.11712061579E+03  0.00000000000E+00 0.  1.
         23    2    1    2    0    0  0.76561076070E+02 -0.18812617030E+02 -0.32191840046E+02  0.12446196705E+03  0.90768682635E+02 0.  0.
         23    2    1    2    0    0 -0.76561076070E+02  0.18812617030E+02  0.58434693334E+02  0.13602211782E+03  0.94190711974E+02 0.  0.
          5    1    4    4  502    0 -0.85699240128E+02  0.39123023115E+02  0.28736848291E+02  0.98604600024E+02  0.47000000000E+01 0. -1.
         -5    1    4    4    0  502  0.91381640584E+01 -0.20310406085E+02  0.29697845043E+02  0.37417517794E+02  0.47000000000E+01 0.  1.
          5    1    3    3  503    0  0.28189801099E+02 -0.47029085461E+01  0.31711541542E+02  0.42947573876E+02  0.47000000000E+01 0. -1.
         -5    1    3    3    0  503  0.48371274970E+02 -0.14109708484E+02 -0.63903381588E+02  0.81514393172E+02  0.47000000000E+01 0.  1.
<mgrwt>
<rscale>  0 0.12217453E+03</rscale>
<asrwt>0</asrwt>
<pdfrwt beam="1">  1        1 0.22055918E-01 0.12283079E+03</pdfrwt>
<pdfrwt beam="2">  1       -1 0.18018556E-01 0.12283079E+03</pdfrwt>
<totfact> 0.51006381E+03</totfact>
</mgrwt>
</event>
<event>
 8    1  0.7366917E-004  0.9020775E+02  0.7546771E-02  0.1302477E+00
         -2   -1    0    0    0  501 -0.00000000000E+00  0.00000000000E+00  0.82180260671E+01  0.82180260671E+01  0.00000000000E+00 0.  1.
          2   -1    0    0  501    0  0.00000000000E+00 -0.00000000000E+00 -0.99721054659E+03  0.99721054659E+03  0.00000000000E+00 0. -1.
         23    2    1    2    0    0  0.31186496414E+01 -0.16526848287E+02 -0.44527936885E+03  0.45428301142E+03  0.88410833328E+02 0.  0.
         23    2    1    2    0    0 -0.31186496414E+01  0.16526848287E+02 -0.54371315168E+03  0.55114556125E+03  0.88626044037E+02 0.  0.
          5    1    4    4  502    0 -0.38987230766E+02  0.31896454243E+02 -0.28304619950E+03  0.28753196172E+03  0.47000000000E+01 0. -1.
         -5    1    4    4    0  502  0.35868581124E+02 -0.15369605956E+02 -0.26066695218E+03  0.26361359953E+03  0.47000000000E+01 0.  1.
          5    1    3    3  503    0 -0.23314788177E+01 -0.50893153606E+02 -0.32431403262E+03  0.32832488580E+03  0.47000000000E+01 0. -1.
         -5    1    3    3    0  503  0.54501284591E+01  0.34366305319E+02 -0.12096533623E+03  0.12595812562E+03  0.47000000000E+01 0.  1.
<mgrwt>
<rscale>  0 0.90154848E+02</rscale>
<asrwt>0</asrwt>
<pdfrwt beam="1">  1        2 0.15341709E+00 0.90207751E+02</pdfrwt>
<pdfrwt beam="2">  1       -2 0.12643110E-02 0.90207751E+02</pdfrwt>
<totfact> 0.36258317E+04</totfact>
</mgrwt>
</event>
<event>
 8    1  0.7366917E-004  0.1194224E+03  0.7546771E-02  0.1244393E+00
          1   -1    0    0  501    0  0.00000000000E+00  0.00000000000E+00  0.85062437826E+02  0.85062437826E+02  0.00000000000E+00 0. -1.
         -1   -1    0    0    0  501 -0.00000000000E+00 -0.00000000000E+00 -0.20088713122E+03  0.20088713122E+03  0.00000000000E+00 0.  1.
         23    2    1    2    0    0 -0.18858548531E+02  0.73613076561E+02 -0.11688601716E+03  0.16652245141E+03  0.91065119131E+02 0.  0.
         23    2    1    2    0    0  0.18858548531E+02 -0.73613076561E+02  0.10613237697E+01  0.11942711763E+03  0.92125892804E+02 0.  0.
          5    1    3    3  502    0 -0.45773113132E+02  0.55109811506E+02 -0.11218572195E+03  0.13319157413E+03  0.47000000000E+01 0. -1.
         -5    1    3    3    0  502  0.26914564601E+02  0.18503265055E+02 -0.47002952165E+01  0.33330877283E+02  0.47000000000E+01 0.  1.
          5    1    4    4  503    0 -0.25437097696E+02 -0.25905219270E+02  0.30666673172E+02  0.47756268364E+02  0.47000000000E+01 0. -1.
         -5    1    4    4    0  503  0.44295646226E+02 -0.47707857290E+02 -0.29605349402E+02  0.71670849270E+02  0.47000000000E+01 0.  1.
<mgrwt>
<rscale>  0 0.11921778E+03</rscale>
<asrwt>0</asrwt>
<pdfrwt beam="1">  1        1 0.13086529E-01 0.11942240E+03</pdfrwt>
<pdfrwt beam="2">  1       -1 0.30905712E-01 0.11942240E+03</pdfrwt>
<totfact> 0.41225425E+03</totfact>
</mgrwt>
</event>
<event>
 8    1  0.7366917E-004  0.1242479E+03  0.7546771E-02  0.1236385E+00
          1   -1    0    0  501    0  0.00000000000E+00  0.00000000000E+00  0.11665966876E+04  0.11665966876E+04  0.00000000000E+00 0. -1.
         -1   -1    0    0    0  501 -0.00000000000E+00 -0.00000000000E+00 -0.14571236132E+02  0.14571236132E+02  0.00000000000E+00 0.  1.
         23    2    1    2    0    0 -0.81010443785E+02  0.18219397813E+02  0.39387204812E+03  0.41290096691E+03  0.91964013213E+02 0.  0.
         23    2    1    2    0    0  0.81010443785E+02 -0.18219397813E+02  0.75815340336E+03  0.76826695684E+03  0.92427785211E+02 0.  0.
          5    1    3    3  502    0  0.15244935181E+02  0.21692525973E+02  0.10293845597E+03  0.10640201807E+03  0.47000000000E+01 0.  1.
         -5    1    4    4    0  503  0.59961298545E+02 -0.53848185893E+02  0.43346639130E+03  0.44091970565E+03  0.47000000000E+01 0.  1.
          5    1    4    4  503    0  0.21049145240E+02  0.35628788079E+02  0.32468701206E+03  0.32734725118E+03  0.47000000000E+01 0. -1.
         -5    1    3    3    0  502 -0.96255378966E+02 -0.34731281602E+01  0.29093359215E+03  0.30649894884E+03  0.47000000000E+01 0.  1.
<mgrwt>
<rscale>  0 0.12416163E+03</rscale>
<asrwt>0</asrwt>
<pdfrwt beam="1">  1        1 0.17947634E+00 0.12424787E+03</pdfrwt>
<pdfrwt beam="2">  1       -1 0.22417296E-02 0.12424787E+03</pdfrwt>
<totfact> 0.67986401E+03</totfact>
</mgrwt>
</event>
<event>
 8    1  0.7366917E-004  0.9654875E+02  0.7546771E-02  0.1288367E+00
         -2   -1    0    0    0  501 -0.00000000000E+00  0.00000000000E+00  0.16869681048E+03  0.16869681048E+03  0.00000000000E+00 0.  1.
          2   -1    0    0  501    0  0.00000000000E+00 -0.00000000000E+00 -0.56068969366E+02  0.56068969366E+02  0.00000000000E+00 0. -1.
         23    2    1    2    0    0 -0.20747169226E+02 -0.21006638398E+02  0.74191679588E+02  0.12084754001E+03  0.90708316702E+02 0.  0.
         23    2    1    2    0    0  0.20747169226E+02  0.21006638398E+02  0.38436161521E+02  0.10391823983E+03  0.91923545240E+02 0.  0.
          5    1    3    3  502    0 -0.53920973088E+02 -0.18030562442E+02  0.27580742900E+02  0.63366867523E+02  0.47000000000E+01 0. -1.
         -5    1    3    3    0  502  0.33173803862E+02 -0.29760759562E+01  0.46610936689E+02  0.57480672489E+02  0.47000000000E+01 0.  1.
          5    1    4    4  503    0  0.43949845849E+02 -0.10021741061E+02 -0.49137088032E+01  0.45587923601E+02  0.47000000000E+01 0. -1.
         -5    1    4    4    0  503 -0.23202676623E+02  0.31028379459E+02  0.43349870325E+02  0.58330316230E+02  0.47000000000E+01 0.  1.
<mgrwt>
<rscale>  0 0.96258375E+02</rscale>
<asrwt>0</asrwt>
<pdfrwt beam="1">  1        2 0.86259954E-02 0.96548755E+02</pdfrwt>
<pdfrwt beam="2">  1       -2 0.25953355E-01 0.96548755E+02</pdfrwt>
<totfact> 0.93451712E+03</totfact>
</mgrwt>
</event>
<event>
 8    1  0.7366917E-004  0.9372048E+02  0.7546771E-02  0.1294882E+00
          1   -1    0    0  501    0  0.00000000000E+00  0.00000000000E+00  0.74089300534E+03  0.74089300534E+03  0.00000000000E+00 0. -1.
         -1   -1    0    0    0  501 -0.00000000000E+00 -0.00000000000E+00 -0.12721125218E+02  0.12721125218E+02  0.00000000000E+00 0.  1.
         23    2    1    2    0    0 -0.95075299669E+01  0.25025181601E+02  0.25388755160E+03  0.27015870153E+03  0.88375235851E+02 0.  0.
         23    2    1    2    0    0  0.95075299669E+01 -0.25025181601E+02  0.47428432852E+03  0.48345542903E+03  0.89815782248E+02 0.  0.
          5    1    4    4  502    0 -0.31270966500E+02 -0.35672502679E+02  0.31657877862E+03  0.32014780003E+03  0.47000000000E+01 0. -1.
         -5    1    3    3    0  503 -0.15048455977E+02  0.54298052724E+02  0.20553855064E+03  0.21317345134E+03  0.47000000000E+01 0.  1.
          5    1    3    3  503    0  0.55409260098E+01 -0.29272871123E+02  0.48349000964E+02  0.56985250188E+02  0.47000000000E+01 0. -1.
         -5    1    4    4    0  502  0.40778496467E+02  0.10647321078E+02  0.15770554990E+03  0.16330762900E+03  0.47000000000E+01 0.  1.
<mgrwt>
<rscale>  0 0.93373652E+02</rscale>
<asrwt>0</asrwt>
<pdfrwt beam="1">  1        1 0.11398351E+00 0.93720476E+02</pdfrwt>
<pdfrwt beam="2">  1       -1 0.19570968E-02 0.93720476E+02</pdfrwt>
<totfact> 0.16889304E+04</totfact>
</mgrwt>
</event>
<event>
 8    1  0.7366917E-004  0.1183571E+03  0.7546771E-02  0.1246868E+00
         -1   -1    0    0    0  501 -0.00000000000E+00  0.00000000000E+00  0.22436840658E+02  0.22436840658E+02  0.00000000000E+00 0.  1.
          1   -1    0    0  501    0  0.00000000000E+00 -0.00000000000E+00 -0.69586665284E+03  0.69586665284E+03  0.00000000000E+00 0. -1.
         23    2    1    2    0    0 -0.75650735775E+02  0.76180693435E+01 -0.20862681617E+03  0.23866797360E+03  0.87499625097E+02 0.  0.
         23    2    1    2    0    0  0.75650735775E+02 -0.76180693435E+01 -0.46480299601E+03  0.47963551990E+03  0.90704674878E+02 0.  0.
          5    1    3    3  502    0  0.66559792441E+01 -0.22282234097E+02 -0.21527614283E+02  0.32036357358E+02  0.47000000000E+01 0. -1.
         -5    1    3    3    0  502 -0.82306715020E+02  0.29900303440E+02 -0.18709920189E+03  0.20663161624E+03  0.47000000000E+01 0.  1.
          5    1    4    4  503    0  0.71089777716E+02  0.26103671921E+02 -0.39012799766E+03  0.39743817474E+03  0.47000000000E+01 0. -1.
         -5    1    4    4    0  503  0.45609580600E+01 -0.33721741264E+02 -0.74674998344E+02  0.82197345152E+02  0.47000000000E+01 0.  1.
<mgrwt>
<rscale>  0 0.11774286E+03</rscale>
<asrwt>0</asrwt>
<pdfrwt beam="1">  1        1 0.10705640E+00 0.11835712E+03</pdfrwt>
<pdfrwt beam="2">  1       -1 0.34518220E-02 0.11835712E+03</pdfrwt>
<totfact> 0.82980574E+03</totfact>
</mgrwt>
</event>
<event>
 8    1  0.7366917E-004  0.1318162E+03  0.7546771E-02  0.1225020E+00
         -1   -1    0    0    0  501 -0.00000000000E+00  0.00000000000E+00  0.37170881325E+02  0.37170881325E+02  0.00000000000E+00 0.  1.
          1   -1    0    0  501    0  0.00000000000E+00 -0.00000000000E+00 -0.49481309092E+03  0.49481309092E+03  0.00000000000E+00 0. -1.
         23    2    1    2    0    0  0.84795416191E+02  0.43384332526E+02 -0.29339557801E+03  0.32138370733E+03  0.90189019420E+02 0.  0.
         23    2    1    2    0    0 -0.84795416191E+02 -0.43384332526E+02 -0.16424663158E+03  0.21060026491E+03  0.91121088010E+02 0.  0.
          5    1    4    4  502    0 -0.53546636813E+02 -0.70963303452E+02 -0.12242089507E+03  0.15136709781E+03  0.47000000000E+01 0. -1.
         -5    1    3    3    0  503  0.12352695091E+02  0.49579348284E+02 -0.72783574533E+02  0.89051892591E+02  0.47000000000E+01 0.  1.
          5    1    3    3  503    0  0.72442721100E+02 -0.61950157574E+01 -0.22061200348E+03  0.23233181474E+03  0.47000000000E+01 0. -1.
         -5    1    4    4    0  502 -0.31248779378E+02  0.27578970926E+02 -0.41825736511E+02  0.59233167100E+02  0.47000000000E+01 0.  1.
<mgrwt>
<rscale>  0 0.13165528E+03</rscale>
<asrwt>0</asrwt>
<pdfrwt beam="1">  1        1 0.76125088E-01 0.13181622E+03</pdfrwt>
<pdfrwt beam="2">  1       -1 0.57185974E-02 0.13181622E+03</pdfrwt>
<totfact> 0.63061805E+03</totfact>
</mgrwt>
</event>
<event>
 8    1  0.7366917E-004  0.1043722E+03  0.7546771E-02  0.1273930E+00
          1   -1    0    0  501    0  0.00000000000E+00  0.00000000000E+00  0.15081120061E+03  0.15081120061E+03  0.00000000000E+00 0. -1.
         -1   -1    0    0    0  501 -0.00000000000E+00 -0.00000000000E+00 -0.74614853526E+02  0.74614853526E+02  0.00000000000E+00 0.  1.
         23    2    1    2    0    0  0.22444102218E+02  0.38301435662E+02  0.74805243768E+01  0.10463991535E+03  0.94460658167E+02 0.  0.
         23    2    1    2    0    0 -0.22444102218E+02 -0.38301435662E+02  0.68715822704E+02  0.12078613878E+03  0.88863318272E+02 0.  0.
          5    1    4    4  502    0 -0.63493050242E+01 -0.24273164773E+02  0.88004489052E+02  0.91631764665E+02  0.47000000000E+01 0. -1.
         -5    1    4    4    0  502 -0.16094797194E+02 -0.14028270889E+02 -0.19288666347E+02  0.29154374119E+02  0.47000000000E+01 0.  1.
          5    1    3    3  503    0 -0.71242081967E+01 -0.27831830649E+02  0.12904169832E+02  0.31842938601E+02  0.47000000000E+01 0. -1.
         -5    1    3    3    0  503  0.29568310415E+02  0.66133266311E+02 -0.54236454551E+01  0.72796976749E+02  0.47000000000E+01 0.  1.
<mgrwt>
<rscale>  0 0.10308942E+03</rscale>
<asrwt>0</asrwt>
<pdfrwt beam="1">  1        1 0.23201723E-01 0.10437219E+03</pdfrwt>
<pdfrwt beam="2">  1       -1 0.11479208E-01 0.10437219E+03</pdfrwt>
<totfact> 0.95338843E+03</totfact>
</mgrwt>
</event>
<event>
 8    1  0.7366917E-004  0.1025667E+03  0.7546771E-02  0.1275623E+00
         -1   -1    0    0    0  501 -0.00000000000E+00  0.00000000000E+00  0.19535040686E+03  0.19535040686E+03  0.00000000000E+00 0.  1.
          1   -1    0    0  501    0  0.00000000000E+00 -0.00000000000E+00 -0.53373185570E+02  0.53373185570E+02  0.00000000000E+00 0. -1.
         23    2    1    2    0    0  0.46880201539E+02  0.12239805645E+01  0.63532950876E+02  0.11959794679E+03  0.89821943892E+02 0.  0.
         23    2    1    2    0    0 -0.46880201539E+02 -0.12239805645E+01  0.78444270414E+02  0.12912564564E+03  0.91217747047E+02 0.  0.
          5    1    4    4  502    0 -0.63818150114E+02  0.21944674024E+02  0.73022465261E+02  0.99542430324E+02  0.47000000000E+01 0. -1.
         -5    1    3    3    0  503 -0.23513596424E+02 -0.38048314723E+01 -0.36208557502E+00  0.24281413989E+02  0.47000000000E+01 0.  1.
          5    1    3    3  503    0  0.70393797963E+02  0.50288120368E+01  0.63895036451E+02  0.95316532802E+02  0.47000000000E+01 0. -1.
         -5    1    4    4    0  502  0.16937948574E+02 -0.23168654588E+02  0.54218051529E+01  0.29583215316E+02  0.47000000000E+01 0.  1.
<mgrwt>
<rscale>  0 0.10225545E+03</rscale>
<asrwt>0</asrwt>
<pdfrwt beam="1">  1        1 0.82112594E-02 0.10256670E+03</pdfrwt>
<pdfrwt beam="2">  1       -1 0.30053908E-01 0.10256670E+03</pdfrwt>
<totfact> 0.78834410E+03</totfact>
</mgrwt>
</event>
<event>
 8    1  0.7366917E-004  0.1211040E+03  0.7546771E-02  0.1241506E+00
         -2   -1    0    0    0  501 -0.00000000000E+00  0.00000000000E+00  0.30480815371E+02  0.30480815371E+02  0.00000000000E+00 0.  1.
          2   -1    0    0  501    0  0.00000000000E+00 -0.00000000000E+00 -0.10365431746E+04  0.10365431746E+04  0.00000000000E+00 0. -1.
         23    2    1    2    0    0  0.88552446942E+01 -0.78356991878E+02 -0.11227715429E+03  0.16514340859E+03  0.91912743898E+02 0.  0.
         23    2    1    2    0    0 -0.88552446942E+01  0.78356991878E+02 -0.89378520496E+03  0.90188058140E+03  0.91205027097E+02 0.  0.
          5    1    3    3  502    0 -0.19055796711E+02 -0.45118431900E+02 -0.11105841823E+03  0.12146957868E+03  0.47000000000E+01 0. -1.
         -5    1    4    4    0  503  0.16086983619E+02 -0.15770742256E+02 -0.15933392792E+03  0.16098726018E+03  0.47000000000E+01 0.  1.
          5    1    4    4  503    0 -0.24942228314E+02  0.94127734134E+02 -0.73445127704E+03  0.74089332122E+03  0.47000000000E+01 0. -1.
         -5    1    3    3    0  502  0.27911041405E+02 -0.33238559978E+02 -0.12187360650E+01  0.43673829913E+02  0.47000000000E+01 0.  1.
<mgrwt>
<rscale>  0 0.12096975E+03</rscale>
<asrwt>0</asrwt>
<pdfrwt beam="1">  1        2 0.15946815E+00 0.12110403E+03</pdfrwt>
<pdfrwt beam="2">  1       -2 0.46893572E-02 0.12110403E+03</pdfrwt>
<totfact> 0.52328816E+03</totfact>
</mgrwt>
</event>
<event>
 8    1  0.7366917E-004  0.1181390E+03  0.7546771E-02  0.1246536E+00
         -1   -1    0    0    0  501 -0.00000000000E+00  0.00000000000E+00  0.46868571281E+02  0.46868571281E+02  0.00000000000E+00 0.  1.
          1   -1    0    0  501    0  0.00000000000E+00 -0.00000000000E+00 -0.29688770455E+03  0.29688770455E+03  0.00000000000E+00 0. -1.
         23    2    1    2    0    0 -0.53295577188E+02 -0.52240272459E+02 -0.11409581053E+03  0.16366750933E+03  0.90552388235E+02 0.  0.
         23    2    1    2    0    0  0.53295577188E+02  0.52240272459E+02 -0.13592332273E+03  0.18008876650E+03  0.91582473985E+02 0.  0.
          5    1    4    4  502    0  0.72055683251E+02  0.63070615306E+02 -0.10746260407E+03  0.14401467036E+03  0.47000000000E+01 0. -1.
         -5    1    4    4    0  502 -0.18760106063E+02 -0.10830342847E+02 -0.28460718660E+02  0.36074096140E+02  0.47000000000E+01 0.  1.
          5    1    3    3  503    0 -0.27339583123E+02 -0.51880668987E+02 -0.12257115716E+03  0.13595894670E+03  0.47000000000E+01 0. -1.
         -5    1    3    3    0  503 -0.25955994065E+02 -0.35960347190E+00  0.84753466297E+01  0.27708562631E+02  0.47000000000E+01 0.  1.
<mgrwt>
<rscale>  0 0.11793927E+03</rscale>
<asrwt>0</asrwt>
<pdfrwt beam="1">  1        1 0.45675032E-01 0.11813896E+03</pdfrwt>
<pdfrwt beam="2">  1       -1 0.72105494E-02 0.11813896E+03</pdfrwt>
<totfact> 0.84197314E+03</totfact>
</mgrwt>
</event>
<event>
 8    1  0.9327439E-004  0.1010160E+03  0.7546771E-02  0.1281588E+00
          1   -1    0    0  501    0  0.00000000000E+00  0.00000000000E+00  0.37250942271E+03  0.37250942271E+03  0.00000000000E+00 0. -1.
         -1   -1    0    0    0  501 -0.00000000000E+00 -0.00000000000E+00 -0.59544965495E+02  0.59544965495E+02  0.00000000000E+00 0.  1.
         23    2    1    2    0    0  0.71064373879E+01  0.20499760315E+02  0.32151396294E+03  0.33700959903E+03  0.98658501141E+02 0.  0.
         23    2    1    2    0    0 -0.71064373879E+01 -0.20499760315E+02 -0.85495057258E+01  0.95044789175E+02  0.92139439308E+02 0.  0.
          5    1    4    4  502    0 -0.35684461773E+02  0.56240541073E+01  0.24517113032E+02  0.43911156077E+02  0.47000000000E+01 0. -1.
         -5    1    3    3    0  503  0.48680062459E+02 -0.91137323767E+01  0.16064953118E+03  0.16817601038E+03  0.47000000000E+01 0.  1.
          5    1    3    3  503    0 -0.41573625071E+02  0.29613492692E+02  0.16086443177E+03  0.16883358866E+03  0.47000000000E+01 0. -1.
         -5    1    4    4    0  502  0.28578024385E+02 -0.26123814422E+02 -0.33066618758E+02  0.51133633098E+02  0.47000000000E+01 0.  1.
<mgrwt>
<rscale>  0 0.99387967E+02</rscale>
<asrwt>0</asrwt>
<pdfrwt beam="1">  1        1 0.57309140E-01 0.10101605E+03</pdfrwt>
<pdfrwt beam="2">  1       -1 0.91607642E-02 0.10101605E+03</pdfrwt>
<totfact> 0.43951942E+03</totfact>
</mgrwt>
</event>
<event>
 8    1  0.7366917E-004  0.1092884E+03  0.7546771E-02  0.1262313E+00
         -2   -1    0    0    0  501 -0.00000000000E+00  0.00000000000E+00  0.25865550503E+02  0.25865550503E+02  0.00000000000E+00 0.  1.
          2   -1    0    0  501    0  0.00000000000E+00 -0.00000000000E+00 -0.48521695090E+03  0.48521695090E+03  0.00000000000E+00 0. -1.
         23    2    1    2    0    0 -0.37444358881E+02 -0.47520941159E+02 -0.17004245180E+03  0.20213455762E+03  0.91014417058E+02 0.  0.
         23    2    1    2    0    0  0.37444358881E+02  0.47520941159E+02 -0.28930894860E+03  0.30894794378E+03  0.89938002894E+02 0.  0.
          5    1    4    4  502    0  0.27723891351E+02  0.68974744394E+02 -0.14881114915E+03  0.16641207176E+03  0.47000000000E+01 0. -1.
         -5    1    3    3    0  503 -0.59845209232E+02 -0.50361677605E+01 -0.82219357862E+02  0.10192607547E+03  0.47000000000E+01 0.  1.
          5    1    3    3  503    0  0.22400850351E+02 -0.42484773399E+02 -0.87823093935E+02  0.10020848215E+03  0.47000000000E+01 0. -1.
         -5    1    4    4    0  502  0.97204675302E+01 -0.21453803234E+02 -0.14049779945E+03  0.14253587202E+03  0.47000000000E+01 0.  1.
<mgrwt>
<rscale>  0 0.10906396E+03</rscale>
<asrwt>0</asrwt>
<pdfrwt beam="1">  1        2 0.74648749E-01 0.10928835E+03</pdfrwt>
<pdfrwt beam="2">  1       -2 0.39793161E-02 0.10928835E+03</pdfrwt>
<totfact> 0.16517468E+04</totfact>
</mgrwt>
</event>
<event>
 8    1  0.7366917E-004  0.9500424E+02  0.7546771E-02  0.1293162E+00
         -2   -1    0    0    0  501 -0.00000000000E+00  0.00000000000E+00  0.88855636248E+01  0.88855636248E+01  0.00000000000E+00 0.  1.
          2   -1    0    0  501    0  0.00000000000E+00 -0.00000000000E+00 -0.98483030971E+03  0.98483030971E+03  0.00000000000E+00 0. -1.
         23    2    1    2    0    0 -0.20227078007E+02  0.26441639030E+01 -0.45873629114E+03  0.46847069304E+03  0.92788356688E+02 0.  0.
         23    2    1    2    0    0  0.20227078007E+02 -0.26441639030E+01 -0.51720845494E+03  0.52524518029E+03  0.89228847764E+02 0.  0.
          5    1    3    3  502    0  0.22061505737E+02 -0.27742901582E+02 -0.27906297826E+03  0.28134429879E+03  0.47000000000E+01 0. -1.
         -5    1    4    4    0  503  0.52600047063E+02  0.14029940453E+02 -0.32496084946E+03  0.32952275773E+03  0.47000000000E+01 0.  1.
          5    1    4    4  503    0 -0.32372969056E+02 -0.16674104355E+02 -0.19224760548E+03  0.19572242256E+03  0.47000000000E+01 0. -1.
         -5    1    3    3    0  502 -0.42288583744E+02  0.30387065485E+02 -0.17967331288E+03  0.18712639425E+03  0.47000000000E+01 0.  1.
<mgrwt>
<rscale>  0 0.94123750E+02</rscale>
<asrwt>0</asrwt>
<pdfrwt beam="1">  1        2 0.15151235E+00 0.95004239E+02</pdfrwt>
<pdfrwt beam="2">  1       -2 0.13670098E-02 0.95004239E+02</pdfrwt>
<totfact> 0.33164158E+04</totfact>
</mgrwt>
</event>
<event>
 8    1  0.7366917E-004  0.9743536E+02  0.7546771E-02  0.1287656E+00
          1   -1    0    0  501    0  0.00000000000E+00  0.00000000000E+00  0.48829316528E+02  0.48829316528E+02  0.00000000000E+00 0. -1.
         -1   -1    0    0    0  501 -0.00000000000E+00 -0.00000000000E+00 -0.21210822821E+03  0.21210822821E+03  0.00000000000E+00 0.  1.
         23    2    1    2    0    0 -0.96454819777E+01  0.30543035095E+02 -0.12712071735E+03  0.16016655658E+03  0.92020306204E+02 0.  0.
         23    2    1    2    0    0  0.96454819777E+01 -0.30543035095E+02 -0.36158194338E+02  0.10077098816E+03  0.88439045228E+02 0.  0.
          5    1    3    3  502    0  0.19504031733E+02  0.22376973843E+02 -0.67342422871E+00  0.30061265981E+02  0.47000000000E+01 0. -1.
         -5    1    3    3    0  502 -0.29149513710E+02  0.81660612523E+01 -0.12644729312E+03  0.13010529060E+03  0.47000000000E+01 0.  1.
          5    1    4    4  503    0 -0.26503055096E+02  0.11687032655E+02  0.70838954640E+01  0.30187252883E+02  0.47000000000E+01 0. -1.
         -5    1    4    4    0  503  0.36148537073E+02 -0.42230067750E+02 -0.43242089802E+02  0.70583735273E+02  0.47000000000E+01 0.  1.
<mgrwt>
<rscale>  0 0.96580457E+02</rscale>
<asrwt>0</asrwt>
<pdfrwt beam="1">  1        1 0.75122026E-02 0.97435358E+02</pdfrwt>
<pdfrwt beam="2">  1       -1 0.32632035E-01 0.97435358E+02</pdfrwt>
<totfact> 0.76959367E+03</totfact>
</mgrwt>
</event>
<event>
 8    1  0.7366917E-004  0.1271433E+03  0.7546771E-02  0.1232518E+00
         -2   -1    0    0    0  501 -0.00000000000E+00  0.00000000000E+00  0.17326309406E+02  0.17326309406E+02  0.00000000000E+00 0.  1.
          2   -1    0    0  501    0  0.00000000000E+00 -0.00000000000E+00 -0.96246110993E+03  0.96246110993E+03  0.00000000000E+00 0. -1.
         23    2    1    2    0    0 -0.67605354111E+02  0.52398992350E+02 -0.58070670120E+03  0.59446253183E+03  0.94070668284E+02 0.  0.
         23    2    1    2    0    0  0.67605354111E+02 -0.52398992350E+02 -0.36442809933E+03  0.38532488751E+03  0.91385398445E+02 0.  0.
          5    1    3    3  502    0 -0.62702703473E+02 -0.94959516393E+01 -0.33550306367E+03  0.34147649678E+03  0.47000000000E+01 0. -1.
         -5    1    4    4    0  503  0.76687553963E+01 -0.27996964227E+02 -0.26482199372E+03  0.26644965410E+03  0.47000000000E+01 0. -1.
          5    1    4    4  503    0  0.59936598715E+02 -0.24402028123E+02 -0.99606105612E+02  0.11887523341E+03  0.47000000000E+01 0.  1.
         -5    1    3    3    0  502 -0.49026506387E+01  0.61894943989E+02 -0.24520363753E+03  0.25298603505E+03  0.47000000000E+01 0.  1.
<mgrwt>
<rscale>  0 0.12664701E+03</rscale>
<asrwt>0</asrwt>
<pdfrwt beam="1">  1        2 0.14807098E+00 0.12714334E+03</pdfrwt>
<pdfrwt beam="2">  1       -2 0.26655854E-02 0.12714334E+03</pdfrwt>
<totfact> 0.13365676E+04</totfact>
</mgrwt>
</event>
<event>
 8    1  0.7366917E-004  0.1002974E+03  0.7546771E-02  0.1279768E+00
          2   -1    0    0  501    0  0.00000000000E+00  0.00000000000E+00  0.73297118907E+03  0.73297118907E+03  0.00000000000E+00 0. -1.
         -2   -1    0    0    0  501 -0.00000000000E+00 -0.00000000000E+00 -0.16617180823E+02  0.16617180823E+02  0.00000000000E+00 0.  1.
         23    2    1    2    0    0 -0.30708701079E+02  0.25264483881E+02  0.51496144855E+03  0.52460274966E+03  0.91877271352E+02 0.  0.
         23    2    1    2    0    0  0.30708701079E+02 -0.25264483881E+02  0.20139255970E+03  0.22498562023E+03  0.92077400821E+02 0.  0.
          5    1    4    4  502    0  0.57375049749E+02 -0.13140883880E+01  0.15991205522E+03  0.16996346245E+03  0.47000000000E+01 0. -1.
         -5    1    4    4    0  502 -0.26666348670E+02 -0.23950395493E+02  0.41480504476E+02  0.55022157785E+02  0.47000000000E+01 0.  1.
          5    1    3    3  503    0 -0.41484333602E+02  0.53023935588E+02  0.40497299225E+03  0.41055779390E+03  0.47000000000E+01 0. -1.
         -5    1    3    3    0  503  0.10775632523E+02 -0.27759451707E+02  0.10998845630E+03  0.11404495576E+03  0.47000000000E+01 0.  1.
<mgrwt>
<rscale>  0 0.10025143E+03</rscale>
<asrwt>0</asrwt>
<pdfrwt beam="1">  1        2 0.11276477E+00 0.10029739E+03</pdfrwt>
<pdfrwt beam="2">  1       -2 0.25564899E-02 0.10029739E+03</pdfrwt>
<totfact> 0.19662076E+04</totfact>
</mgrwt>
</event>
<event>
 8    1  0.7366917E-004  0.1025272E+03  0.7546771E-02  0.1275140E+00
          1   -1    0    0  501    0  0.00000000000E+00  0.00000000000E+00  0.10492837238E+04  0.10492837238E+04  0.00000000000E+00 0. -1.
         -1   -1    0    0    0  501 -0.00000000000E+00 -0.00000000000E+00 -0.12012930445E+02  0.12012930445E+02  0.00000000000E+00 0.  1.
         23    2    1    2    0    0  0.16627848905E+02 -0.40985043182E+02  0.73531215149E+03  0.74240661597E+03  0.92343728431E+02 0.  0.
         23    2    1    2    0    0 -0.16627848905E+02  0.40985043182E+02  0.30195864191E+03  0.31889003832E+03  0.92496356644E+02 0.  0.
          5    1    4    4  502    0 -0.28029604949E+02  0.61145747399E+02  0.14201140843E+03  0.15720620631E+03  0.47000000000E+01 0. -1.
         -5    1    4    4    0  502  0.11401756045E+02 -0.20160704217E+02  0.15994723348E+03  0.16168383201E+03  0.47000000000E+01 0.  1.
          5    1    3    3  503    0  0.40476045367E+02  0.12763005791E+02  0.26676613825E+03  0.27016192752E+03  0.47000000000E+01 0. -1.
         -5    1    3    3    0  503 -0.23848196462E+02 -0.53748048973E+02  0.46854601325E+03  0.47224468845E+03  0.47000000000E+01 0.  1.
<mgrwt>
<rscale>  0 0.10249280E+03</rscale>
<asrwt>0</asrwt>
<pdfrwt beam="1">  1        1 0.16142819E+00 0.10252724E+03</pdfrwt>
<pdfrwt beam="2">  1       -1 0.18481440E-02 0.10252724E+03</pdfrwt>
<totfact> 0.10716246E+04</totfact>
</mgrwt>
</event>
<event>
 8    1  0.7366917E-004  0.1026080E+03  0.7546771E-02  0.1276423E+00
          1   -1    0    0  501    0  0.00000000000E+00  0.00000000000E+00  0.19437309025E+03  0.19437309025E+03  0.00000000000E+00 0. -1.
         -1   -1    0    0    0  501 -0.00000000000E+00 -0.00000000000E+00 -0.58054611537E+02  0.58054611537E+02  0.00000000000E+00 0.  1.
         23    2    1    2    0    0 -0.45832488452E+02  0.30032886884E+01  0.28662674687E+02  0.10370589963E+03  0.88451839765E+02 0.  0.
         23    2    1    2    0    0  0.45832488452E+02 -0.30032886884E+01  0.10765580402E+03  0.14872180215E+03  0.91753831279E+02 0.  0.
          5    1    3    3  502    0 -0.26961842473E+02  0.17012473051E+02  0.57679171572E+02  0.66070734990E+02  0.47000000000E+01 0. -1.
         -5    1    4    4    0  503 -0.27249410565E+02 -0.74115417410E+01  0.23184724689E+02  0.36838604561E+02  0.47000000000E+01 0.  1.
          5    1    4    4  503    0  0.73081899017E+02  0.44082530525E+01  0.84471079335E+02  0.11188319759E+03  0.47000000000E+01 0. -1.
         -5    1    3    3    0  502 -0.18870645980E+02 -0.14009184363E+02 -0.29016496885E+02  0.37635164643E+02  0.47000000000E+01 0.  1.
<mgrwt>
<rscale>  0 0.10186453E+03</rscale>
<asrwt>0</asrwt>
<pdfrwt beam="1">  1        1 0.29903552E-01 0.10260800E+03</pdfrwt>
<pdfrwt beam="2">  1       -1 0.89314788E-02 0.10260800E+03</pdfrwt>
<totfact> 0.10165165E+04</totfact>
</mgrwt>
</event>
<event>
 8    1  0.7366917E-004  0.1070551E+03  0.7546771E-02  0.1266869E+00
          1   -1    0    0  501    0  0.00000000000E+00  0.00000000000E+00  0.42822209180E+02  0.42822209180E+02  0.00000000000E+00 0. -1.
         -1   -1    0    0    0  501 -0.00000000000E+00 -0.00000000000E+00 -0.68029084217E+03  0.68029084217E+03  0.00000000000E+00 0.  1.
         23    2    1    2    0    0 -0.16501039044E+02  0.51591399430E+02 -0.34938257753E+02  0.11114601373E+03  0.90547212700E+02 0.  0.
         23    2    1    2    0    0  0.16501039044E+02 -0.51591399430E+02 -0.60253037523E+03  0.61196703762E+03  0.92340918713E+02 0.  0.
          5    1    4    4  502    0  0.71814143478E+01  0.26559446257E+02 -0.17842043591E+03  0.18059047275E+03  0.47000000000E+01 0. -1.
         -5    1    3    3    0  503 -0.35476544273E+02 -0.11836402322E+02 -0.21611769350E+02  0.43449328970E+02  0.47000000000E+01 0.  1.
          5    1    3    3  503    0  0.18975505229E+02  0.63427801753E+02 -0.13326488403E+02  0.67696684756E+02  0.47000000000E+01 0. -1.
         -5    1    4    4    0  502  0.93196246964E+01 -0.78150845687E+02 -0.42410993932E+03  0.43137656487E+03  0.47000000000E+01 0.  1.
<mgrwt>
<rscale>  0 0.10666722E+03</rscale>
<asrwt>0</asrwt>
<pdfrwt beam="1">  1        1 0.65880328E-02 0.10705514E+03</pdfrwt>
<pdfrwt beam="2">  1       -1 0.10466012E+00 0.10705514E+03</pdfrwt>
<totfact> 0.10083535E+03</totfact>
</mgrwt>
</event>
<event>
 8    1  0.7366917E-004  0.9398094E+02  0.7546771E-02  0.1294492E+00
          1   -1    0    0  501    0  0.00000000000E+00  0.00000000000E+00  0.18962132149E+03  0.18962132149E+03  0.00000000000E+00 0. -1.
         -1   -1    0    0    0  501 -0.00000000000E+00 -0.00000000000E+00 -0.51062084925E+02  0.51062084925E+02  0.00000000000E+00 0.  1.
         23    2    1    2    0    0 -0.10482695005E+02 -0.25708745007E+01  0.29781217935E+02  0.96929888919E+02  0.91607784243E+02 0.  0.
         23    2    1    2    0    0  0.10482695005E+02  0.25708745007E+01  0.10877801863E+03  0.14375351749E+03  0.93359092567E+02 0.  0.
          5    1    4    4  502    0 -0.40484191703E+02  0.64998467241E+01  0.36466412840E+02  0.55073651147E+02  0.47000000000E+01 0. -1.
         -5    1    3    3    0  503  0.22805384099E+02  0.12013498442E+02 -0.21505310582E+02  0.33896579059E+02  0.47000000000E+01 0.  1.
          5    1    3    3  503    0 -0.33288079104E+02 -0.14584372942E+02  0.51286528517E+02  0.63033309860E+02  0.47000000000E+01 0. -1.
         -5    1    4    4    0  502  0.50966886709E+02 -0.39289722233E+01  0.72311605789E+02  0.88679866347E+02  0.47000000000E+01 0.  1.
<mgrwt>
<rscale>  0 0.93543010E+02</rscale>
<asrwt>0</asrwt>
<pdfrwt beam="1">  1        1 0.29172511E-01 0.93980937E+02</pdfrwt>
<pdfrwt beam="2">  1       -1 0.78557055E-02 0.93980937E+02</pdfrwt>
<totfact> 0.12601919E+04</totfact>
</mgrwt>
</event>
<event>
 8    1  0.7366917E-004  0.1144426E+03  0.7546771E-02  0.1254690E+00
         -1   -1    0    0    0  501 -0.00000000000E+00  0.00000000000E+00  0.97853878883E+01  0.97853878883E+01  0.00000000000E+00 0.  1.
          1   -1    0    0  501    0  0.00000000000E+00 -0.00000000000E+00 -0.13044413336E+04  0.13044413336E+04  0.00000000000E+00 0. -1.
         23    2    1    2    0    0  0.61932439060E+02 -0.96108892504E+01 -0.74403511865E+03  0.75278508015E+03  0.95755537193E+02 0.  0.
         23    2    1    2    0    0 -0.61932439060E+02  0.96108892504E+01 -0.55062082705E+03  0.56144164133E+03  0.90030135182E+02 0.  0.
          5    1    3    3  502    0 -0.24714741656E+02 -0.86869807705E+00 -0.23364982668E+03  0.23500192467E+03  0.47000000000E+01 0. -1.
         -5    1    4    4    0  503  0.17460059334E+02  0.19764000114E+02 -0.90258882674E+02  0.94150014732E+02  0.47000000000E+01 0.  1.
          5    1    4    4  503    0 -0.79392498394E+02 -0.10153110863E+02 -0.46036194438E+03  0.46729162660E+03  0.47000000000E+01 0. -1.
         -5    1    3    3    0  502  0.86647180716E+02 -0.87421911734E+01 -0.51038529198E+03  0.51778315548E+03  0.47000000000E+01 0.  1.
<mgrwt>
<rscale>  0 0.11323731E+03</rscale>
<asrwt>0</asrwt>
<pdfrwt beam="1">  1        1 0.20068317E+00 0.11444265E+03</pdfrwt>
<pdfrwt beam="2">  1       -1 0.15054451E-02 0.11444265E+03</pdfrwt>
<totfact> 0.96779608E+03</totfact>
</mgrwt>
</event>
<event>
 8    1  0.7366917E-004  0.9695381E+02  0.7546771E-02  0.1288155E+00
          2   -1    0    0  501    0  0.00000000000E+00  0.00000000000E+00  0.66960242719E+02  0.66960242719E+02  0.00000000000E+00 0. -1.
         -2   -1    0    0    0  501 -0.00000000000E+00 -0.00000000000E+00 -0.14279721684E+03  0.14279721684E+03  0.00000000000E+00 0.  1.
         23    2    1    2    0    0  0.32747889992E+02 -0.91832439336E+01 -0.59569715323E+02  0.11379187835E+03  0.90792534528E+02 0.  0.
         23    2    1    2    0    0 -0.32747889992E+02  0.91832439336E+01 -0.16267258803E+02  0.95965581216E+02  0.88249718420E+02 0.  0.
          5    1    3    3  502    0  0.13508302949E+02 -0.35217425850E+02  0.78885682911E+01  0.38820881516E+02  0.47000000000E+01 0. -1.
         -5    1    3    3    0  502  0.19239587043E+02  0.26034181916E+02 -0.67458283614E+02  0.74970996831E+02  0.47000000000E+01 0.  1.
          5    1    4    4  503    0 -0.50629532260E+02 -0.14825459602E+02  0.12240892705E+02  0.54360585385E+02  0.47000000000E+01 0. -1.
         -5    1    4    4    0  503  0.17881642268E+02  0.24008703536E+02 -0.28508151509E+02  0.41604995831E+02  0.47000000000E+01 0.  1.
<mgrwt>
<rscale>  0 0.96354009E+02</rscale>
<asrwt>0</asrwt>
<pdfrwt beam="1">  1        2 0.10301576E-01 0.96953806E+02</pdfrwt>
<pdfrwt beam="2">  1       -2 0.21968802E-01 0.96953806E+02</pdfrwt>
<totfact> 0.10026411E+04</totfact>
</mgrwt>
</event>
<event>
 8    1  0.7366917E-004  0.1289858E+03  0.7546771E-02  0.1233744E+00
          1   -1    0    0  501    0  0.00000000000E+00  0.00000000000E+00  0.28426920319E+03  0.28426920319E+03  0.00000000000E+00 0. -1.
         -1   -1    0    0    0  501 -0.00000000000E+00 -0.00000000000E+00 -0.60296863916E+02  0.60296863916E+02  0.00000000000E+00 0.  1.
         23    2    1    2    0    0  0.22907794329E+02 -0.82576138268E+02  0.17600206218E+03  0.21820645136E+03  0.96404065636E+02 0.  0.
         23    2    1    2    0    0 -0.22907794329E+02  0.82576138268E+02  0.47970277091E+02  0.12635961574E+03  0.79511127237E+02 0.  0.
          5    1    3    3  502    0  0.51054470698E+02 -0.77056858076E+02  0.97209826664E+02  0.13422428527E+03  0.47000000000E+01 0. -1.
         -5    1    3    3    0  502 -0.28146676369E+02 -0.55192801916E+01  0.78792235515E+02  0.83982166094E+02  0.47000000000E+01 0.  1.
          5    1    4    4  503    0  0.18366324286E+02  0.47674780456E+02  0.50572702007E+02  0.72040924117E+02  0.47000000000E+01 0. -1.
         -5    1    4    4    0  503 -0.41274118615E+02  0.34901357812E+02 -0.26024249163E+01  0.54318691627E+02  0.47000000000E+01 0.  1.
<mgrwt>
<rscale>  0 0.12585195E+03</rscale>
<asrwt>0</asrwt>
<pdfrwt beam="1">  1        1 0.43733723E-01 0.12898577E+03</pdfrwt>
<pdfrwt beam="2">  1       -1 0.92764408E-02 0.12898577E+03</pdfrwt>
<totfact> 0.61148381E+03</totfact>
</mgrwt>
</event>
<event>
 8    1  0.7366917E-004  0.1133791E+03  0.7546771E-02  0.1255799E+00
         -1   -1    0    0    0  501 -0.00000000000E+00  0.00000000000E+00  0.26068828392E+02  0.26068828392E+02  0.00000000000E+00 0.  1.
          1   -1    0    0  501    0  0.00000000000E+00 -0.00000000000E+00 -0.86388960633E+03  0.86388960633E+03  0.00000000000E+00 0. -1.
         23    2    1    2    0    0 -0.58775074084E+02  0.12886471088E+02 -0.12546439495E+03  0.16910394506E+03  0.96095053791E+02 0.  0.
         23    2    1    2    0    0  0.58775074084E+02 -0.12886471088E+02 -0.71235638298E+03  0.72085448966E+03  0.92514909162E+02 0.  0.
          5    1    4    4  502    0  0.60491019622E+02  0.28181298298E+02 -0.36906912985E+03  0.37508327294E+03  0.47000000000E+01 0. -1.
         -5    1    3    3    0  503 -0.81128996680E+02 -0.71215992708E+01 -0.10267730933E+03  0.13113867137E+03  0.47000000000E+01 0.  1.
          5    1    3    3  503    0  0.22353922596E+02  0.20008070359E+02 -0.22787085628E+02  0.37965273690E+02  0.47000000000E+01 0. -1.
         -5    1    4    4    0  502 -0.17159455382E+01 -0.41067769386E+02 -0.34328725313E+03  0.34577121672E+03  0.47000000000E+01 0.  1.
<mgrwt>
<rscale>  0 0.11261699E+03</rscale>
<asrwt>0</asrwt>
<pdfrwt beam="1">  1        1 0.13290607E+00 0.11337914E+03</pdfrwt>
<pdfrwt beam="2">  1       -1 0.40105896E-02 0.11337914E+03</pdfrwt>
<totfact> 0.48297963E+03</totfact>
</mgrwt>
</event>
<event>
 8    1  0.7366917E-004  0.1253189E+03  0.7546771E-02  0.1234636E+00
          1   -1    0    0  501    0  0.00000000000E+00  0.00000000000E+00  0.20343541626E+02  0.20343541626E+02  0.00000000000E+00 0. -1.
         -1   -1    0    0    0  501 -0.00000000000E+00 -0.00000000000E+00 -0.83500118643E+03  0.83500118643E+03  0.00000000000E+00 0.  1.
         23    2    1    2    0    0 -0.78776862950E+02 -0.32723995701E+02 -0.28914187244E+03  0.31513149566E+03  0.91805136713E+02 0.  0.
         23    2    1    2    0    0  0.78776862950E+02  0.32723995701E+02 -0.52551577236E+03  0.54021323239E+03  0.91579776273E+02 0.  0.
          5    1    3    3  502    0 -0.36646513335E+02 -0.36250866053E+02 -0.49081608635E+02  0.71331525537E+02  0.47000000000E+01 0. -1.
         -5    1    3    3    0  502 -0.42130349615E+02  0.35268703519E+01 -0.24006026380E+03  0.24379997012E+03  0.47000000000E+01 0.  1.
          5    1    4    4  503    0  0.10613948346E+02 -0.28752327961E+02 -0.92771961631E+02  0.97816558555E+02  0.47000000000E+01 0. -1.
         -5    1    4    4    0  503  0.68162914604E+02  0.61476323662E+02 -0.43274381073E+03  0.44239667384E+03  0.47000000000E+01 0.  1.
<mgrwt>
<rscale>  0 0.12527767E+03</rscale>
<asrwt>0</asrwt>
<pdfrwt beam="1">  1        1 0.31297758E-02 0.12531894E+03</pdfrwt>
<pdfrwt beam="2">  1       -1 0.12846172E+00 0.12531894E+03</pdfrwt>
<totfact> 0.17436895E+03</totfact>
</mgrwt>
</event>
<event>
 8    1  0.7366917E-004  0.1198404E+03  0.7546771E-02  0.1244538E+00
          1   -1    0    0  501    0  0.00000000000E+00  0.00000000000E+00  0.45920842278E+03  0.45920842278E+03  0.00000000000E+00 0. -1.
         -1   -1    0    0    0  501 -0.00000000000E+00 -0.00000000000E+00 -0.33345782638E+02  0.33345782638E+02  0.00000000000E+00 0.  1.
         23    2    1    2    0    0 -0.47560840894E+02 -0.58083686739E+02  0.28661538998E+03  0.31066076875E+03  0.93412971346E+02 0.  0.
         23    2    1    2    0    0  0.47560840894E+02  0.58083686739E+02  0.13924725016E+03  0.18189343667E+03  0.89775705919E+02 0.  0.
          5    1    3    3  502    0 -0.65489485489E+02 -0.49171793898E+02  0.13731600287E+03  0.15995159477E+03  0.47000000000E+01 0. -1.
         -5    1    3    3    0  502  0.17928644595E+02 -0.89118928416E+01  0.14929938711E+03  0.15070917398E+03  0.47000000000E+01 0.  1.
          5    1    4    4  503    0 -0.15720636836E+02  0.44383835657E+02  0.34121912164E+02  0.58339165060E+02  0.47000000000E+01 0. -1.
         -5    1    4    4    0  503  0.63281477730E+02  0.13699851083E+02  0.10512533800E+03  0.12355427161E+03  0.47000000000E+01 0.  1.
<mgrwt>
<rscale>  0 0.11913092E+03</rscale>
<asrwt>0</asrwt>
<pdfrwt beam="1">  1        1 0.70647445E-01 0.11984044E+03</pdfrwt>
<pdfrwt beam="2">  1       -1 0.51301207E-02 0.11984044E+03</pdfrwt>
<totfact> 0.81047251E+03</totfact>
</mgrwt>
</event>
<event>
 8    1  0.7366917E-004  0.9928375E+02  0.7546771E-02  0.1283284E+00
         -2   -1    0    0    0  501 -0.00000000000E+00  0.00000000000E+00  0.18398105625E+03  0.18398105625E+03  0.00000000000E+00 0.  1.
          2   -1    0    0  501    0  0.00000000000E+00 -0.00000000000E+00 -0.52152459876E+02  0.52152459876E+02  0.00000000000E+00 0. -1.
         23    2    1    2    0    0  0.31679823045E+02  0.13830582282E+01  0.61678889673E+02  0.11456771645E+03  0.91191842742E+02 0.  0.
         23    2    1    2    0    0 -0.31679823045E+02 -0.13830582282E+01  0.70149706705E+02  0.12156579968E+03  0.94083676922E+02 0.  0.
          5    1    3    3  502    0  0.18281792565E+02  0.45668816207E+02  0.38269850873E+02  0.62502289550E+02  0.47000000000E+01 0. -1.
         -5    1    3    3    0  502  0.13398030480E+02 -0.44285757979E+02  0.23409038800E+02  0.52065426898E+02  0.47000000000E+01 0.  1.
          5    1    4    4  503    0 -0.23979238657E+02 -0.34960014567E+02 -0.68480428597E+00  0.42658709099E+02  0.47000000000E+01 0. -1.
         -5    1    4    4    0  503 -0.77005843876E+01  0.33576956339E+02  0.70834510991E+02  0.78907090582E+02  0.47000000000E+01 0.  1.
<mgrwt>
<rscale>  0 0.98592574E+02</rscale>
<asrwt>0</asrwt>
<pdfrwt beam="1">  1        2 0.80234554E-02 0.99283746E+02</pdfrwt>
<pdfrwt beam="2">  1       -2 0.28304778E-01 0.99283746E+02</pdfrwt>
<totfact> 0.88012995E+03</totfact>
</mgrwt>
</event>
<event>
 8    1  0.7366917E-004  0.1037649E+03  0.7546771E-02  0.1272576E+00
         -2   -1    0    0    0  501 -0.00000000000E+00  0.00000000000E+00  0.28047186097E+03  0.28047186097E+03  0.00000000000E+00 0.  1.
          2   -1    0    0  501    0  0.00000000000E+00 -0.00000000000E+00 -0.61241572048E+02  0.61241572048E+02  0.00000000000E+00 0. -1.
         23    2    1    2    0    0  0.19611149820E+02 -0.48159494154E+02  0.21399283928E+03  0.23782364875E+03  0.89795426214E+02 0.  0.
         23    2    1    2    0    0 -0.19611149820E+02  0.48159494154E+02  0.52374496461E+01  0.10388978427E+03  0.89787094407E+02 0.  0.
          5    1    3    3  502    0 -0.31618526260E+02 -0.36471113047E+02  0.12869527923E+03  0.13752977200E+03  0.47000000000E+01 0. -1.
         -5    1    3    3    0  502  0.51229676080E+02 -0.11688381107E+02  0.85297560046E+02  0.10029387675E+03  0.47000000000E+01 0.  1.
          5    1    4    4  503    0  0.19661319244E+02  0.58804091476E+02  0.86827875827E+01  0.62785105312E+02  0.47000000000E+01 0. -1.
         -5    1    4    4    0  503 -0.39272469065E+02 -0.10644597323E+02 -0.34453379365E+01  0.41104678956E+02  0.47000000000E+01 0.  1.
<mgrwt>
<rscale>  0 0.10376309E+03</rscale>
<asrwt>0</asrwt>
<pdfrwt beam="1">  1        2 0.94217805E-02 0.10376489E+03</pdfrwt>
<pdfrwt beam="2">  1       -2 0.43149516E-01 0.10376489E+03</pdfrwt>
<totfact> 0.33405063E+03</totfact>
</mgrwt>
</event>
<event>
 8    1  0.1042463E-003  0.1076922E+03  0.7546771E-02  0.1269069E+00
          1   -1    0    0  501    0  0.00000000000E+00  0.00000000000E+00  0.52316182965E+03  0.52316182965E+03  0.00000000000E+00 0. -1.
         -1   -1    0    0    0  501 -0.00000000000E+00 -0.00000000000E+00 -0.53375217495E+02  0.53375217495E+02  0.00000000000E+00 0.  1.
         23    2    1    2    0    0 -0.21926373422E+02 -0.38503970280E+02  0.46477796311E+03  0.47709135779E+03  0.98154404446E+02 0.  0.
         23    2    1    2    0    0  0.21926373422E+02  0.38503970280E+02  0.50086490461E+01  0.99445689350E+02  0.88887777485E+02 0.  0.
          5    1    3    3  502    0 -0.56655078976E+02 -0.59281191033E+01  0.30473540370E+03  0.31004950708E+03  0.47000000000E+01 0. -1.
         -5    1    4    4    0  503  0.54841947016E+02  0.32590888114E+02 -0.51631156968E+01  0.64175952695E+02  0.47000000000E+01 0.  1.
          5    1    4    4  503    0 -0.32915573594E+02  0.59130821653E+01  0.10171764743E+02  0.35269736655E+02  0.47000000000E+01 0. -1.
         -5    1    3    3    0  502  0.34728705555E+02 -0.32575851176E+02  0.16004255941E+03  0.16704185072E+03  0.47000000000E+01 0.  1.
<mgrwt>
<rscale>  0 0.10553506E+03</rscale>
<asrwt>0</asrwt>
<pdfrwt beam="1">  1        1 0.80486432E-01 0.10769219E+03</pdfrwt>
<pdfrwt beam="2">  1       -1 0.82115723E-02 0.10769219E+03</pdfrwt>
<totfact> 0.33808505E+03</totfact>
</mgrwt>
</event>
<event>
 8    1  0.7366917E-004  0.9825067E+02  0.7546771E-02  0.1284542E+00
         -2   -1    0    0    0  501 -0.00000000000E+00  0.00000000000E+00  0.64106000854E+03  0.64106000854E+03  0.00000000000E+00 0.  1.
          2   -1    0    0  501    0  0.00000000000E+00 -0.00000000000E+00 -0.16030317796E+02  0.16030317796E+02  0.00000000000E+00 0. -1.
         23    2    1    2    0    0  0.13918447094E+02  0.36910785957E+02  0.40080613038E+03  0.41267268802E+03  0.89983687398E+02 0.  0.
         23    2    1    2    0    0 -0.13918447094E+02 -0.36910785957E+02  0.22422356036E+03  0.24441763831E+03  0.88924954925E+02 0.  0.
          5    1    4    4  502    0  0.36519916906E+02 -0.25560162126E+02  0.11688023339E+03  0.12518029069E+03  0.47000000000E+01 0. -1.
         -5    1    3    3    0  503  0.42622906301E+02 -0.52077862035E+00  0.11064926550E+03  0.11866900736E+03  0.47000000000E+01 0. -1.
          5    1    3    3  503    0 -0.28704459207E+02  0.37431564578E+02  0.29015686488E+03  0.29400368066E+03  0.47000000000E+01 0.  1.
         -5    1    4    4    0  502 -0.50438363999E+02 -0.11350623832E+02  0.10734332697E+03  0.11923734763E+03  0.47000000000E+01 0.  1.
<mgrwt>
<rscale>  0 0.98007585E+02</rscale>
<asrwt>0</asrwt>
<pdfrwt beam="1">  1        2 0.24662032E-02 0.98250666E+02</pdfrwt>
<pdfrwt beam="2">  1       -2 0.98624597E-01 0.98250666E+02</pdfrwt>
<totfact> 0.33562155E+03</totfact>
</mgrwt>
</event>
<event>
 8    1  0.7366917E-004  0.9171307E+02  0.7546771E-02  0.1299918E+00
         -4   -1    0    0    0  501 -0.00000000000E+00  0.00000000000E+00  0.19085580420E+03  0.19085580420E+03  0.00000000000E+00 0.  1.
          4   -1    0    0  501    0  0.00000000000E+00 -0.00000000000E+00 -0.45167619069E+02  0.45167619069E+02  0.00000000000E+00 0. -1.
         23    2    1    2    0    0 -0.35450828699E+01 -0.75126352897E+01  0.97095418679E+02  0.13223255878E+03  0.89380769582E+02 0.  0.
         23    2    1    2    0    0  0.35450828699E+01  0.75126352897E+01  0.48592766454E+02  0.10379086449E+03  0.91336078846E+02 0.  0.
          5    1    4    4  502    0 -0.32006518988E+02 -0.24350530412E+02  0.87348962189E+01  0.41421661012E+02  0.47000000000E+01 0. -1.
         -5    1    4    4    0  502  0.35551601858E+02  0.31863165701E+02  0.39857870235E+02  0.62369203481E+02  0.47000000000E+01 0.  1.
          5    1    3    3  503    0  0.49741787383E+01 -0.41795636867E+02  0.84349029669E+02  0.94384673127E+02  0.47000000000E+01 0. -1.
         -5    1    3    3    0  503 -0.85192616082E+01  0.34283001577E+02  0.12746389010E+02  0.37847885651E+02  0.47000000000E+01 0.  1.
<mgrwt>
<rscale>  0 0.91222368E+02</rscale>
<asrwt>0</asrwt>
<pdfrwt beam="1">  1        4 0.69488646E-02 0.91713067E+02</pdfrwt>
<pdfrwt beam="2">  1       -4 0.29362431E-01 0.91713067E+02</pdfrwt>
<totfact> 0.23022028E+03</totfact>
</mgrwt>
</event>
<event>
 8    1  0.7366917E-004  0.1042219E+03  0.7546771E-02  0.1272062E+00
         -1   -1    0    0    0  501 -0.00000000000E+00  0.00000000000E+00  0.48988982087E+02  0.48988982087E+02  0.00000000000E+00 0.  1.
          1   -1    0    0  501    0  0.00000000000E+00 -0.00000000000E+00 -0.67259271999E+03  0.67259271999E+03  0.00000000000E+00 0. -1.
         23    2    1    2    0    0  0.24984490281E+02  0.42692079514E+02 -0.15453250390E+02  0.10456531477E+03  0.90819952092E+02 0.  0.
         23    2    1    2    0    0 -0.24984490281E+02 -0.42692079514E+02 -0.60815048751E+03  0.61701638731E+03  0.91735316716E+02 0.  0.
          5    1    3    3  502    0  0.55458872136E+02  0.80270005853E+01 -0.14873395748E+02  0.58167234231E+02  0.47000000000E+01 0. -1.
         -5    1    4    4    0  503 -0.19486562836E+02  0.20720106760E+02 -0.80241848704E+02  0.85263668926E+02  0.47000000000E+01 0.  1.
          5    1    4    4  503    0 -0.54979274459E+01 -0.63412186274E+02 -0.52790863881E+03  0.53175271838E+03  0.47000000000E+01 0. -1.
         -5    1    3    3    0  502 -0.30474381854E+02  0.34665078929E+02 -0.57985464185E+00  0.46398080542E+02  0.47000000000E+01 0.  1.
<mgrwt>
<rscale>  0 0.10402013E+03</rscale>
<asrwt>0</asrwt>
<pdfrwt beam="1">  1        1 0.10347580E+00 0.10422191E+03</pdfrwt>
<pdfrwt beam="2">  1       -1 0.75367670E-02 0.10422191E+03</pdfrwt>
<totfact> 0.27371937E+03</totfact>
</mgrwt>
</event>
<event>
 8    1  0.7366917E-004  0.9010230E+02  0.7546771E-02  0.1306385E+00
          1   -1    0    0  501    0  0.00000000000E+00  0.00000000000E+00  0.22105098814E+03  0.22105098814E+03  0.00000000000E+00 0. -1.
         -1   -1    0    0    0  501 -0.00000000000E+00 -0.00000000000E+00 -0.70640051695E+02  0.70640051695E+02  0.00000000000E+00 0.  1.
         23    2    1    2    0    0  0.26343112942E+01 -0.49305783143E+00  0.17850159246E+03  0.19731143690E+03  0.84034528138E+02 0.  0.
         23    2    1    2    0    0 -0.26343112942E+01  0.49305783143E+00 -0.28090656014E+02  0.94379602934E+02  0.90062432749E+02 0.  0.
          5    1    3    3  502    0  0.16129917748E+02 -0.20153905874E+02  0.16930169015E+03  0.17132281359E+03  0.47000000000E+01 0. -1.
         -5    1    3    3    0  502 -0.13495606453E+02  0.19660848042E+02  0.91999023142E+01  0.25988623316E+02  0.47000000000E+01 0.  1.
          5    1    4    4  503    0 -0.40721943207E+02 -0.91491064958E+01  0.56485564382E+01  0.42378992414E+02  0.47000000000E+01 0. -1.
         -5    1    4    4    0  503  0.38087631912E+02  0.96421643273E+01 -0.33739212452E+02  0.52000610520E+02  0.47000000000E+01 0.  1.
<mgrwt>
<rscale>  0 0.88556723E+02</rscale>
<asrwt>0</asrwt>
<pdfrwt beam="1">  1        1 0.34007844E-01 0.90102300E+02</pdfrwt>
<pdfrwt beam="2">  1       -1 0.10867700E-01 0.90102300E+02</pdfrwt>
<totfact> 0.63852315E+03</totfact>
</mgrwt>
</event>
<event>
 8    1  0.7366917E-004  0.1232912E+03  0.7546771E-02  0.1238372E+00
         -1   -1    0    0    0  501 -0.00000000000E+00  0.00000000000E+00  0.94891305254E+02  0.94891305254E+02  0.00000000000E+00 0.  1.
          1   -1    0    0  501    0  0.00000000000E+00 -0.00000000000E+00 -0.19007431743E+03  0.19007431743E+03  0.00000000000E+00 0. -1.
         23    2    1    2    0    0 -0.37330710962E+02  0.75413208750E+02  0.10487087696E+02  0.12373636064E+03  0.90110897787E+02 0.  0.
         23    2    1    2    0    0  0.37330710962E+02 -0.75413208750E+02 -0.10567009988E+03  0.16122926205E+03  0.88022559036E+02 0.  0.
          5    1    4    4  502    0  0.24458505148E+02 -0.96916390641E+00 -0.75905030302E+02  0.79892561468E+02  0.47000000000E+01 0. -1.
         -5    1    4    4    0  502  0.12872205814E+02 -0.74444044843E+02 -0.29765069573E+02  0.81336700583E+02  0.47000000000E+01 0.  1.
          5    1    3    3  503    0 -0.12588925448E+02  0.29304869475E+02 -0.39658077213E+02  0.51108800682E+02  0.47000000000E+01 0. -1.
         -5    1    3    3    0  503 -0.24741785514E+02  0.46108339274E+02  0.50145164909E+02  0.72627559953E+02  0.47000000000E+01 0.  1.
<mgrwt>
<rscale>  0 0.12290989E+03</rscale>
<asrwt>0</asrwt>
<pdfrwt beam="1">  1        1 0.29242202E-01 0.12329115E+03</pdfrwt>
<pdfrwt beam="2">  1       -1 0.14598662E-01 0.12329115E+03</pdfrwt>
<totfact> 0.49925996E+03</totfact>
</mgrwt>
</event>
<event>
 8    1  0.7366917E-004  0.1078540E+03  0.7546771E-02  0.1264861E+00
          1   -1    0    0  501    0  0.00000000000E+00  0.00000000000E+00  0.15467929445E+03  0.15467929445E+03  0.00000000000E+00 0. -1.
         -1   -1    0    0    0  501 -0.00000000000E+00 -0.00000000000E+00 -0.13178921596E+03  0.13178921596E+03  0.00000000000E+00 0.  1.
         23    2    1    2    0    0  0.23269837439E+02 -0.52296346934E+02 -0.82747374928E+02  0.13549909963E+03  0.90755080879E+02 0.  0.
         23    2    1    2    0    0 -0.23269837439E+02  0.52296346934E+02  0.10563745341E+03  0.15096941078E+03  0.91411696132E+02 0.  0.
          5    1    3    3  502    0 -0.49795417210E+00  0.23164915139E+02 -0.43860887042E+01  0.24045561459E+02  0.47000000000E+01 0. -1.
         -5    1    4    4    0  503 -0.22201805791E+02 -0.76656913771E+01 -0.55174287322E+01  0.24580785677E+02  0.47000000000E+01 0.  1.
          5    1    4    4  503    0 -0.10680316485E+01  0.59962038312E+02  0.11115488215E+03  0.12638862510E+03  0.47000000000E+01 0. -1.
         -5    1    3    3    0  502  0.23767791611E+02 -0.75461262073E+02 -0.78361286223E+02  0.11145353817E+03  0.47000000000E+01 0.  1.
<mgrwt>
<rscale>  0 0.10771477E+03</rscale>
<asrwt>0</asrwt>
<pdfrwt beam="1">  1        1 0.23796814E-01 0.10785403E+03</pdfrwt>
<pdfrwt beam="2">  1       -1 0.20275264E-01 0.10785403E+03</pdfrwt>
<totfact> 0.38117790E+03</totfact>
</mgrwt>
</event>
<event>
 8    1  0.7366917E-004  0.1027433E+03  0.7546771E-02  0.1275708E+00
          1   -1    0    0  501    0  0.00000000000E+00  0.00000000000E+00  0.91833867410E+02  0.91833867410E+02  0.00000000000E+00 0. -1.
         -1   -1    0    0    0  501 -0.00000000000E+00 -0.00000000000E+00 -0.11699500111E+03  0.11699500111E+03  0.00000000000E+00 0.  1.
         23    2    1    2    0    0 -0.40635156759E+02  0.86448888941E+01  0.77589205566E+01  0.10094046490E+03  0.91666932631E+02 0.  0.
         23    2    1    2    0    0  0.40635156759E+02 -0.86448888941E+01 -0.32920054256E+02  0.10788840362E+03  0.93969290695E+02 0.  0.
          5    1    3    3  502    0 -0.57090683639E+02 -0.16279025019E+02 -0.16924627642E+02  0.61910304754E+02  0.47000000000E+01 0. -1.
         -5    1    3    3    0  502  0.16455526880E+02  0.24923913913E+02  0.24683548199E+02  0.39030160150E+02  0.47000000000E+01 0.  1.
          5    1    4    4  503    0  0.61482928323E+02 -0.33281658161E+02 -0.20766040901E+02  0.73083087646E+02  0.47000000000E+01 0.  1.
         -5    1    4    4    0  503 -0.20847771564E+02  0.24636769267E+02 -0.12154013355E+02  0.34805315970E+02  0.47000000000E+01 0. -1.
<mgrwt>
<rscale>  0 0.10221382E+03</rscale>
<asrwt>0</asrwt>
<pdfrwt beam="1">  1        1 0.14128287E-01 0.10274326E+03</pdfrwt>
<pdfrwt beam="2">  1       -1 0.17999231E-01 0.10274326E+03</pdfrwt>
<totfact> 0.88901165E+03</totfact>
</mgrwt>
</event>
<event>
 7    1  0.7366917E-004  0.2242251E+03  0.7546771E-02  0.1143252E+00
         -1   -1    0    0    0  501 -0.00000000000E+00  0.00000000000E+00  0.35787821815E+03  0.35787821815E+03  0.00000000000E+00 0.  1.
          1   -1    0    0  501    0  0.00000000000E+00 -0.00000000000E+00 -0.10660832769E+03  0.10660832769E+03  0.00000000000E+00 0. -1.
         23    2    1    2    0    0  0.13471148470E+03 -0.13521529186E+02  0.92526078781E+02  0.18975670158E+03  0.95480441329E+02 0.  0.
          5    1    3    3  502    0  0.11846757176E+01  0.25904277125E+02  0.15525956440E+02  0.30587258022E+02  0.47000000000E+01 0. -1.
         -5    1    1    2    0  503 -0.51660407877E+02 -0.53601749288E+02 -0.97142909160E+01  0.75222355166E+02  0.47000000000E+01 0.  1.
          5    1    1    2  503    0 -0.83051076825E+02  0.67123278474E+02  0.16845810260E+03  0.19950748910E+03  0.47000000000E+01 0. -1.
         -5    1    3    3    0  502  0.13352680898E+03 -0.39425806311E+02  0.77000122341E+02  0.15916944355E+03  0.47000000000E+01 0.  1.
<mgrwt>
<rscale>  0 0.20788544E+03</rscale>
<asrwt>0</asrwt>
<pdfrwt beam="1">  1        1 0.16401281E-01 0.22422509E+03</pdfrwt>
<pdfrwt beam="2">  1       -1 0.55058187E-01 0.22422509E+03</pdfrwt>
<totfact> 0.11307204E+03</totfact>
</mgrwt>
</event>
<event>
 8    1  0.7366917E-004  0.1317452E+03  0.7546771E-02  0.1225794E+00
          2   -1    0    0  501    0  0.00000000000E+00  0.00000000000E+00  0.65490299481E+02  0.65490299481E+02  0.00000000000E+00 0. -1.
         -2   -1    0    0    0  501 -0.00000000000E+00 -0.00000000000E+00 -0.31902457021E+03  0.31902457021E+03  0.00000000000E+00 0.  1.
         23    2    1    2    0    0  0.79247667363E+02 -0.44535283548E+02 -0.21035868026E+03  0.24820872738E+03  0.95358343768E+02 0.  0.
         23    2    1    2    0    0 -0.79247667363E+02  0.44535283548E+02 -0.43175590472E+02  0.13630614231E+03  0.91932848077E+02 0.  0.
          5    1    3    3  502    0  0.53235988015E+02  0.22836312091E+02 -0.76911900941E+02  0.96400716160E+02  0.47000000000E+01 0. -1.
         -5    1    3    3    0  502  0.26011679348E+02 -0.67371595639E+02 -0.13344677932E+03  0.15180801122E+03  0.47000000000E+01 0.  1.
          5    1    4    4  503    0 -0.99498117649E+02  0.32874542483E+02 -0.30136986304E+02  0.10913724801E+03  0.47000000000E+01 0. -1.
         -5    1    4    4    0  503  0.20250450286E+02  0.11660741065E+02 -0.13038604169E+02  0.27168894302E+02  0.47000000000E+01 0.  1.
<mgrwt>
<rscale>  0 0.13112641E+03</rscale>
<asrwt>0</asrwt>
<pdfrwt beam="1">  1        2 0.10075430E-01 0.13174520E+03</pdfrwt>
<pdfrwt beam="2">  1       -2 0.49080705E-01 0.13174520E+03</pdfrwt>
<totfact> 0.24334942E+03</totfact>
</mgrwt>
</event>
<event>
 8    1  0.7366917E-004  0.1028618E+03  0.7546771E-02  0.1279128E+00
          1   -1    0    0  501    0  0.00000000000E+00  0.00000000000E+00  0.46852359354E+02  0.46852359354E+02  0.00000000000E+00 0. -1.
         -1   -1    0    0    0  501 -0.00000000000E+00 -0.00000000000E+00 -0.22341960817E+03  0.22341960817E+03  0.00000000000E+00 0.  1.
         23    2    1    2    0    0  0.24031335905E+00  0.25770266112E+02 -0.12153445428E+03  0.15361368142E+03  0.90345864192E+02 0.  0.
         23    2    1    2    0    0 -0.24031335905E+00 -0.25770266112E+02 -0.55032794542E+02  0.11665828611E+03  0.99581036732E+02 0.  0.
          5    1    3    3  502    0  0.43083335544E+02  0.20733222516E+01 -0.43999693369E+02  0.61794299764E+02  0.47000000000E+01 0. -1.
         -5    1    4    4    0  503 -0.12186406495E+02  0.29026503905E+02 -0.51148848470E+02  0.60244013246E+02  0.47000000000E+01 0.  1.
          5    1    4    4  503    0  0.11946093136E+02 -0.54796770017E+02 -0.38839460720E+01  0.56414272862E+02  0.47000000000E+01 0. -1.
         -5    1    3    3    0  502 -0.42843022185E+02  0.23696943861E+02 -0.77534760907E+02  0.91819381653E+02  0.47000000000E+01 0.  1.
<mgrwt>
<rscale>  0 0.10055747E+03</rscale>
<asrwt>0</asrwt>
<pdfrwt beam="1">  1        1 0.72080553E-02 0.10286179E+03</pdfrwt>
<pdfrwt beam="2">  1       -1 0.34372247E-01 0.10286179E+03</pdfrwt>
<totfact> 0.74831710E+03</totfact>
</mgrwt>
</event>
<event>
 8    1  0.7366917E-004  0.1065208E+03  0.7546771E-02  0.1268667E+00
         -1   -1    0    0    0  501 -0.00000000000E+00  0.00000000000E+00  0.13567516374E+02  0.13567516374E+02  0.00000000000E+00 0.  1.
          1   -1    0    0  501    0  0.00000000000E+00 -0.00000000000E+00 -0.95981925043E+03  0.95981925043E+03  0.00000000000E+00 0. -1.
         23    2    1    2    0    0 -0.24994059368E+02 -0.51161852243E+02 -0.27643171718E+03  0.29514968354E+03  0.86351625946E+02 0.  0.
         23    2    1    2    0    0  0.24994059368E+02  0.51161852243E+02 -0.66982001687E+03  0.67823708326E+03  0.90024707580E+02 0.  0.
          5    1    3    3  502    0 -0.32240520387E+02  0.10758543396E+02 -0.15284719175E+03  0.15665104990E+03  0.47000000000E+01 0. -1.
         -5    1    3    3    0  502  0.72464610190E+01 -0.61920395639E+02 -0.12358452543E+03  0.13849863364E+03  0.47000000000E+01 0.  1.
          5    1    4    4  503    0 -0.28335961715E+02  0.35987393054E+02 -0.40664474505E+03  0.40924327467E+03  0.47000000000E+01 0. -1.
         -5    1    4    4    0  503  0.53330021083E+02  0.15174459190E+02 -0.26317527182E+03  0.26899380859E+03  0.47000000000E+01 0.  1.
<mgrwt>
<rscale>  0 0.10574090E+03</rscale>
<asrwt>0</asrwt>
<pdfrwt beam="1">  1        1 0.14766452E+00 0.10652082E+03</pdfrwt>
<pdfrwt beam="2">  1       -1 0.20873100E-02 0.10652082E+03</pdfrwt>
<totfact> 0.10475045E+04</totfact>
</mgrwt>
</event>
<event>
 8    1  0.7366917E-004  0.1360188E+03  0.7546771E-02  0.1226185E+00
          3   -1    0    0  501    0  0.00000000000E+00  0.00000000000E+00  0.11651903567E+03  0.11651903567E+03  0.00000000000E+00 0. -1.
         -3   -1    0    0    0  501 -0.00000000000E+00 -0.00000000000E+00 -0.15207646134E+03  0.15207646134E+03  0.00000000000E+00 0.  1.
         23    2    1    2    0    0 -0.26552776985E+02 -0.67175475745E+02 -0.61402491066E+02  0.14923594693E+03  0.11525409945E+03 0.  0.
         23    2    1    2    0    0  0.26552776985E+02  0.67175475745E+02  0.25845065392E+02  0.11935955008E+03  0.91439271008E+02 0.  0.
          5    1    3    3  502    0 -0.68228024690E+02 -0.51349207436E+02 -0.59848839529E+02  0.10438284366E+03  0.47000000000E+01 0. -1.
         -5    1    4    4    0  503 -0.12747462769E+01  0.55072289502E+02 -0.24433322724E+02  0.60445506933E+02  0.47000000000E+01 0.  1.
          5    1    4    4  503    0  0.27827523262E+02  0.12103186243E+02  0.50278388116E+02  0.58914043145E+02  0.47000000000E+01 0. -1.
         -5    1    3    3    0  502  0.41675247705E+02 -0.15826268309E+02 -0.15536515372E+01  0.44853103270E+02  0.47000000000E+01 0.  1.
<mgrwt>
<rscale>  0 0.13085988E+03</rscale>
<asrwt>0</asrwt>
<pdfrwt beam="1">  1        3 0.17926006E-01 0.13601876E+03</pdfrwt>
<pdfrwt beam="2">  1       -3 0.23396379E-01 0.13601876E+03</pdfrwt>
<totfact> 0.10635581E+03</totfact>
</mgrwt>
</event>
<event>
 8    1  0.7366917E-004  0.9897155E+02  0.7546771E-02  0.1283965E+00
          1   -1    0    0  501    0  0.00000000000E+00  0.00000000000E+00  0.59434569480E+03  0.59434569480E+03  0.00000000000E+00 0. -1.
         -1   -1    0    0    0  501 -0.00000000000E+00 -0.00000000000E+00 -0.24467002739E+02  0.24467002739E+02  0.00000000000E+00 0.  1.
         23    2    1    2    0    0 -0.93692273095E+01 -0.28888038383E+02  0.10584438729E+03  0.14490825649E+03  0.94196960119E+02 0.  0.
         23    2    1    2    0    0  0.93692273095E+01  0.28888038383E+02  0.46403430478E+03  0.47390444106E+03  0.91297765907E+02 0.  0.
          5    1    4    4  502    0 -0.22518256509E+02  0.51246233703E+02  0.24220893209E+03  0.24863729634E+03  0.47000000000E+01 0. -1.
         -5    1    3    3    0  503  0.30474825391E+02  0.18790850510E+02  0.31639788023E+02  0.48010178417E+02  0.47000000000E+01 0.  1.
          5    1    3    3  503    0 -0.39844052701E+02 -0.47678888892E+02  0.74204599264E+02  0.96898078069E+02  0.47000000000E+01 0. -1.
         -5    1    4    4    0  502  0.31887483818E+02 -0.22358195320E+02  0.22182537269E+03  0.22526714472E+03  0.47000000000E+01 0.  1.
<mgrwt>
<rscale>  0 0.98275440E+02</rscale>
<asrwt>0</asrwt>
<pdfrwt beam="1">  1        1 0.91437789E-01 0.98971554E+02</pdfrwt>
<pdfrwt beam="2">  1       -1 0.37641547E-02 0.98971554E+02</pdfrwt>
<totfact> 0.89809435E+03</totfact>
</mgrwt>
</event>
<event>
 8    1  0.7366917E-004  0.9059573E+02  0.7546771E-02  0.1301442E+00
         -1   -1    0    0    0  501 -0.00000000000E+00  0.00000000000E+00  0.18404366164E+03  0.18404366164E+03  0.00000000000E+00 0.  1.
          1   -1    0    0  501    0  0.00000000000E+00 -0.00000000000E+00 -0.70128111764E+02  0.70128111764E+02  0.00000000000E+00 0. -1.
         23    2    1    2    0    0  0.71109163179E+01  0.57089227611E+01  0.13368248540E+03  0.16148867859E+03  0.90135617153E+02 0.  0.
         23    2    1    2    0    0 -0.71109163179E+01 -0.57089227611E+01 -0.19766935534E+02  0.92683094808E+02  0.90090329075E+02 0.  0.
          5    1    3    3  502    0 -0.19673901336E+02  0.41153837335E+02  0.64665943927E+02  0.79274680858E+02  0.47000000000E+01 0. -1.
         -5    1    4    4    0  503  0.24327062333E+02 -0.17614483655E+02  0.22972883834E+02  0.38104059992E+02  0.47000000000E+01 0.  1.
          5    1    4    4  503    0 -0.31437978651E+02  0.11905560894E+02 -0.42739819368E+02  0.54579034816E+02  0.47000000000E+01 0. -1.
         -5    1    3    3    0  502  0.26784817654E+02 -0.35444914574E+02  0.69016541478E+02  0.82213997734E+02  0.47000000000E+01 0.  1.
<mgrwt>
<rscale>  0 0.90584464E+02</rscale>
<asrwt>0</asrwt>
<pdfrwt beam="1">  1        1 0.10788940E-01 0.90595731E+02</pdfrwt>
<pdfrwt beam="2">  1       -1 0.28314409E-01 0.90595731E+02</pdfrwt>
<totfact> 0.60130008E+03</totfact>
</mgrwt>
</event>
<event>
 8    1  0.7366917E-004  0.1598385E+03  0.7546771E-02  0.1191989E+00
          1   -1    0    0  501    0  0.00000000000E+00  0.00000000000E+00  0.53687223554E+03  0.53687223554E+03  0.00000000000E+00 0. -1.
         -1   -1    0    0    0  501 -0.00000000000E+00 -0.00000000000E+00 -0.19796350877E+03  0.19796350877E+03  0.00000000000E+00 0.  1.
         23    2    1    2    0    0 -0.86293503526E+02  0.81168226907E+02 -0.15271181711E+03  0.22106386126E+03  0.10730089402E+03 0.  0.
         23    2    1    2    0    0  0.86293503526E+02 -0.81168226907E+02  0.49162054388E+03  0.51377188305E+03  0.90752073475E+02 0.  0.
          5    1    4    4  502    0  0.26335385841E+02 -0.83123200628E+02  0.32844862568E+03  0.33985821859E+03  0.47000000000E+01 0. -1.
         -5    1    4    4    0  502  0.59958117684E+02  0.19549737217E+01  0.16317191820E+03  0.17391366446E+03  0.47000000000E+01 0.  1.
          5    1    3    3  503    0 -0.14397765568E+02  0.19891096408E+02  0.14539136020E+02  0.28921062322E+02  0.47000000000E+01 0. -1.
         -5    1    3    3    0  503 -0.71895737958E+02  0.61277130499E+02 -0.16725095313E+03  0.19214279894E+03  0.47000000000E+01 0.  1.
<mgrwt>
<rscale>  0 0.15711871E+03</rscale>
<asrwt>0</asrwt>
<pdfrwt beam="1">  1        1 0.82595728E-01 0.15983845E+03</pdfrwt>
<pdfrwt beam="2">  1       -1 0.30455925E-01 0.15983845E+03</pdfrwt>
<totfact> 0.41462383E+02</totfact>
</mgrwt>
</event>
<event>
 8    1  0.7366917E-004  0.9865382E+02  0.7546771E-02  0.1284643E+00
          1   -1    0    0  501    0  0.00000000000E+00  0.00000000000E+00  0.15058646404E+03  0.15058646404E+03  0.00000000000E+00 0. -1.
         -1   -1    0    0    0  501 -0.00000000000E+00 -0.00000000000E+00 -0.64221027334E+02  0.64221027334E+02  0.00000000000E+00 0.  1.
         23    2    1    2    0    0  0.19582510732E+02 -0.52590614503E+01  0.26876573296E+02  0.99605486905E+02  0.93743108416E+02 0.  0.
         23    2    1    2    0    0 -0.19582510732E+02  0.52590614503E+01  0.59488863413E+02  0.11520200447E+03  0.96547628195E+02 0.  0.
          5    1    3    3  502    0 -0.17722989287E+02  0.19537898845E+02  0.43919928034E+02  0.51447875749E+02  0.47000000000E+01 0. -1.
         -5    1    4    4    0  503  0.10999672488E+02  0.42632909171E+02  0.90116662954E+01  0.45186921433E+02  0.47000000000E+01 0.  1.
          5    1    4    4  503    0 -0.30582183220E+02 -0.37373847720E+02  0.50477197117E+02  0.70015083038E+02  0.47000000000E+01 0. -1.
         -5    1    3    3    0  502  0.37305500019E+02 -0.24796960296E+02 -0.17043354738E+02  0.48157611156E+02  0.47000000000E+01 0.  1.
<mgrwt>
<rscale>  0 0.97960828E+02</rscale>
<asrwt>0</asrwt>
<pdfrwt beam="1">  1        1 0.23167148E-01 0.98653824E+02</pdfrwt>
<pdfrwt beam="2">  1       -1 0.98801581E-02 0.98653824E+02</pdfrwt>
<totfact> 0.11936880E+04</totfact>
</mgrwt>
</event>
<event>
 7    1  0.7366917E-004  0.1900015E+03  0.7546771E-02  0.1171366E+00
          2   -1    0    0  501    0  0.00000000000E+00  0.00000000000E+00  0.19600139490E+04  0.19600139490E+04  0.00000000000E+00 0. -1.
         -2   -1    0    0    0  501 -0.00000000000E+00 -0.00000000000E+00 -0.14180882958E+02  0.14180882958E+02  0.00000000000E+00 0.  1.
         23    2    1    2    0    0 -0.98489031846E+02 -0.41101641017E+02  0.94742221101E+03  0.95786574177E+03  0.92241525644E+02 0.  0.
          5    1    1    2  502    0 -0.33613234757E+02 -0.20827102433E+02  0.13827922673E+03  0.14389875709E+03  0.47000000000E+01 0. -1.
         -5    1    1    2    0  502  0.13210226660E+03  0.61928743450E+02  0.86013162834E+03  0.87243033314E+03  0.47000000000E+01 0.  1.
          5    1    3    3  503    0 -0.92809107444E+02 -0.66278322369E+02  0.73065514244E+03  0.73951698669E+03  0.47000000000E+01 0. -1.
         -5    1    3    3    0  503 -0.56799244020E+01  0.25176681352E+02  0.21676706857E+03  0.21834875507E+03  0.47000000000E+01 0.  1.
<mgrwt>
<rscale>  0 0.17636761E+03</rscale>
<asrwt>0</asrwt>
<pdfrwt beam="1">  1        2 0.30154039E+00 0.19000154E+03</pdfrwt>
<pdfrwt beam="2">  1       -2 0.21816759E-02 0.19000154E+03</pdfrwt>
<totfact> 0.52841661E+03</totfact>
</mgrwt>
</event>
<event>
 8    1  0.7366917E-004  0.9910443E+02  0.7546771E-02  0.1284693E+00
          3   -1    0    0  501    0  0.00000000000E+00  0.00000000000E+00  0.36856670511E+03  0.36856670511E+03  0.00000000000E+00 0. -1.
         -3   -1    0    0    0  501 -0.00000000000E+00 -0.00000000000E+00 -0.87331420668E+02  0.87331420668E+02  0.00000000000E+00 0.  1.
         23    2    1    2    0    0  0.22458361443E+02 -0.68507140394E+01 -0.50309659014E+02  0.11114292605E+03  0.96282801884E+02 0.  0.
         23    2    1    2    0    0 -0.22458361443E+02  0.68507140394E+01  0.33154494345E+03  0.34475519973E+03  0.91557566200E+02 0.  0.
          5    1    3    3  502    0  0.37841704843E+02  0.34770525162E+02 -0.13613730197E+02  0.53370475878E+02  0.47000000000E+01 0. -1.
         -5    1    3    3    0  502 -0.15383343401E+02 -0.41621239202E+02 -0.36695928817E+02  0.57772450170E+02  0.47000000000E+01 0.  1.
          5    1    4    4  503    0  0.28233079910E+02 -0.39176763073E+01  0.21737620193E+03  0.21928738713E+03  0.47000000000E+01 0. -1.
         -5    1    4    4    0  503 -0.50691441353E+02  0.10768390347E+02  0.11416874152E+03  0.12546781260E+03  0.47000000000E+01 0.  1.
<mgrwt>
<rscale>  0 0.97937980E+02</rscale>
<asrwt>0</asrwt>
<pdfrwt beam="1">  1        3 0.56702569E-01 0.99104431E+02</pdfrwt>
<pdfrwt beam="2">  1       -3 0.13435603E-01 0.99104431E+02</pdfrwt>
<totfact> 0.30899504E+02</totfact>
</mgrwt>
</event>
<event>
 8    1  0.7366917E-004  0.1801767E+03  0.7546771E-02  0.1168370E+00
         -2   -1    0    0    0  501 -0.00000000000E+00  0.00000000000E+00  0.31943791600E+02  0.31943791600E+02  0.00000000000E+00 0.  1.
          2   -1    0    0  501    0  0.00000000000E+00 -0.00000000000E+00 -0.10084782375E+04  0.10084782375E+04  0.00000000000E+00 0. -1.
         23    2    1    2    0    0  0.10448614014E+03  0.11004659248E+03 -0.44268085928E+03  0.47794350767E+03  0.97139319259E+02 0.  0.
         23    2    1    2    0    0 -0.10448614014E+03 -0.11004659248E+03 -0.53385358665E+03  0.56247852147E+03  0.91404754462E+02 0.  0.
          5    1    3    3  502    0  0.86809502907E+02  0.32445552462E+02 -0.16797326863E+03  0.19190026744E+03  0.47000000000E+01 0. -1.
         -5    1    4    4    0  503 -0.46796178729E+02 -0.33838151146E+02 -0.80789214404E+02  0.99417754856E+02  0.47000000000E+01 0.  1.
          5    1    4    4  503    0 -0.57689961407E+02 -0.76208441334E+02 -0.45306437224E+03  0.46306076661E+03  0.47000000000E+01 0. -1.
         -5    1    3    3    0  502  0.17676637230E+02  0.77601040018E+02 -0.27470759065E+03  0.28604324022E+03  0.47000000000E+01 0.  1.
<mgrwt>
<rscale>  0 0.17941546E+03</rscale>
<asrwt>0</asrwt>
<pdfrwt beam="1">  1        2 0.15515046E+00 0.18017673E+03</pdfrwt>
<pdfrwt beam="2">  1       -2 0.49144306E-02 0.18017673E+03</pdfrwt>
<totfact> 0.51412140E+03</totfact>
</mgrwt>
</event>
<event>
 8    1  0.7366917E-004  0.1778018E+03  0.7546771E-02  0.1170464E+00
          1   -1    0    0  501    0  0.00000000000E+00  0.00000000000E+00  0.54406917317E+03  0.54406917317E+03  0.00000000000E+00 0. -1.
         -1   -1    0    0    0  501 -0.00000000000E+00 -0.00000000000E+00 -0.97265378402E+02  0.97265378402E+02  0.00000000000E+00 0.  1.
         23    2    1    2    0    0  0.50625833247E+02 -0.14307363021E+03  0.42784848457E+03  0.46252515851E+03  0.88555958904E+02 0.  0.
         23    2    1    2    0    0 -0.50625833247E+02  0.14307363021E+03  0.18955310205E+02  0.17880939306E+03  0.92630754123E+02 0.  0.
          5    1    4    4  502    0 -0.25234755574E+02 -0.55417951951E+00 -0.13943115929E+02  0.29216442043E+02  0.47000000000E+01 0. -1.
         -5    1    3    3    0  503  0.75435006436E+02 -0.94935291697E+02  0.29357669031E+03  0.31766729907E+03  0.47000000000E+01 0.  1.
          5    1    3    3  503    0 -0.24809173188E+02 -0.48138338513E+02  0.13427179426E+03  0.14485785945E+03  0.47000000000E+01 0. -1.
         -5    1    4    4    0  502 -0.25391077673E+02  0.14362780973E+03  0.32898426134E+02  0.14959295102E+03  0.47000000000E+01 0.  1.
<mgrwt>
<rscale>  0 0.17727741E+03</rscale>
<asrwt>0</asrwt>
<pdfrwt beam="1">  1        1 0.83702948E-01 0.17780184E+03</pdfrwt>
<pdfrwt beam="2">  1       -1 0.14963905E-01 0.17780184E+03</pdfrwt>
<totfact> 0.12946483E+03</totfact>
</mgrwt>
</event>
<event>
 8    1  0.7366917E-004  0.1589775E+03  0.7546771E-02  0.1189858E+00
         -1   -1    0    0    0  501 -0.00000000000E+00  0.00000000000E+00  0.48198266971E+03  0.48198266971E+03  0.00000000000E+00 0.  1.
          1   -1    0    0  501    0  0.00000000000E+00 -0.00000000000E+00 -0.54539939480E+02  0.54539939480E+02  0.00000000000E+00 0. -1.
         23    2    1    2    0    0 -0.83585773244E+02 -0.10024651132E+03  0.16100881255E+03  0.22626322845E+03  0.90748368090E+02 0.  0.
         23    2    1    2    0    0  0.83585773244E+02  0.10024651132E+03  0.26643391768E+03  0.31025938074E+03  0.90762912722E+02 0.  0.
          5    1    4    4  502    0  0.17205647323E+02 -0.14222474214E+02  0.19261260296E+02  0.29856309564E+02  0.47000000000E+01 0. -1.
         -5    1    3    3    0  503 -0.58388710468E+02 -0.34361457539E+02  0.13466312788E+03  0.15081843152E+03  0.47000000000E+01 0.  1.
          5    1    3    3  503    0 -0.25197062776E+02 -0.65885053777E+02  0.26345684665E+02  0.75444796933E+02  0.47000000000E+01 0. -1.
         -5    1    4    4    0  502  0.66380125921E+02  0.11446898553E+03  0.24717265738E+03  0.28040307117E+03  0.47000000000E+01 0.  1.
<mgrwt>
<rscale>  0 0.15897544E+03</rscale>
<asrwt>0</asrwt>
<pdfrwt beam="1">  1        1 0.83907603E-02 0.15897752E+03</pdfrwt>
<pdfrwt beam="2">  1       -1 0.74151177E-01 0.15897752E+03</pdfrwt>
<totfact> 0.15270804E+03</totfact>
</mgrwt>
</event>
<event>
 8    1  0.7366917E-004  0.1281403E+03  0.7546771E-02  0.1230304E+00
          2   -1    0    0  501    0  0.00000000000E+00  0.00000000000E+00  0.61529908260E+03  0.61529908260E+03  0.00000000000E+00 0. -1.
         -2   -1    0    0    0  501 -0.00000000000E+00 -0.00000000000E+00 -0.34841802084E+02  0.34841802084E+02  0.00000000000E+00 0.  1.
         23    2    1    2    0    0  0.37592776789E+02  0.80987618670E+02  0.13248189946E+03  0.18419894682E+03  0.91681988853E+02 0.  0.
         23    2    1    2    0    0 -0.37592776789E+02 -0.80987618670E+02  0.44797538105E+03  0.46594193786E+03  0.91911567197E+02 0.  0.
          5    1    3    3  502    0  0.41426137344E+02  0.43679007080E+02  0.13335700684E+03  0.14639044295E+03  0.47000000000E+01 0. -1.
         -5    1    3    3    0  502 -0.38333605553E+01  0.37308611591E+02 -0.87510737442E+00  0.37808503870E+02  0.47000000000E+01 0.  1.
          5    1    4    4  503    0 -0.49296463118E+02 -0.28339387559E+02  0.34417122357E+03  0.34886843264E+03  0.47000000000E+01 0. -1.
         -5    1    4    4    0  503  0.11703686329E+02 -0.52648231112E+02  0.10380415748E+03  0.11707350522E+03  0.47000000000E+01 0.  1.
<mgrwt>
<rscale>  0 0.12809918E+03</rscale>
<asrwt>0</asrwt>
<pdfrwt beam="1">  1        2 0.94661390E-01 0.12814034E+03</pdfrwt>
<pdfrwt beam="2">  1       -2 0.53602777E-02 0.12814034E+03</pdfrwt>
<totfact> 0.82362661E+03</totfact>
</mgrwt>
</event>
<event>
 8    1  0.7366917E-004  0.9707355E+02  0.7546771E-02  0.1286588E+00
         -3   -1    0    0    0  501 -0.00000000000E+00  0.00000000000E+00  0.11719786427E+04  0.11719786427E+04  0.00000000000E+00 0.  1.
          3   -1    0    0  501    0  0.00000000000E+00 -0.00000000000E+00 -0.96989512396E+01  0.96989512396E+01  0.00000000000E+00 0. -1.
         23    2    1    2    0    0 -0.10320675062E+02  0.30947930086E+02  0.33658207343E+03  0.35029330824E+03  0.91398134171E+02 0.  0.
         23    2    1    2    0    0  0.10320675062E+02 -0.30947930086E+02  0.82569761799E+03  0.83138428567E+03  0.91427476088E+02 0.  0.
          5    1    4    4  502    0 -0.36533539818E+02 -0.33062182503E+02  0.46237511279E+03  0.46501681945E+03  0.47000000000E+01 0. -1.
         -5    1    4    4    0  502  0.46854214880E+02  0.21142524170E+01  0.36332250521E+03  0.36636746622E+03  0.47000000000E+01 0.  1.
          5    1    3    3  503    0  0.34437449186E+02  0.32471614528E+02  0.12006944093E+03  0.12914760664E+03  0.47000000000E+01 0. -1.
         -5    1    3    3    0  503 -0.44758124248E+02 -0.15236844425E+01  0.21651263250E+03  0.22114570160E+03  0.47000000000E+01 0.  1.
<mgrwt>
<rscale>  0 0.97066640E+02</rscale>
<asrwt>0</asrwt>
<pdfrwt beam="1">  1        3 0.14921473E-02 0.97073550E+02</pdfrwt>
<pdfrwt beam="2">  1       -3 0.18030429E+00 0.97073550E+02</pdfrwt>
<totfact> 0.69931223E+02</totfact>
</mgrwt>
</event>
<event>
 8    1  0.7366917E-004  0.9983302E+02  0.7546771E-02  0.1281127E+00
          1   -1    0    0  501    0  0.00000000000E+00  0.00000000000E+00  0.82279311519E+03  0.82279311519E+03  0.00000000000E+00 0. -1.
         -1   -1    0    0    0  501 -0.00000000000E+00 -0.00000000000E+00 -0.52433716652E+02  0.52433716652E+02  0.00000000000E+00 0.  1.
         23    2    1    2    0    0  0.34086800853E+02  0.77247190161E+01  0.50734256016E+00  0.98928680688E+02  0.92547529355E+02 0.  0.
         23    2    1    2    0    0 -0.34086800853E+02 -0.77247190161E+01  0.76985205598E+03  0.77629815116E+03  0.93514972687E+02 0.  0.
          5    1    3    3  502    0  0.47026079959E+02 -0.10398088165E+02 -0.32893029423E+02  0.58511655407E+02  0.47000000000E+01 0. -1.
         -5    1    4    4    0  503  0.38515854187E+01 -0.44078679687E+02  0.44133018570E+03  0.44356756816E+03  0.47000000000E+01 0. -1.
          5    1    4    4  503    0 -0.37938386272E+02  0.36353960670E+02  0.32852187028E+03  0.33273058300E+03  0.47000000000E+01 0.  1.
         -5    1    3    3    0  502 -0.12939279106E+02  0.18122807181E+02  0.33400371983E+02  0.40417025281E+02  0.47000000000E+01 0.  1.
<mgrwt>
<rscale>  0 0.99605834E+02</rscale>
<asrwt>0</asrwt>
<pdfrwt beam="1">  1        1 0.12658355E+00 0.99833018E+02</pdfrwt>
<pdfrwt beam="2">  1       -1 0.80667262E-02 0.99833018E+02</pdfrwt>
<totfact> 0.18446630E+03</totfact>
</mgrwt>
</event>
<event>
 8    1  0.7366917E-004  0.1594165E+03  0.7546771E-02  0.1191324E+00
          3   -1    0    0  501    0  0.00000000000E+00  0.00000000000E+00  0.18710442009E+03  0.18710442009E+03  0.00000000000E+00 0. -1.
         -3   -1    0    0    0  501 -0.00000000000E+00 -0.00000000000E+00 -0.14306219570E+03  0.14306219570E+03  0.00000000000E+00 0.  1.
         23    2    1    2    0    0 -0.47892723433E+02 -0.11490132166E+03  0.71239005397E+02  0.16844688905E+03  0.88336469618E+02 0.  0.
         23    2    1    2    0    0  0.47892723433E+02  0.11490132166E+03 -0.27196781009E+02  0.16171972675E+03  0.99587039548E+02 0.  0.
          5    1    4    4  502    0 -0.11184837224E+02  0.88523847174E+02  0.46142983731E+01  0.89470407687E+02  0.47000000000E+01 0. -1.
         -5    1    3    3    0  503 -0.10426455276E+02 -0.92533174584E+02  0.10953881965E+02  0.93878522029E+02  0.47000000000E+01 0.  1.
          5    1    3    3  503    0 -0.37466268157E+02 -0.22368147072E+02  0.60285123432E+02  0.74568367021E+02  0.47000000000E+01 0. -1.
         -5    1    4    4    0  502  0.59077560658E+02  0.26377474482E+02 -0.31811079382E+02  0.72249319061E+02  0.47000000000E+01 0.  1.
<mgrwt>
<rscale>  0 0.15769497E+03</rscale>
<asrwt>0</asrwt>
<pdfrwt beam="1">  1        3 0.28785296E-01 0.15941645E+03</pdfrwt>
<pdfrwt beam="2">  1       -3 0.22009568E-01 0.15941645E+03</pdfrwt>
<totfact> 0.52012706E+02</totfact>
</mgrwt>
</event>
<event>
 8    1  0.7366917E-004  0.1290119E+03  0.7546771E-02  0.1230319E+00
          3   -1    0    0  501    0  0.00000000000E+00  0.00000000000E+00  0.68345750774E+02  0.68345750774E+02  0.00000000000E+00 0. -1.
         -3   -1    0    0    0  501 -0.00000000000E+00 -0.00000000000E+00 -0.28984093881E+03  0.28984093881E+03  0.00000000000E+00 0.  1.
         23    2    1    2    0    0  0.34093282604E+02 -0.78903582205E+02 -0.35353303962E+02  0.13376816719E+03  0.96207792045E+02 0.  0.
         23    2    1    2    0    0 -0.34093282604E+02  0.78903582205E+02 -0.18614188408E+03  0.22441852239E+03  0.91250999895E+02 0.  0.
          5    1    4    4  502    0 -0.29850621287E+02 -0.12476988378E+02 -0.36816333915E+02  0.49236848733E+02  0.47000000000E+01 0. -1.
         -5    1    4    4    0  502 -0.42426613168E+01  0.91380570583E+02 -0.14932555016E+03  0.17518167366E+03  0.47000000000E+01 0.  1.
          5    1    3    3  503    0  0.66401605495E+01 -0.86000448203E+02  0.22797366125E+01  0.86414443366E+02  0.47000000000E+01 0. -1.
         -5    1    3    3    0  503  0.27453122054E+02  0.70968659985E+01 -0.37633040575E+02  0.47353723828E+02  0.47000000000E+01 0.  1.
<mgrwt>
<rscale>  0 0.12808880E+03</rscale>
<asrwt>0</asrwt>
<pdfrwt beam="1">  1        3 0.10514731E-01 0.12901188E+03</pdfrwt>
<pdfrwt beam="2">  1       -3 0.44590915E-01 0.12901188E+03</pdfrwt>
<totfact> 0.78083955E+02</totfact>
</mgrwt>
</event>
<event>
 8    1  0.7366917E-004  0.9266717E+02  0.7546771E-02  0.1296884E+00
         -2   -1    0    0    0  501 -0.00000000000E+00  0.00000000000E+00  0.17433490471E+02  0.17433490471E+02  0.00000000000E+00 0.  1.
          2   -1    0    0  501    0  0.00000000000E+00 -0.00000000000E+00 -0.49050473742E+03  0.49050473742E+03  0.00000000000E+00 0. -1.
         23    2    1    2    0    0 -0.84816884863E+01  0.57773733573E+01 -0.24860733443E+03  0.26509825658E+03  0.91466725249E+02 0.  0.
         23    2    1    2    0    0  0.84816884863E+01 -0.57773733573E+01 -0.22446391252E+03  0.24283997131E+03  0.92097158259E+02 0.  0.
          5    1    4    4  502    0  0.40160348224E+02 -0.31241193232E+02 -0.13879766890E+03  0.14790452534E+03  0.47000000000E+01 0. -1.
         -5    1    3    3    0  503  0.39606706775E+02  0.15184117361E+02 -0.10821614653E+03  0.11632743878E+03  0.47000000000E+01 0.  1.
          5    1    3    3  503    0 -0.48088395261E+02 -0.94067440034E+01 -0.14039118790E+03  0.14877081781E+03  0.47000000000E+01 0. -1.
         -5    1    4    4    0  502 -0.31678659738E+02  0.25463819875E+02 -0.85666243615E+02  0.94935445965E+02  0.47000000000E+01 0.  1.
<mgrwt>
<rscale>  0 0.92510135E+02</rscale>
<asrwt>0</asrwt>
<pdfrwt beam="1">  1        2 0.75462262E-01 0.92667166E+02</pdfrwt>
<pdfrwt beam="2">  1       -2 0.26820756E-02 0.92667166E+02</pdfrwt>
<totfact> 0.28604168E+04</totfact>
</mgrwt>
</event>
<event>
 8    1  0.7366917E-004  0.1023183E+03  0.7546771E-02  0.1275613E+00
         -2   -1    0    0    0  501 -0.00000000000E+00  0.00000000000E+00  0.12140130507E+02  0.12140130507E+02  0.00000000000E+00 0.  1.
          2   -1    0    0  501    0  0.00000000000E+00 -0.00000000000E+00 -0.86103917158E+03  0.86103917158E+03  0.00000000000E+00 0. -1.
         23    2    1    2    0    0  0.41848557702E+02  0.16031250430E+02 -0.41308154930E+03  0.42556480023E+03  0.91982226792E+02 0.  0.
         23    2    1    2    0    0 -0.41848557702E+02 -0.16031250430E+02 -0.43581749177E+03  0.44761450186E+03  0.91725423792E+02 0.  0.
          5    1    4    4  502    0 -0.68912940093E+02 -0.24580827068E+02 -0.31421222443E+03  0.32265247923E+03  0.47000000000E+01 0. -1.
         -5    1    3    3    0  503  0.61724972875E+02 -0.55176537564E+01 -0.17639402638E+03  0.18702234979E+03  0.47000000000E+01 0.  1.
          5    1    3    3  503    0 -0.19876415174E+02  0.21548904186E+02 -0.23668752292E+03  0.23854245043E+03  0.47000000000E+01 0. -1.
         -5    1    4    4    0  502  0.27064382391E+02  0.85495766383E+01 -0.12160526734E+03  0.12496202263E+03  0.47000000000E+01 0.  1.
<mgrwt>
<rscale>  0 0.10226054E+03</rscale>
<asrwt>0</asrwt>
<pdfrwt beam="1">  1        2 0.13246753E+00 0.10231829E+03</pdfrwt>
<pdfrwt beam="2">  1       -2 0.18677129E-02 0.10231829E+03</pdfrwt>
<totfact> 0.25445627E+04</totfact>
</mgrwt>
</event>
<event>
 8    1  0.7366917E-004  0.1016566E+03  0.7546771E-02  0.1277305E+00
         -2   -1    0    0    0  501 -0.00000000000E+00  0.00000000000E+00  0.31862877974E+02  0.31862877974E+02  0.00000000000E+00 0. -1.
          2   -1    0    0  501    0  0.00000000000E+00 -0.00000000000E+00 -0.32173206203E+03  0.32173206203E+03  0.00000000000E+00 0.  1.
         23    2    1    2    0    0  0.39729846286E+02  0.13425861136E+02 -0.15003608701E+03  0.18123158532E+03  0.92603162358E+02 0.  0.
         23    2    1    2    0    0 -0.39729846286E+02 -0.13425861136E+02 -0.13983309705E+03  0.17236335469E+03  0.91635782181E+02 0.  0.
          5    1    4    4  502    0 -0.30721285765E+02  0.37493587348E+02 -0.72430223769E+02  0.87279973685E+02  0.47000000000E+01 0. -1.
         -5    1    4    4    0  502 -0.90085605215E+01 -0.50919448484E+02 -0.67402873280E+02  0.85083381003E+02  0.47000000000E+01 0.  1.
          5    1    3    3  503    0 -0.16798738417E+02 -0.16606559157E+02 -0.90629000974E+02  0.93774630028E+02  0.47000000000E+01 0. -1.
         -5    1    3    3    0  503  0.56528584703E+02  0.30032420293E+02 -0.59407086033E+02  0.87456955287E+02  0.47000000000E+01 0.  1.
<mgrwt>
<rscale>  0 0.10143575E+03</rscale>
<asrwt>0</asrwt>
<pdfrwt beam="1">  1        2 0.49497237E-01 0.10165658E+03</pdfrwt>
<pdfrwt beam="2">  1       -2 0.49019816E-02 0.10165658E+03</pdfrwt>
<totfact> 0.18622481E+04</totfact>
</mgrwt>
</event>
<event>
 8    1  0.7366917E-004  0.1262480E+03  0.7546771E-02  0.1233489E+00
         -1   -1    0    0    0  501 -0.00000000000E+00  0.00000000000E+00  0.97413480053E+03  0.97413480053E+03  0.00000000000E+00 0.  1.
          1   -1    0    0  501    0  0.00000000000E+00 -0.00000000000E+00 -0.16251279961E+02  0.16251279961E+02  0.00000000000E+00 0. -1.
         23    2    1    2    0    0 -0.79573729095E+02 -0.29265711712E+02  0.49237135847E+03  0.50829923269E+03  0.93541942816E+02 0.  0.
         23    2    1    2    0    0  0.79573729095E+02  0.29265711712E+02  0.46551216210E+03  0.48208684780E+03  0.92291362102E+02 0.  0.
          5    1    3    3  502    0 -0.32164656311E+00 -0.43925463086E+02  0.14034415178E+03  0.14713300345E+03  0.47000000000E+01 0. -1.
         -5    1    4    4    0  503  0.37930434069E+02  0.57976712378E+02  0.19877510894E+03  0.21055557685E+03  0.47000000000E+01 0.  1.
          5    1    4    4  503    0  0.41643295025E+02 -0.28711000666E+02  0.26673705315E+03  0.27153127095E+03  0.47000000000E+01 0. -1.
         -5    1    3    3    0  502 -0.79252082532E+02  0.14659751374E+02  0.35202720669E+03  0.36116622925E+03  0.47000000000E+01 0.  1.
<mgrwt>
<rscale>  0 0.12601641E+03</rscale>
<asrwt>0</asrwt>
<pdfrwt beam="1">  1        1 0.25001977E-02 0.12624799E+03</pdfrwt>
<pdfrwt beam="2">  1       -1 0.14986685E+00 0.12624799E+03</pdfrwt>
<totfact> 0.16206587E+03</totfact>
</mgrwt>
</event>
<event>
 8    1  0.7366917E-004  0.1049243E+03  0.7546771E-02  0.1274670E+00
         -1   -1    0    0    0  501 -0.00000000000E+00  0.00000000000E+00  0.10265831288E+03  0.10265831288E+03  0.00000000000E+00 0.  1.
          1   -1    0    0  501    0  0.00000000000E+00 -0.00000000000E+00 -0.17717088591E+03  0.17717088591E+03  0.00000000000E+00 0. -1.
         23    2    1    2    0    0  0.51719292598E+02  0.12108689319E+01  0.54933027262E+02  0.11843458180E+03  0.91283959445E+02 0.  0.
         23    2    1    2    0    0 -0.51719292598E+02 -0.12108689319E+01 -0.12944560030E+03  0.16139461699E+03  0.81336999740E+02 0.  0.
          5    1    3    3  502    0 -0.14981636627E+02 -0.15759712834E+02 -0.93582030860E+01  0.24134704258E+02  0.47000000000E+01 0. -1.
         -5    1    3    3    0  502  0.66700929225E+02  0.16970581766E+02  0.64291230348E+02  0.94299877543E+02  0.47000000000E+01 0.  1.
          5    1    4    4  503    0 -0.59583006672E+02  0.24158115318E+02 -0.65069101653E+02  0.91595999966E+02  0.47000000000E+01 0. -1.
         -5    1    4    4    0  503  0.78637140738E+01 -0.25368984249E+02 -0.64376498643E+02  0.69798617024E+02  0.47000000000E+01 0.  1.
<mgrwt>
<rscale>  0 0.10272381E+03</rscale>
<asrwt>0</asrwt>
<pdfrwt beam="1">  1        1 0.27257059E-01 0.10492432E+03</pdfrwt>
<pdfrwt beam="2">  1       -1 0.15793587E-01 0.10492432E+03</pdfrwt>
<totfact> 0.47679738E+03</totfact>
</mgrwt>
</event>
<event>
 8    1  0.7366917E-004  0.9999105E+02  0.7546771E-02  0.1280405E+00
         -2   -1    0    0    0  501 -0.00000000000E+00  0.00000000000E+00  0.16489611963E+03  0.16489611963E+03  0.00000000000E+00 0.  1.
          2   -1    0    0  501    0  0.00000000000E+00 -0.00000000000E+00 -0.63240501926E+02  0.63240501926E+02  0.00000000000E+00 0. -1.
         23    2    1    2    0    0  0.40040157592E+02  0.13263521174E+02  0.74401615301E+02  0.12449786742E+03  0.90470898186E+02 0.  0.
         23    2    1    2    0    0 -0.40040157592E+02 -0.13263521174E+02  0.27254002400E+02  0.10363875413E+03  0.90659117014E+02 0.  0.
          5    1    3    3  502    0 -0.29049977205E+02  0.65459985612E+01  0.25062273419E+02  0.39204066392E+02  0.47000000000E+01 0. -1.
         -5    1    4    4    0  503 -0.19960611147E+02  0.30546814489E+02  0.39204578214E+02  0.53764512699E+02  0.47000000000E+01 0.  1.
          5    1    4    4  503    0 -0.20079546445E+02 -0.43810335664E+02 -0.11950575814E+02  0.49874241435E+02  0.47000000000E+01 0. -1.
         -5    1    3    3    0  502  0.69090134796E+02  0.67175226131E+01  0.49339341882E+02  0.85293801027E+02  0.47000000000E+01 0.  1.
<mgrwt>
<rscale>  0 0.99948371E+02</rscale>
<asrwt>0</asrwt>
<pdfrwt beam="1">  1        2 0.97293081E-02 0.99991053E+02</pdfrwt>
<pdfrwt beam="2">  1       -2 0.25368634E-01 0.99991053E+02</pdfrwt>
<totfact> 0.84164318E+03</totfact>
</mgrwt>
</event>
<event>
 8    1  0.7366917E-004  0.1011866E+03  0.7546771E-02  0.1278685E+00
         -1   -1    0    0    0  501 -0.00000000000E+00  0.00000000000E+00  0.16397210469E+03  0.16397210469E+03  0.00000000000E+00 0.  1.
          1   -1    0    0  501    0  0.00000000000E+00 -0.00000000000E+00 -0.63017746789E+02  0.63017746789E+02  0.00000000000E+00 0. -1.
         23    2    1    2    0    0 -0.22914952364E+02  0.29067808529E+02  0.32023610512E+02  0.10455548898E+03  0.92392132299E+02 0.  0.
         23    2    1    2    0    0  0.22914952364E+02 -0.29067808529E+02  0.68930747390E+02  0.12243436250E+03  0.94173736523E+02 0.  0.
          5    1    3    3  502    0  0.25561252900E+02  0.16462257782E+02 -0.16284393410E+02  0.34808835801E+02  0.47000000000E+01 0. -1.
         -5    1    3    3    0  502 -0.48476205264E+02  0.12605550748E+02  0.48308003922E+02  0.69746653177E+02  0.47000000000E+01 0.  1.
          5    1    4    4  503    0  0.53830467613E+02 -0.37139756784E+02  0.60119992286E+02  0.88958328727E+02  0.47000000000E+01 0. -1.
         -5    1    4    4    0  503 -0.30915515249E+02  0.80719482550E+01  0.88107551045E+01  0.33476033774E+02  0.47000000000E+01 0.  1.
<mgrwt>
<rscale>  0 0.10077002E+03</rscale>
<asrwt>0</asrwt>
<pdfrwt beam="1">  1        1 0.96950380E-02 0.10118659E+03</pdfrwt>
<pdfrwt beam="2">  1       -1 0.25226478E-01 0.10118659E+03</pdfrwt>
<totfact> 0.84377702E+03</totfact>
</mgrwt>
</event>
<event>
 8    1  0.7366917E-004  0.9559658E+02  0.7546771E-02  0.1290526E+00
         -2   -1    0    0    0  501 -0.00000000000E+00  0.00000000000E+00  0.15049027994E+03  0.15049027994E+03  0.00000000000E+00 0.  1.
          2   -1    0    0  501    0  0.00000000000E+00 -0.00000000000E+00 -0.10868461640E+03  0.10868461640E+03  0.00000000000E+00 0. -1.
         23    2    1    2    0    0 -0.22046450120E+02  0.77530962202E+01  0.10775063090E+03  0.14404479750E+03  0.92696001871E+02 0.  0.
         23    2    1    2    0    0  0.22046450120E+02 -0.77530962202E+01 -0.65944967358E+02  0.11513009885E+03  0.91433278823E+02 0.  0.
          5    1    3    3  502    0  0.25942231205E+02 -0.12899628460E+02  0.65733344617E+01  0.30078206400E+02  0.47000000000E+01 0. -1.
         -5    1    3    3    0  502 -0.47988681325E+02  0.20652724680E+02  0.10117729644E+03  0.11396659110E+03  0.47000000000E+01 0.  1.
          5    1    4    4  503    0  0.29398167014E+02 -0.45750930889E+02 -0.30994050378E+02  0.62770383620E+02  0.47000000000E+01 0. -1.
         -5    1    4    4    0  503 -0.73517168936E+01  0.37997834668E+02 -0.34950916980E+02  0.52359715225E+02  0.47000000000E+01 0.  1.
<mgrwt>
<rscale>  0 0.95289119E+02</rscale>
<asrwt>0</asrwt>
<pdfrwt beam="1">  1        2 0.16720710E-01 0.95596575E+02</pdfrwt>
<pdfrwt beam="2">  1       -2 0.23152351E-01 0.95596575E+02</pdfrwt>
<totfact> 0.51777360E+03</totfact>
</mgrwt>
</event>
<event>
 8    1  0.7366917E-004  0.1914402E+03  0.7546771E-02  0.1157488E+00
         -2   -1    0    0    0  501 -0.00000000000E+00  0.00000000000E+00  0.12535284296E+03  0.12535284296E+03  0.00000000000E+00 0.  1.
          2   -1    0    0  501    0  0.00000000000E+00 -0.00000000000E+00 -0.50748131195E+03  0.50748131195E+03  0.00000000000E+00 0. -1.
         23    2    1    2    0    0 -0.37887323381E+02 -0.16373209276E+03  0.16387973668E+02  0.19072025878E+03  0.88667942099E+02 0.  0.
         23    2    1    2    0    0  0.37887323381E+02  0.16373209276E+03 -0.39851644265E+03  0.44211389613E+03  0.91682575318E+02 0.  0.
          5    1    4    4  502    0  0.42125153029E+02  0.12157959377E+03 -0.36748845801E+03  0.38939181156E+03  0.47000000000E+01 0. -1.
         -5    1    4    4    0  502 -0.42378296475E+01  0.42152498983E+02 -0.31027984645E+02  0.52722084574E+02  0.47000000000E+01 0.  1.
          5    1    3    3  503    0  0.21488638769E+02 -0.96774599808E+01 -0.37757723464E+01  0.24326144056E+02  0.47000000000E+01 0. -1.
         -5    1    3    3    0  503 -0.59375962150E+02 -0.15405463278E+03  0.20163746015E+02  0.16639411472E+03  0.47000000000E+01 0.  1.
<mgrwt>
<rscale>  0 0.19108285E+03</rscale>
<asrwt>0</asrwt>
<pdfrwt beam="1">  1        2 0.78074049E-01 0.19144018E+03</pdfrwt>
<pdfrwt beam="2">  1       -2 0.19285052E-01 0.19144018E+03</pdfrwt>
<totfact> 0.13639763E+03</totfact>
</mgrwt>
</event>
<event>
 8    1  0.7366917E-004  0.1683126E+03  0.7546771E-02  0.1179809E+00
          2   -1    0    0  501    0  0.00000000000E+00  0.00000000000E+00  0.58944414237E+02  0.58944414237E+02  0.00000000000E+00 0. -1.
         -2   -1    0    0    0  501 -0.00000000000E+00 -0.00000000000E+00 -0.73070255091E+03  0.73070255091E+03  0.00000000000E+00 0.  1.
         23    2    1    2    0    0 -0.16001475362E+02  0.14014307773E+03 -0.56827881505E+03  0.59268031010E+03  0.91831415593E+02 0.  0.
         23    2    1    2    0    0  0.16001475362E+02 -0.14014307773E+03 -0.10347932162E+03  0.19696665505E+03  0.90508362869E+02 0.  0.
          5    1    3    3  502    0 -0.14526081915E+02  0.14116373042E+02 -0.16147283915E+02  0.26326865015E+02  0.47000000000E+01 0. -1.
         -5    1    4    4    0  503 -0.28720831169E+02 -0.43329202799E+02 -0.65298805441E+02  0.83596231675E+02  0.47000000000E+01 0.  1.
          5    1    4    4  503    0  0.44722306531E+02 -0.96813874931E+02 -0.38180516182E+02  0.11337042338E+03  0.47000000000E+01 0. -1.
         -5    1    3    3    0  502 -0.14753934468E+01  0.12602670469E+03 -0.55213153114E+03  0.56635344508E+03  0.47000000000E+01 0.  1.
<mgrwt>
<rscale>  0 0.16813279E+03</rscale>
<asrwt>0</asrwt>
<pdfrwt beam="1">  1        2 0.90683715E-02 0.16831262E+03</pdfrwt>
<pdfrwt beam="2">  1       -2 0.11241578E+00 0.16831262E+03</pdfrwt>
<totfact> 0.46697946E+02</totfact>
</mgrwt>
</event>
<event>
 8    1  0.7366917E-004  0.9197656E+02  0.7546771E-02  0.1298730E+00
         -1   -1    0    0    0  501 -0.00000000000E+00  0.00000000000E+00  0.17787956529E+02  0.17787956529E+02  0.00000000000E+00 0.  1.
          1   -1    0    0  501    0  0.00000000000E+00 -0.00000000000E+00 -0.47415753357E+03  0.47415753357E+03  0.00000000000E+00 0. -1.
         23    2    1    2    0    0  0.42290582783E+01 -0.79850396115E+01 -0.20751910275E+03  0.22698868932E+03  0.91531640875E+02 0.  0.
         23    2    1    2    0    0 -0.42290582783E+01  0.79850396115E+01 -0.24885047429E+03  0.26495680078E+03  0.90520174176E+02 0.  0.
          5    1    4    4  502    0  0.37081803580E+01 -0.37376917503E+02 -0.16388453298E+03  0.16819933030E+03  0.47000000000E+01 0. -1.
         -5    1    4    4    0  502 -0.79372386363E+01  0.45361957114E+02 -0.84965941304E+02  0.96757470471E+02  0.47000000000E+01 0.  1.
          5    1    3    3  503    0  0.39025536687E+02 -0.66707602123E+01 -0.17371243949E+03  0.17822904698E+03  0.47000000000E+01 0. -1.
         -5    1    3    3    0  503 -0.34796478409E+02 -0.13142793992E+01 -0.33806663267E+02  0.48759642342E+02  0.47000000000E+01 0.  1.
<mgrwt>
<rscale>  0 0.91723888E+02</rscale>
<asrwt>0</asrwt>
<pdfrwt beam="1">  1        1 0.72947303E-01 0.91976557E+02</pdfrwt>
<pdfrwt beam="2">  1       -1 0.27366091E-02 0.91976557E+02</pdfrwt>
<totfact> 0.18994628E+04</totfact>
</mgrwt>
</event>
<event>
 8    1  0.7366917E-004  0.9775930E+02  0.7546771E-02  0.1286019E+00
          1   -1    0    0  501    0  0.00000000000E+00  0.00000000000E+00  0.74580225823E+02  0.74580225823E+02  0.00000000000E+00 0. -1.
         -1   -1    0    0    0  501 -0.00000000000E+00 -0.00000000000E+00 -0.12597977646E+03  0.12597977646E+03  0.00000000000E+00 0.  1.
         23    2    1    2    0    0  0.15017804851E+01  0.30425213892E+02 -0.27952750693E+02  0.10002824953E+03  0.91084276626E+02 0.  0.
         23    2    1    2    0    0 -0.15017804851E+01 -0.30425213892E+02 -0.23446799944E+02  0.10053175275E+03  0.92892044322E+02 0.  0.
          5    1    3    3  502    0  0.16307653943E+02  0.56678023114E+02 -0.76947888457E+00  0.59169417599E+02  0.47000000000E+01 0. -1.
         -5    1    4    4    0  503  0.26907050304E+02 -0.52073917284E+02 -0.24925316417E+01  0.58855627865E+02  0.47000000000E+01 0.  1.
          5    1    4    4  503    0 -0.28408830789E+02  0.21648703392E+02 -0.20954268302E+02  0.41676124885E+02  0.47000000000E+01 0. -1.
         -5    1    3    3    0  502 -0.14805873458E+02 -0.26252809222E+02 -0.27183271809E+02  0.40858831935E+02  0.47000000000E+01 0.  1.
<mgrwt>
<rscale>  0 0.97327420E+02</rscale>
<asrwt>0</asrwt>
<pdfrwt beam="1">  1        1 0.11473881E-01 0.97759301E+02</pdfrwt>
<pdfrwt beam="2">  1       -1 0.19381504E-01 0.97759301E+02</pdfrwt>
<totfact> 0.10308292E+04</totfact>
</mgrwt>
</event>
<event>
 8    1  0.7366917E-004  0.1099067E+03  0.7546771E-02  0.1264396E+00
          1   -1    0    0  501    0  0.00000000000E+00  0.00000000000E+00  0.17314037695E+03  0.17314037695E+03  0.00000000000E+00 0. -1.
         -1   -1    0    0    0  501 -0.00000000000E+00 -0.00000000000E+00 -0.66150975332E+02  0.66150975332E+02  0.00000000000E+00 0.  1.
         23    2    1    2    0    0  0.23288689418E+02 -0.38551977071E+02  0.67141619437E+02  0.12238402569E+03  0.91876192200E+02 0.  0.
         23    2    1    2    0    0 -0.23288689418E+02  0.38551977071E+02  0.39847782178E+02  0.11690732659E+03  0.10025397386E+03 0.  0.
          5    1    4    4  502    0 -0.24973162382E+02 -0.88528659372E+01 -0.24794362970E+02  0.36590743498E+02  0.47000000000E+01 0. -1.
         -5    1    4    4    0  502  0.16844729640E+01  0.47404843008E+02  0.64642145148E+02  0.80316583089E+02  0.47000000000E+01 0.  1.
          5    1    3    3  503    0  0.63318078847E+01 -0.66690072937E+02  0.33197387199E+02  0.74912042665E+02  0.47000000000E+01 0. -1.
         -5    1    3    3    0  503  0.16956881533E+02  0.28138095866E+02  0.33944232238E+02  0.47471983027E+02  0.47000000000E+01 0.  1.
<mgrwt>
<rscale>  0 0.10795944E+03</rscale>
<asrwt>0</asrwt>
<pdfrwt beam="1">  1        1 0.26636981E-01 0.10990668E+03</pdfrwt>
<pdfrwt beam="2">  1       -1 0.10177073E-01 0.10990668E+03</pdfrwt>
<totfact> 0.96856710E+03</totfact>
</mgrwt>
</event>
<event>
 8    1  0.7366917E-004  0.1268814E+03  0.7546771E-02  0.1232792E+00
          2   -1    0    0  501    0  0.00000000000E+00  0.00000000000E+00  0.29090491655E+03  0.29090491655E+03  0.00000000000E+00 0. -1.
         -2   -1    0    0    0  501 -0.00000000000E+00 -0.00000000000E+00 -0.61299772302E+02  0.61299772302E+02  0.00000000000E+00 0.  1.
         23    2    1    2    0    0 -0.73125101770E+02  0.43981915338E+02  0.57366925880E+02  0.13924745693E+03  0.93899950436E+02 0.  0.
         23    2    1    2    0    0  0.73125101770E+02 -0.43981915338E+02  0.17223821837E+03  0.21295723192E+03  0.91668366269E+02 0.  0.
          5    1    3    3  502    0 -0.20957850396E+02 -0.28366825739E+02  0.27828489288E+02  0.45171042845E+02  0.47000000000E+01 0. -1.
         -5    1    4    4    0  503  0.44731590322E+02 -0.18612623667E+00  0.15314116337E+02  0.47513808255E+02  0.47000000000E+01 0.  1.
          5    1    4    4  503    0  0.28393511449E+02 -0.43795789102E+02  0.15692410204E+03  0.16544342367E+03  0.47000000000E+01 0. -1.
         -5    1    3    3    0  502 -0.52167251375E+02  0.72348741077E+02  0.29538436593E+02  0.94076414089E+02  0.47000000000E+01 0.  1.
<mgrwt>
<rscale>  0 0.12646876E+03</rscale>
<asrwt>0</asrwt>
<pdfrwt beam="1">  1        2 0.44754602E-01 0.12688140E+03</pdfrwt>
<pdfrwt beam="2">  1       -2 0.94307344E-02 0.12688140E+03</pdfrwt>
<totfact> 0.77928142E+03</totfact>
</mgrwt>
</event>
<event>
 8    1  0.7366917E-004  0.1550848E+03  0.7546771E-02  0.1199158E+00
          1   -1    0    0  501    0  0.00000000000E+00  0.00000000000E+00  0.39642564824E+03  0.39642564824E+03  0.00000000000E+00 0. -1.
         -1   -1    0    0    0  501 -0.00000000000E+00 -0.00000000000E+00 -0.13566245702E+03  0.13566245702E+03  0.00000000000E+00 0.  1.
         23    2    1    2    0    0  0.40803712191E+02  0.95792208302E+02 -0.72165923971E+02  0.17105329464E+03  0.11493571649E+03 0.  0.
         23    2    1    2    0    0 -0.40803712191E+02 -0.95792208302E+02  0.33292911518E+03  0.36103481062E+03  0.93076574083E+02 0.  0.
          5    1    3    3  502    0  0.15064141996E+02  0.19594585506E+02  0.31148356006E+02  0.40039808155E+02  0.47000000000E+01 0. -1.
         -5    1    4    4    0  503 -0.70160425868E+02 -0.67236945732E+02  0.21161799059E+03  0.23291104777E+03  0.47000000000E+01 0.  1.
          5    1    4    4  503    0  0.29356713677E+02 -0.28555262570E+02  0.12131112459E+03  0.12812376285E+03  0.47000000000E+01 0. -1.
         -5    1    3    3    0  502  0.25739570195E+02  0.76197622796E+02 -0.10331427998E+03  0.13101348648E+03  0.47000000000E+01 0.  1.
<mgrwt>
<rscale>  0 0.15107529E+03</rscale>
<asrwt>0</asrwt>
<pdfrwt beam="1">  1        1 0.60988561E-01 0.15508484E+03</pdfrwt>
<pdfrwt beam="2">  1       -1 0.20871147E-01 0.15508484E+03</pdfrwt>
<totfact> 0.11459385E+03</totfact>
</mgrwt>
</event>
<event>
 8    1  0.7366917E-004  0.9793950E+02  0.7546771E-02  0.1285133E+00
         -2   -1    0    0    0  501 -0.00000000000E+00  0.00000000000E+00  0.14688400364E+03  0.14688400364E+03  0.00000000000E+00 0.  1.
          2   -1    0    0  501    0  0.00000000000E+00 -0.00000000000E+00 -0.15444930830E+03  0.15444930830E+03  0.00000000000E+00 0. -1.
         23    2    1    2    0    0 -0.30857691812E+02  0.17294796303E+02 -0.11858863503E+03  0.15328492332E+03  0.90452729291E+02 0.  0.
         23    2    1    2    0    0  0.30857691812E+02 -0.17294796303E+02  0.11102333037E+03  0.14804838862E+03  0.91328190416E+02 0.  0.
          5    1    3    3  502    0 -0.44175881599E+02 -0.13995659379E+02 -0.23461810686E+02  0.52152982247E+02  0.47000000000E+01 0. -1.
         -5    1    4    4    0  503  0.48902983768E+02  0.14025953584E+02  0.30110877034E+02  0.59304166052E+02  0.47000000000E+01 0.  1.
          5    1    4    4  503    0 -0.18045291956E+02 -0.31320749887E+02  0.80912453334E+02  0.88744222571E+02  0.47000000000E+01 0. -1.
         -5    1    3    3    0  502  0.13318189788E+02  0.31290455682E+02 -0.95126824340E+02  0.10113194107E+03  0.47000000000E+01 0.  1.
<mgrwt>
<rscale>  0 0.97734897E+02</rscale>
<asrwt>0</asrwt>
<pdfrwt beam="1">  1        2 0.23761432E-01 0.97939499E+02</pdfrwt>
<pdfrwt beam="2">  1       -2 0.22597539E-01 0.97939499E+02</pdfrwt>
<totfact> 0.36473051E+03</totfact>
</mgrwt>
</event>
<event>
 7    1  0.7366917E-004  0.1537286E+03  0.7546771E-02  0.1208800E+00
         -2   -1    0    0    0  501 -0.00000000000E+00  0.00000000000E+00  0.12327843645E+03  0.12327843645E+03  0.00000000000E+00 0.  1.
          2   -1    0    0  501    0  0.00000000000E+00 -0.00000000000E+00 -0.37855309248E+03  0.37855309248E+03  0.00000000000E+00 0. -1.
         23    2    1    2    0    0  0.46377763926E+02 -0.46417472955E+02 -0.31582164008E+03  0.33660921044E+03  0.96213166602E+02 0.  0.
          5    1    3    3  502    0 -0.22464897994E+02  0.22936906296E+01 -0.13595698231E+03  0.13789968708E+03  0.47000000000E+01 0. -1.
         -5    1    3    3    0  502  0.68842661921E+02 -0.48711163584E+02 -0.17986465777E+03  0.19870952336E+03  0.47000000000E+01 0.  1.
          5    1    1    2  503    0  0.15455712460E+02 -0.40676152583E+02  0.31621929681E+01  0.43880723570E+02  0.47000000000E+01 0. -1.
         -5    1    1    2    0  503 -0.61833476387E+02  0.87093625538E+02  0.57384791076E+02  0.12134159492E+03  0.47000000000E+01 0.  1.
<mgrwt>
<rscale>  0 0.14341951E+03</rscale>
<asrwt>0</asrwt>
<pdfrwt beam="1">  1        2 0.58238938E-01 0.15372858E+03</pdfrwt>
<pdfrwt beam="2">  1       -2 0.18965913E-01 0.15372858E+03</pdfrwt>
<totfact> 0.19209252E+03</totfact>
</mgrwt>
</event>
<event>
 8    1  0.7366917E-004  0.1057817E+03  0.7546771E-02  0.1269462E+00
          2   -1    0    0  501    0  0.00000000000E+00  0.00000000000E+00  0.53227573767E+03  0.53227573767E+03  0.00000000000E+00 0.  1.
         -2   -1    0    0    0  501 -0.00000000000E+00 -0.00000000000E+00 -0.28060218640E+02  0.28060218640E+02  0.00000000000E+00 0. -1.
         23    2    1    2    0    0  0.42580070456E+02 -0.30025727855E+02  0.10991020548E+03  0.15254517453E+03  0.92060687983E+02 0.  0.
         23    2    1    2    0    0 -0.42580070456E+02  0.30025727855E+02  0.39430531355E+03  0.40779078178E+03  0.90011303030E+02 0.  0.
          5    1    3    3  502    0  0.86696899744E+01 -0.43909745050E+02  0.10107604211E+02  0.46124645229E+02  0.47000000000E+01 0. -1.
         -5    1    3    3    0  502  0.33910380481E+02  0.13884017195E+02  0.99802601265E+02  0.10642052930E+03  0.47000000000E+01 0.  1.
          5    1    4    4  503    0 -0.29954402570E+02 -0.25379218313E+02  0.91721091013E+02  0.99881026687E+02  0.47000000000E+01 0. -1.
         -5    1    4    4    0  503 -0.12625667885E+02  0.55404946168E+02  0.30258422254E+03  0.30790975509E+03  0.47000000000E+01 0.  1.
<mgrwt>
<rscale>  0 0.10533425E+03</rscale>
<asrwt>0</asrwt>
<pdfrwt beam="1">  1        2 0.81888568E-01 0.10578174E+03</pdfrwt>
<pdfrwt beam="2">  1       -2 0.43169571E-02 0.10578174E+03</pdfrwt>
<totfact> 0.13198674E+04</totfact>
</mgrwt>
</event>
<event>
 8    1  0.7366917E-004  0.9939157E+02  0.7546771E-02  0.1282046E+00
         -2   -1    0    0    0  501 -0.00000000000E+00  0.00000000000E+00  0.32991230499E+02  0.32991230499E+02  0.00000000000E+00 0.  1.
          2   -1    0    0  501    0  0.00000000000E+00 -0.00000000000E+00 -0.67364116119E+03  0.67364116119E+03  0.00000000000E+00 0. -1.
         23    2    1    2    0    0 -0.30876549244E+02  0.21408671850E+02 -0.56693257364E+02  0.11442382007E+03  0.92016262943E+02 0.  0.
         23    2    1    2    0    0  0.30876549244E+02 -0.21408671850E+02 -0.58395667333E+03  0.59220857162E+03  0.91070870472E+02 0.  0.
          5    1    3    3  502    0 -0.32910719836E+02 -0.22916842111E+02 -0.56938893454E+02  0.69802755821E+02  0.47000000000E+01 0. -1.
         -5    1    4    4    0  503 -0.27369530061E+02  0.12935197522E+02 -0.19444935911E+03  0.19684779341E+03  0.47000000000E+01 0.  1.
          5    1    4    4  503    0  0.58246079305E+02 -0.34343869371E+02 -0.38950731422E+03  0.39536077821E+03  0.47000000000E+01 0. -1.
         -5    1    3    3    0  502  0.20341705921E+01  0.44325513960E+02  0.24563609050E+00  0.44621064251E+02  0.47000000000E+01 0.  1.
<mgrwt>
<rscale>  0 0.99172202E+02</rscale>
<asrwt>0</asrwt>
<pdfrwt beam="1">  1        2 0.10363710E+00 0.99391575E+02</pdfrwt>
<pdfrwt beam="2">  1       -2 0.50755741E-02 0.99391575E+02</pdfrwt>
<totfact> 0.79234855E+03</totfact>
</mgrwt>
</event>
<event>
 8    1  0.7366917E-004  0.1194038E+03  0.7546771E-02  0.1249219E+00
          1   -1    0    0  501    0  0.00000000000E+00  0.00000000000E+00  0.80098874385E+02  0.80098874385E+02  0.00000000000E+00 0. -1.
         -1   -1    0    0    0  501 -0.00000000000E+00 -0.00000000000E+00 -0.19252497262E+03  0.19252497262E+03  0.00000000000E+00 0.  1.
         23    2    1    2    0    0 -0.21039223543E+02  0.53895120573E+02 -0.10890957763E+03  0.15316830571E+03  0.90839973713E+02 0.  0.
         23    2    1    2    0    0  0.21039223543E+02 -0.53895120573E+02 -0.35165206066E+01  0.11945554130E+03  0.10445059828E+03 0.  0.
          5    1    4    4  502    0  0.32743805802E+01 -0.63778219185E+02  0.36946836572E+02  0.73929300980E+02  0.47000000000E+01 0. -1.
         -5    1    3    3    0  503  0.82868038068E+01  0.46663702350E+02 -0.11271544291E+03  0.12236434654E+03  0.47000000000E+01 0.  1.
          5    1    3    3  503    0 -0.29326027350E+02  0.72314182223E+01  0.38058652791E+01  0.30803959163E+02  0.47000000000E+01 0. -1.
         -5    1    4    4    0  502  0.17764842962E+02  0.98830986127E+01 -0.40463357179E+02  0.45526240322E+02  0.47000000000E+01 0.  1.
<mgrwt>
<rscale>  0 0.11636361E+03</rscale>
<asrwt>0</asrwt>
<pdfrwt beam="1">  1        1 0.12322904E-01 0.11940377E+03</pdfrwt>
<pdfrwt beam="2">  1       -1 0.29619226E-01 0.11940377E+03</pdfrwt>
<totfact> 0.47877109E+03</totfact>
</mgrwt>
</event>
<event>
 8    1  0.7366917E-004  0.1023198E+03  0.7546771E-02  0.1276592E+00
         -2   -1    0    0    0  501 -0.00000000000E+00  0.00000000000E+00  0.18943578100E+03  0.18943578100E+03  0.00000000000E+00 0.  1.
          2   -1    0    0  501    0  0.00000000000E+00 -0.00000000000E+00 -0.69664607466E+02  0.69664607466E+02  0.00000000000E+00 0. -1.
         23    2    1    2    0    0  0.33978961017E+02 -0.31068759141E+02 -0.17984813228E+01  0.10020254552E+03  0.88980211330E+02 0.  0.
         23    2    1    2    0    0 -0.33978961017E+02  0.31068759141E+02  0.12156965486E+03  0.15889784294E+03  0.91375630906E+02 0.  0.
          5    1    4    4  502    0 -0.72021879095E+01  0.32185404741E+02 -0.10147680826E+01  0.33330039653E+02  0.47000000000E+01 0. -1.
         -5    1    4    4    0  502 -0.26776773107E+02 -0.11166455995E+01  0.12258442294E+03  0.12556780329E+03  0.47000000000E+01 0.  1.
          5    1    3    3  503    0  0.57872571408E+02 -0.20438738547E+02  0.21156376261E+02  0.65089621379E+02  0.47000000000E+01 0. -1.
         -5    1    3    3    0  503 -0.23893610392E+02 -0.10630020594E+02 -0.22954857584E+02  0.35112924146E+02  0.47000000000E+01 0.  1.
<mgrwt>
<rscale>  0 0.10178224E+03</rscale>
<asrwt>0</asrwt>
<pdfrwt beam="1">  1        2 0.10717632E-01 0.10231981E+03</pdfrwt>
<pdfrwt beam="2">  1       -2 0.29143966E-01 0.10231981E+03</pdfrwt>
<totfact> 0.58762813E+03</totfact>
</mgrwt>
</event>
<event>
 8    1  0.7366917E-004  0.1061692E+03  0.7546771E-02  0.1269545E+00
          2   -1    0    0  501    0  0.00000000000E+00  0.00000000000E+00  0.32149361012E+03  0.32149361012E+03  0.00000000000E+00 0. -1.
         -2   -1    0    0    0  501 -0.00000000000E+00 -0.00000000000E+00 -0.42769150042E+02  0.42769150042E+02  0.00000000000E+00 0.  1.
         23    2    1    2    0    0 -0.38306732262E+02  0.25537822679E+02  0.58387932394E+02  0.12116535193E+03  0.95667683857E+02 0.  0.
         23    2    1    2    0    0  0.38306732262E+02 -0.25537822679E+02  0.22033652768E+03  0.24309740823E+03  0.91807289118E+02 0.  0.
          5    1    4    4  502    0  0.55825748098E+02  0.86585798839E+01  0.17241308757E+03  0.18149338258E+03  0.47000000000E+01 0. -1.
         -5    1    4    4    0  502 -0.17519015836E+02 -0.34196402563E+02  0.47923440114E+02  0.61604025652E+02  0.47000000000E+01 0.  1.
          5    1    3    3  503    0  0.27838868582E+02  0.24545658101E+02  0.33848972482E+02  0.50451311913E+02  0.47000000000E+01 0. -1.
         -5    1    3    3    0  503 -0.66145600844E+02  0.99216457745E+00  0.24538959911E+02  0.70714040014E+02  0.47000000000E+01 0.  1.
<mgrwt>
<rscale>  0 0.10529213E+03</rscale>
<asrwt>0</asrwt>
<pdfrwt beam="1">  1        2 0.49460554E-01 0.10616917E+03</pdfrwt>
<pdfrwt beam="2">  1       -2 0.65798695E-02 0.10616917E+03</pdfrwt>
<totfact> 0.12027979E+04</totfact>
</mgrwt>
</event>
<event>
 8    1  0.7366917E-004  0.9286040E+02  0.7546771E-02  0.1300325E+00
         -2   -1    0    0    0  501 -0.00000000000E+00  0.00000000000E+00  0.37498793105E+02  0.37498793105E+02  0.00000000000E+00 0.  1.
          2   -1    0    0  501    0  0.00000000000E+00 -0.00000000000E+00 -0.25680427371E+03  0.25680427371E+03  0.00000000000E+00 0. -1.
         23    2    1    2    0    0 -0.85530275824E+01  0.50575501278E+01 -0.16689451443E+03  0.18767304127E+03  0.85256427203E+02 0.  0.
         23    2    1    2    0    0  0.85530275824E+01 -0.50575501278E+01 -0.52410966173E+02  0.10663002554E+03  0.92327243420E+02 0.  0.
          5    1    4    4  502    0  0.66191351885E+01  0.42832395965E+02 -0.33129255774E+02  0.54754585953E+02  0.47000000000E+01 0. -1.
         -5    1    3    3    0  503 -0.22227345532E+02  0.23567542136E+02 -0.15982656856E+03  0.16314443279E+03  0.47000000000E+01 0.  1.
          5    1    3    3  503    0  0.13674317949E+02 -0.18509992008E+02 -0.70679458736E+01  0.24528608489E+02  0.47000000000E+01 0. -1.
         -5    1    4    4    0  502  0.19338923939E+01 -0.47889946092E+02 -0.19281710399E+02  0.51875439588E+02  0.47000000000E+01 0.  1.
<mgrwt>
<rscale>  0 0.91051502E+02</rscale>
<asrwt>0</asrwt>
<pdfrwt beam="1">  1        2 0.39508350E-01 0.92860395E+02</pdfrwt>
<pdfrwt beam="2">  1       -2 0.57690451E-02 0.92860395E+02</pdfrwt>
<totfact> 0.18326946E+04</totfact>
</mgrwt>
</event>
<event>
 8    1  0.7366917E-004  0.9990182E+02  0.7546771E-02  0.1280675E+00
          2   -1    0    0  501    0  0.00000000000E+00  0.00000000000E+00  0.49482667237E+03  0.49482667237E+03  0.00000000000E+00 0. -1.
         -2   -1    0    0    0  501 -0.00000000000E+00 -0.00000000000E+00 -0.24369144470E+02  0.24369144470E+02  0.00000000000E+00 0.  1.
         23    2    1    2    0    0 -0.56233900536E+00 -0.42579088025E+02  0.34415539025E+03  0.35836197665E+03  0.90371891102E+02 0.  0.
         23    2    1    2    0    0  0.56233900536E+00  0.42579088025E+02  0.12630213764E+03  0.16083384019E+03  0.90011106070E+02 0.  0.
          5    1    4    4  502    0  0.43217229531E+02  0.35087674622E+02  0.75290895037E+02  0.93753307751E+02  0.47000000000E+01 0. -1.
         -5    1    3    3    0  503  0.32276007007E+02  0.35259368612E+01  0.58102158006E+02  0.66724235657E+02  0.47000000000E+01 0.  1.
          5    1    3    3  503    0 -0.32838346013E+02 -0.46105024886E+02  0.28605323225E+03  0.29163774099E+03  0.47000000000E+01 0. -1.
         -5    1    4    4    0  502 -0.42654890526E+02  0.74914134027E+01  0.51011242605E+02  0.67080532442E+02  0.47000000000E+01 0.  1.
<mgrwt>
<rscale>  0 0.99820158E+02</rscale>
<asrwt>0</asrwt>
<pdfrwt beam="1">  1        2 0.76127173E-01 0.99901820E+02</pdfrwt>
<pdfrwt beam="2">  1       -2 0.37490995E-02 0.99901820E+02</pdfrwt>
<totfact> 0.17510418E+04</totfact>
</mgrwt>
</event>
<event>
 8    1  0.7366917E-004  0.1138845E+03  0.7546771E-02  0.1255921E+00
         -4   -1    0    0    0  501 -0.00000000000E+00  0.00000000000E+00  0.31518549470E+02  0.31518549470E+02  0.00000000000E+00 0.  1.
          4   -1    0    0  501    0  0.00000000000E+00 -0.00000000000E+00 -0.68426870844E+03  0.68426870844E+03  0.00000000000E+00 0. -1.
         23    2    1    2    0    0  0.51365327942E+02 -0.29808722130E+02 -0.88394020440E+02  0.14005509709E+03  0.90966865069E+02 0.  0.
         23    2    1    2    0    0 -0.51365327942E+02  0.29808722130E+02 -0.56435613853E+03  0.57573216082E+03  0.97173623378E+02 0.  0.
          5    1    4    4  502    0 -0.79862417072E+02  0.26851513131E+02 -0.39606545787E+03  0.40495548686E+03  0.47000000000E+01 0. -1.
         -5    1    4    4    0  502  0.28497089130E+02  0.29572089991E+01 -0.16829068066E+03  0.17077667396E+03  0.47000000000E+01 0.  1.
          5    1    3    3  503    0  0.43383178349E+02  0.41527455314E+01 -0.94644395041E+02  0.10430243033E+03  0.47000000000E+01 0. -1.
         -5    1    3    3    0  503  0.79821495925E+01 -0.33961467661E+02  0.62503746005E+01  0.35752666760E+02  0.47000000000E+01 0.  1.
<mgrwt>
<rscale>  0 0.11254921E+03</rscale>
<asrwt>0</asrwt>
<pdfrwt beam="1">  1        4 0.10527210E+00 0.11388446E+03</pdfrwt>
<pdfrwt beam="2">  1       -4 0.48490079E-02 0.11388446E+03</pdfrwt>
<totfact> 0.30685426E+02</totfact>
</mgrwt>
</event>
<event>
 8    1  0.7366917E-004  0.1285669E+03  0.7546771E-02  0.1231006E+00
          3   -1    0    0  501    0  0.00000000000E+00  0.00000000000E+00  0.76237036226E+03  0.76237036226E+03  0.00000000000E+00 0. -1.
         -3   -1    0    0    0  501 -0.00000000000E+00 -0.00000000000E+00 -0.22240510058E+02  0.22240510058E+02  0.00000000000E+00 0.  1.
         23    2    1    2    0    0  0.26765154956E+02 -0.83649777787E+02  0.28497893189E+03  0.31263785589E+03  0.93892377075E+02 0.  0.
         23    2    1    2    0    0 -0.26765154956E+02  0.83649777787E+02  0.45515092031E+03  0.47197301642E+03  0.88783495805E+02 0.  0.
          5    1    3    3  502    0  0.19782163546E+02  0.45882505396E+01  0.14813780323E+03  0.14959707479E+03  0.47000000000E+01 0. -1.
         -5    1    3    3    0  502  0.69829914099E+01 -0.88238028327E+02  0.13684112865E+03  0.16304078110E+03  0.47000000000E+01 0.  1.
          5    1    4    4  503    0 -0.56769252057E+02  0.54653021490E+02  0.34904803506E+03  0.35786355154E+03  0.47000000000E+01 0. -1.
         -5    1    4    4    0  503  0.30004097101E+02  0.28996756298E+02  0.10610288525E+03  0.11410946489E+03  0.47000000000E+01 0.  1.
<mgrwt>
<rscale>  0 0.12763624E+03</rscale>
<asrwt>0</asrwt>
<pdfrwt beam="1">  1        3 0.11728773E+00 0.12856686E+03</pdfrwt>
<pdfrwt beam="2">  1       -3 0.34216175E-02 0.12856686E+03</pdfrwt>
<totfact> 0.59753817E+02</totfact>
</mgrwt>
</event>
<event>
 8    1  0.7366917E-004  0.1604053E+03  0.7546771E-02  0.1188450E+00
          1   -1    0    0  501    0  0.00000000000E+00  0.00000000000E+00  0.77481585983E+03  0.77481585983E+03  0.00000000000E+00 0. -1.
         -1   -1    0    0    0  501 -0.00000000000E+00 -0.00000000000E+00 -0.42320749358E+02  0.42320749358E+02  0.00000000000E+00 0.  1.
         23    2    1    2    0    0  0.65743643586E+02  0.11421864232E+03  0.55676806156E+03  0.57920833869E+03  0.90130462682E+02 0.  0.
         23    2    1    2    0    0 -0.65743643586E+02 -0.11421864232E+03  0.17572704890E+03  0.23792827050E+03  0.91442557154E+02 0.  0.
          5    1    3    3  502    0  0.60501087957E+02  0.29423845721E+02  0.16391571967E+03  0.17724727782E+03  0.47000000000E+01 0. -1.
         -5    1    4    4    0  503 -0.83234960320E+02 -0.62908201030E+02  0.99311727755E+02  0.14411942841E+03  0.47000000000E+01 0.  1.
          5    1    4    4  503    0  0.17491316734E+02 -0.51310441292E+02  0.76415321150E+02  0.93808842084E+02  0.47000000000E+01 0. -1.
         -5    1    3    3    0  502  0.52425556294E+01  0.84794796601E+02  0.39285234190E+03  0.40196106087E+03  0.47000000000E+01 0.  1.
<mgrwt>
<rscale>  0 0.16021891E+03</rscale>
<asrwt>0</asrwt>
<pdfrwt beam="1">  1        1 0.11920243E+00 0.16040532E+03</pdfrwt>
<pdfrwt beam="2">  1       -1 0.65108851E-02 0.16040532E+03</pdfrwt>
<totfact> 0.28169153E+03</totfact>
</mgrwt>
</event>
<event>
 8    1  0.7366917E-004  0.9237808E+02  0.7546771E-02  0.1297527E+00
         -2   -1    0    0    0  501 -0.00000000000E+00  0.00000000000E+00  0.43593894202E+02  0.43593894202E+02  0.00000000000E+00 0.  1.
          2   -1    0    0  501    0  0.00000000000E+00 -0.00000000000E+00 -0.21032167244E+03  0.21032167244E+03  0.00000000000E+00 0. -1.
         23    2    1    2    0    0  0.11378750866E+02 -0.67932928222E+01 -0.11836783625E+03  0.15014877428E+03  0.91422562634E+02 0.  0.
         23    2    1    2    0    0 -0.11378750866E+02  0.67932928222E+01 -0.48359941982E+02  0.10376679236E+03  0.90847335735E+02 0.  0.
          5    1    3    3  502    0  0.36142756790E+02 -0.12389005521E+02 -0.11456425344E+02  0.40163739963E+02  0.47000000000E+01 0. -1.
         -5    1    3    3    0  502 -0.24764005924E+02  0.55957126991E+01 -0.10691141091E+03  0.10998503431E+03  0.47000000000E+01 0.  1.
          5    1    4    4  503    0  0.76204333932E+00 -0.41505530866E+02 -0.22709766086E+02  0.47551164846E+02  0.47000000000E+01 0. -1.
         -5    1    4    4    0  503 -0.12140794205E+02  0.48298823689E+02 -0.25650175896E+02  0.56215627517E+02  0.47000000000E+01 0.  1.
<mgrwt>
<rscale>  0 0.92235440E+02</rscale>
<asrwt>0</asrwt>
<pdfrwt beam="1">  1        2 0.32357181E-01 0.92378081E+02</pdfrwt>
<pdfrwt beam="2">  1       -2 0.67067529E-02 0.92378081E+02</pdfrwt>
<totfact> 0.18034314E+04</totfact>
</mgrwt>
</event>
<event>
 8    1  0.7366917E-004  0.1169370E+03  0.7546771E-02  0.1250031E+00
         -2   -1    0    0    0  501 -0.00000000000E+00  0.00000000000E+00  0.39442260396E+02  0.39442260396E+02  0.00000000000E+00 0.  1.
          2   -1    0    0  501    0  0.00000000000E+00 -0.00000000000E+00 -0.33494438322E+03  0.33494438322E+03  0.00000000000E+00 0. -1.
         23    2    1    2    0    0 -0.17228241555E+02 -0.64200732692E+02 -0.15131864762E+03  0.18874417015E+03  0.91150876367E+02 0.  0.
         23    2    1    2    0    0  0.17228241555E+02  0.64200732692E+02 -0.14418347521E+03  0.18564247347E+03  0.96206585264E+02 0.  0.
          5    1    4    4  502    0 -0.10282320900E+01 -0.22930144568E+02 -0.53858379663E+02  0.58733839063E+02  0.47000000000E+01 0. -1.
         -5    1    4    4    0  502  0.18256473645E+02  0.87130877260E+02 -0.90325095545E+02  0.12690863441E+03  0.47000000000E+01 0.  1.
          5    1    3    3  503    0  0.13558636074E+02 -0.76295059686E+02 -0.89525791922E+02  0.11849780658E+03  0.47000000000E+01 0. -1.
         -5    1    3    3    0  503 -0.30786877630E+02  0.12094326994E+02 -0.61792855698E+02  0.70246363571E+02  0.47000000000E+01 0.  1.
<mgrwt>
<rscale>  0 0.11589234E+03</rscale>
<asrwt>0</asrwt>
<pdfrwt beam="1">  1        2 0.51529904E-01 0.11693696E+03</pdfrwt>
<pdfrwt beam="2">  1       -2 0.60680402E-02 0.11693696E+03</pdfrwt>
<totfact> 0.13128786E+04</totfact>
</mgrwt>
</event>
<event>
 8    1  0.7366917E-004  0.9488706E+02  0.7546771E-02  0.1291534E+00
          1   -1    0    0  501    0  0.00000000000E+00  0.00000000000E+00  0.94231395452E+03  0.94231395452E+03  0.00000000000E+00 0. -1.
         -1   -1    0    0    0  501 -0.00000000000E+00 -0.00000000000E+00 -0.96479557287E+01  0.96479557287E+01  0.00000000000E+00 0.  1.
         23    2    1    2    0    0 -0.25764007693E+02  0.11112164492E+01  0.41557435136E+03  0.42626939342E+03  0.91315581145E+02 0.  0.
         23    2    1    2    0    0  0.25764007693E+02 -0.11112164492E+01  0.51709164743E+03  0.52569251683E+03  0.91125361548E+02 0.  0.
          5    1    4    4  502    0  0.49441553989E+02  0.17117816139E+02  0.43581092944E+03  0.43896553750E+03  0.47000000000E+01 0. -1.
         -5    1    3    3    0  503 -0.48151173825E+02 -0.22253549162E+02  0.33670966670E+03  0.34089477209E+03  0.47000000000E+01 0.  1.
          5    1    3    3  503    0  0.22387166132E+02  0.23364765611E+02  0.78864684665E+02  0.85374621327E+02  0.47000000000E+01 0. -1.
         -5    1    4    4    0  502 -0.23677546296E+02 -0.18229032588E+02  0.81280717983E+02  0.86726979329E+02  0.47000000000E+01 0.  1.
<mgrwt>
<rscale>  0 0.94841266E+02</rscale>
<asrwt>0</asrwt>
<pdfrwt beam="1">  1        1 0.14497130E+00 0.94887061E+02</pdfrwt>
<pdfrwt beam="2">  1       -1 0.14843016E-02 0.94887061E+02</pdfrwt>
<totfact> 0.17404997E+04</totfact>
</mgrwt>
</event>
<event>
 8    1  0.7366917E-004  0.1029112E+03  0.7546771E-02  0.1276202E+00
          3   -1    0    0  501    0  0.00000000000E+00  0.00000000000E+00  0.13532933822E+03  0.13532933822E+03  0.00000000000E+00 0. -1.
         -3   -1    0    0    0  501 -0.00000000000E+00 -0.00000000000E+00 -0.15940972734E+03  0.15940972734E+03  0.00000000000E+00 0.  1.
         23    2    1    2    0    0 -0.44433943757E+02  0.15957745152E+00  0.94996258408E+02  0.13735433062E+03  0.88699054135E+02 0.  0.
         23    2    1    2    0    0  0.44433943757E+02 -0.15957745152E+00 -0.11907664753E+03  0.15738473495E+03  0.92824059304E+02 0.  0.
          5    1    4    4  502    0  0.27240232355E+02 -0.30139323959E+02 -0.11525745128E+03  0.12229791160E+03  0.47000000000E+01 0.  1.
         -5    1    4    4    0  502  0.17193711402E+02  0.29979746508E+02 -0.38191962491E+01  0.35086823345E+02  0.47000000000E+01 0. -1.
          5    1    3    3  503    0 -0.55034848539E+02 -0.29157731736E+02  0.82416849569E+02  0.10341003320E+03  0.47000000000E+01 0. -1.
         -5    1    3    3    0  503  0.10600904782E+02  0.29317309188E+02  0.12579408839E+02  0.33944297414E+02  0.47000000000E+01 0.  1.
<mgrwt>
<rscale>  0 0.10197221E+03</rscale>
<asrwt>0</asrwt>
<pdfrwt beam="1">  1        3 0.20819898E-01 0.10291116E+03</pdfrwt>
<pdfrwt beam="2">  1       -3 0.24524573E-01 0.10291116E+03</pdfrwt>
<totfact> 0.71882112E+02</totfact>
</mgrwt>
</event>
<event>
 8    1  0.7366917E-004  0.1240298E+03  0.7546771E-02  0.1236649E+00
          1   -1    0    0  501    0  0.00000000000E+00  0.00000000000E+00  0.17901818728E+03  0.17901818728E+03  0.00000000000E+00 0. -1.
         -1   -1    0    0    0  501 -0.00000000000E+00 -0.00000000000E+00 -0.20721246967E+03  0.20721246967E+03  0.00000000000E+00 0.  1.
         23    2    1    2    0    0 -0.82045140726E+02 -0.18175604171E+02 -0.16189544612E+03  0.20385909278E+03  0.91030964700E+02 0.  0.
         23    2    1    2    0    0  0.82045140726E+02  0.18175604171E+02  0.13370116372E+03  0.18237156417E+03  0.91222960556E+02 0.  0.
          5    1    3    3  502    0  0.91125084275E+01 -0.28648950812E+02 -0.27208638249E+02  0.40819115471E+02  0.47000000000E+01 0. -1.
         -5    1    3    3    0  502 -0.91157649154E+02  0.10473346641E+02 -0.13468680787E+03  0.16303997731E+03  0.47000000000E+01 0.  1.
          5    1    4    4  503    0  0.80231442630E+02  0.42966167029E+02  0.12679576426E+03  0.15614874873E+03  0.47000000000E+01 0. -1.
         -5    1    4    4    0  503  0.18136980961E+01 -0.24790562858E+02  0.69053994566E+01  0.26222815434E+02  0.47000000000E+01 0.  1.
<mgrwt>
<rscale>  0 0.12399448E+03</rscale>
<asrwt>0</asrwt>
<pdfrwt beam="1">  1        1 0.27541260E-01 0.12402978E+03</pdfrwt>
<pdfrwt beam="2">  1       -1 0.31878841E-01 0.12402978E+03</pdfrwt>
<totfact> 0.15215242E+03</totfact>
</mgrwt>
</event>
<event>
 8    1  0.7366917E-004  0.9350171E+02  0.7546771E-02  0.1295958E+00
          2   -1    0    0  501    0  0.00000000000E+00  0.00000000000E+00  0.11119237709E+04  0.11119237709E+04  0.00000000000E+00 0. -1.
         -2   -1    0    0    0  501 -0.00000000000E+00 -0.00000000000E+00 -0.12171834932E+02  0.12171834932E+02  0.00000000000E+00 0.  1.
         23    2    1    2    0    0 -0.41706742768E+01 -0.84445736931E+01  0.88741191552E+03  0.89208083306E+03  0.90662007291E+02 0.  0.
         23    2    1    2    0    0  0.41706742768E+01  0.84445736931E+01  0.21234002046E+03  0.23201477278E+03  0.93026153043E+02 0.  0.
          5    1    4    4  502    0 -0.36335597562E+02  0.26169033453E+02  0.14040394272E+03  0.14744643465E+03  0.47000000000E+01 0. -1.
         -5    1    4    4    0  502  0.40506271838E+02 -0.17724459760E+02  0.71936077746E+02  0.84568338127E+02  0.47000000000E+01 0.  1.
          5    1    3    3  503    0  0.38832730869E+01  0.40683774809E+02  0.39530561785E+03  0.39744039911E+03  0.47000000000E+01 0. -1.
         -5    1    3    3    0  503 -0.80539473637E+01 -0.49128348502E+02  0.49210629767E+03  0.49464043396E+03  0.47000000000E+01 0.  1.
<mgrwt>
<rscale>  0 0.92908133E+02</rscale>
<asrwt>0</asrwt>
<pdfrwt beam="1">  1        2 0.17106512E+00 0.93501714E+02</pdfrwt>
<pdfrwt beam="2">  1       -2 0.18725909E-02 0.93501714E+02</pdfrwt>
<totfact> 0.17845776E+04</totfact>
</mgrwt>
</event>
<event>
 8    1  0.7366917E-004  0.9480273E+02  0.7546771E-02  0.1292592E+00
          3   -1    0    0  501    0  0.00000000000E+00  0.00000000000E+00  0.12144410031E+03  0.12144410031E+03  0.00000000000E+00 0. -1.
         -3   -1    0    0    0  501 -0.00000000000E+00 -0.00000000000E+00 -0.14272877494E+03  0.14272877494E+03  0.00000000000E+00 0.  1.
         23    2    1    2    0    0  0.88955971647E+01 -0.19000291841E+02 -0.10322218693E+03  0.14015126611E+03  0.92452229715E+02 0.  0.
         23    2    1    2    0    0 -0.88955971647E+01  0.19000291841E+02  0.81937512292E+02  0.12402160914E+03  0.90705351965E+02 0.  0.
          5    1    4    4  502    0 -0.37191756166E+02  0.41287188132E+02  0.40529535067E+02  0.68939044404E+02  0.47000000000E+01 0. -1.
         -5    1    3    3    0  503  0.41462180001E+01  0.26343893082E+02 -0.87660417876E+02  0.91747646774E+02  0.47000000000E+01 0.  1.
          5    1    3    3  503    0  0.47493791647E+01 -0.45344184923E+02 -0.15561769052E+02  0.48403619336E+02  0.47000000000E+01 0. -1.
         -5    1    4    4    0  502  0.28296159001E+02 -0.22286896291E+02  0.41407977225E+02  0.55082564740E+02  0.47000000000E+01 0.  1.
<mgrwt>
<rscale>  0 0.94374141E+02</rscale>
<asrwt>0</asrwt>
<pdfrwt beam="1">  1        3 0.18683708E-01 0.94802729E+02</pdfrwt>
<pdfrwt beam="2">  1       -3 0.21958273E-01 0.94802729E+02</pdfrwt>
<totfact> 0.10417818E+03</totfact>
</mgrwt>
</event>
<event>
 8    1  0.7366917E-004  0.1000936E+03  0.7546771E-02  0.1280699E+00
         -1   -1    0    0    0  501 -0.00000000000E+00  0.00000000000E+00  0.25671008265E+03  0.25671008265E+03  0.00000000000E+00 0.  1.
          1   -1    0    0  501    0  0.00000000000E+00 -0.00000000000E+00 -0.38722093742E+03  0.38722093742E+03  0.00000000000E+00 0. -1.
         23    2    1    2    0    0  0.13820172691E+02  0.37165969027E+02  0.24021002490E+03  0.26022988208E+03  0.91904456023E+02 0.  0.
         23    2    1    2    0    0 -0.13820172691E+02 -0.37165969027E+02 -0.37072087967E+03  0.38370113799E+03  0.90665794244E+02 0.  0.
          5    1    4    4  502    0  0.44628323568E+01  0.21608171738E+02 -0.21515994320E+03  0.21633936562E+03  0.47000000000E+01 0. -1.
         -5    1    4    4    0  502 -0.18283005048E+02 -0.58774140766E+02 -0.15556093647E+03  0.16736177237E+03  0.47000000000E+01 0.  1.
          5    1    3    3  503    0 -0.28790773638E+02 -0.14811774864E+02  0.77900095142E+02  0.84491491550E+02  0.47000000000E+01 0. -1.
         -5    1    3    3    0  503  0.42610946329E+02  0.51977743891E+02  0.16230992976E+03  0.17573839053E+03  0.47000000000E+01 0.  1.
<mgrwt>
<rscale>  0 0.99808391E+02</rscale>
<asrwt>0</asrwt>
<pdfrwt beam="1">  1        1 0.59572451E-01 0.10009363E+03</pdfrwt>
<pdfrwt beam="2">  1       -1 0.39493859E-01 0.10009363E+03</pdfrwt>
<totfact> 0.40601767E+02</totfact>
</mgrwt>
</event>
<event>
 8    1  0.7366917E-004  0.9689133E+02  0.7546771E-02  0.1290018E+00
         -1   -1    0    0    0  501 -0.00000000000E+00  0.00000000000E+00  0.41091292607E+02  0.41091292607E+02  0.00000000000E+00 0.  1.
          1   -1    0    0  501    0  0.00000000000E+00 -0.00000000000E+00 -0.22316988849E+03  0.22316988849E+03  0.00000000000E+00 0. -1.
         23    2    1    2    0    0 -0.23199661027E+02 -0.25495729456E+02 -0.64751654921E+02  0.11209830419E+03  0.84764358633E+02 0.  0.
         23    2    1    2    0    0  0.23199661027E+02  0.25495729456E+02 -0.11732694097E+03  0.15216287691E+03  0.90552048800E+02 0.  0.
          5    1    3    3  502    0 -0.20294030784E+02  0.29486408616E+02 -0.28681543665E+02  0.46108751074E+02  0.47000000000E+01 0. -1.
         -5    1    4    4    0  503 -0.22027559156E+02  0.41436236443E+01  0.17051853743E+01  0.22964769462E+02  0.47000000000E+01 0.  1.
          5    1    4    4  503    0  0.45227220183E+02  0.21352105811E+02 -0.11903212634E+03  0.12919810745E+03  0.47000000000E+01 0. -1.
         -5    1    3    3    0  502 -0.29056302423E+01 -0.54982138072E+02 -0.36070111256E+02  0.65989553113E+02  0.47000000000E+01 0.  1.
<mgrwt>
<rscale>  0 0.95515855E+02</rscale>
<asrwt>0</asrwt>
<pdfrwt beam="1">  1        1 0.34333828E-01 0.96891331E+02</pdfrwt>
<pdfrwt beam="2">  1       -1 0.63217375E-02 0.96891331E+02</pdfrwt>
<totfact> 0.14289211E+04</totfact>
</mgrwt>
</event>
<event>
 8    1  0.7366917E-004  0.1076922E+03  0.7546771E-02  0.1269996E+00
         -1   -1    0    0    0  501 -0.00000000000E+00  0.00000000000E+00  0.26050741038E+02  0.26050741038E+02  0.00000000000E+00 0.  1.
          1   -1    0    0  501    0  0.00000000000E+00 -0.00000000000E+00 -0.55320905370E+03  0.55320905370E+03  0.00000000000E+00 0. -1.
         23    2    1    2    0    0  0.22574528399E+02 -0.22770538495E+02 -0.42324300881E+03  0.43672904427E+03  0.10280810692E+03 0.  0.
         23    2    1    2    0    0 -0.22574528399E+02  0.22770538495E+02 -0.10391530385E+03  0.14253075047E+03  0.92133152003E+02 0.  0.
          5    1    4    4  502    0 -0.26272112590E+02 -0.26021421535E+02 -0.79149325097E+02  0.87487393046E+02  0.47000000000E+01 0. -1.
         -5    1    3    3    0  503 -0.46636232099E+01  0.39189207797E+02 -0.16562984697E+03  0.17033167525E+03  0.47000000000E+01 0.  1.
          5    1    3    3  503    0  0.27238151609E+02 -0.61959746292E+02 -0.25761316184E+03  0.26639736901E+03  0.47000000000E+01 0. -1.
         -5    1    4    4    0  502  0.36975841907E+01  0.48791960031E+02 -0.24765978757E+02  0.55043357422E+02  0.47000000000E+01 0.  1.
<mgrwt>
<rscale>  0 0.10506271E+03</rscale>
<asrwt>0</asrwt>
<pdfrwt beam="1">  1        1 0.85109084E-01 0.10769222E+03</pdfrwt>
<pdfrwt beam="2">  1       -1 0.40078064E-02 0.10769222E+03</pdfrwt>
<totfact> 0.90741165E+03</totfact>
</mgrwt>
</event>
<event>
 8    1  0.7366917E-004  0.1054599E+03  0.7546771E-02  0.1273069E+00
          2   -1    0    0  501    0  0.00000000000E+00  0.00000000000E+00  0.17620517326E+03  0.17620517326E+03  0.00000000000E+00 0. -1.
         -2   -1    0    0    0  501 -0.00000000000E+00 -0.00000000000E+00 -0.59003019235E+02  0.59003019235E+02  0.00000000000E+00 0.  1.
         23    2    1    2    0    0 -0.23277558050E+02  0.25559736370E+02  0.47680660401E+02  0.10889501494E+03  0.91594399778E+02 0.  0.
         23    2    1    2    0    0  0.23277558050E+02 -0.25559736370E+02  0.69521493622E+02  0.12631317755E+03  0.99632504314E+02 0.  0.
          5    1    3    3  502    0 -0.48174977958E+02  0.34297989527E+02  0.55227073308E+02  0.81051219688E+02  0.47000000000E+01 0. -1.
         -5    1    4    4    0  503  0.56205268571E+02 -0.11952082424E+02  0.69597436170E+02  0.90375757871E+02  0.47000000000E+01 0.  1.
          5    1    4    4  503    0 -0.32927710521E+02 -0.13607653947E+02 -0.75942547236E-01  0.35937419681E+02  0.47000000000E+01 0. -1.
         -5    1    3    3    0  502  0.24897419908E+02 -0.87382531571E+01 -0.75464129068E+01  0.27843795253E+02  0.47000000000E+01 0.  1.
<mgrwt>
<rscale>  0 0.10351721E+03</rscale>
<asrwt>0</asrwt>
<pdfrwt beam="1">  1        2 0.27108488E-01 0.10545985E+03</pdfrwt>
<pdfrwt beam="2">  1       -2 0.90773877E-02 0.10545985E+03</pdfrwt>
<totfact> 0.13908513E+04</totfact>
</mgrwt>
</event>
<event>
 8    1  0.7366917E-004  0.1092171E+03  0.7546771E-02  0.1265248E+00
         -2   -1    0    0    0  501 -0.00000000000E+00  0.00000000000E+00  0.11004890491E+03  0.11004890491E+03  0.00000000000E+00 0.  1.
          2   -1    0    0  501    0  0.00000000000E+00 -0.00000000000E+00 -0.67690767135E+03  0.67690767135E+03  0.00000000000E+00 0. -1.
         23    2    1    2    0    0  0.18946370433E+02  0.56367174699E+02  0.80546657857E+02  0.13040332918E+03  0.83552623134E+02 0.  0.
         23    2    1    2    0    0 -0.18946370433E+02 -0.56367174699E+02 -0.64740542429E+03  0.65655324708E+03  0.91608730591E+02 0.  0.
          5    1    3    3  502    0 -0.13554584509E+02  0.15394173037E+02 -0.11834257615E+02  0.24142223966E+02  0.47000000000E+01 0. -1.
         -5    1    3    3    0  502  0.32500954942E+02  0.40973001661E+02  0.92380915473E+02  0.10626110521E+03  0.47000000000E+01 0.  1.
          5    1    4    4  503    0 -0.53600612378E+02 -0.47655187348E+02 -0.38092665737E+03  0.38764835976E+03  0.47000000000E+01 0. -1.
         -5    1    4    4    0  503  0.34654241945E+02 -0.87119873510E+01 -0.26647876692E+03  0.26890488732E+03  0.47000000000E+01 0.  1.
<mgrwt>
<rscale>  0 0.10751175E+03</rscale>
<asrwt>0</asrwt>
<pdfrwt beam="1">  1        2 0.10413964E+00 0.10921714E+03</pdfrwt>
<pdfrwt beam="2">  1       -2 0.16930600E-01 0.10921714E+03</pdfrwt>
<totfact> 0.12120068E+03</totfact>
</mgrwt>
</event>
<event>
 8    1  0.7366917E-004  0.1016462E+03  0.7546771E-02  0.1281578E+00
         -1   -1    0    0    0  501 -0.00000000000E+00  0.00000000000E+00  0.20005781037E+03  0.20005781037E+03  0.00000000000E+00 0.  1.
          1   -1    0    0  501    0  0.00000000000E+00 -0.00000000000E+00 -0.81819122425E+02  0.81819122425E+02  0.00000000000E+00 0. -1.
         23    2    1    2    0    0 -0.20815333182E+02  0.16031855059E+02 -0.33890322358E+02  0.98914663157E+02  0.89136177648E+02 0.  0.
         23    2    1    2    0    0  0.20815333182E+02 -0.16031855059E+02  0.15212901030E+03  0.18296226964E+03  0.98191943985E+02 0.  0.
          5    1    4    4  502    0  0.32241424993E+00 -0.48719907812E+02  0.36734700230E+02  0.61198542214E+02  0.47000000000E+01 0. -1.
         -5    1    4    4    0  502  0.20492918932E+02  0.32688052753E+02  0.11539431007E+03  0.12176372742E+03  0.47000000000E+01 0.  1.
          5    1    3    3  503    0 -0.91971938573E+01  0.52582983412E+02 -0.13670837648E+02  0.55304071471E+02  0.47000000000E+01 0. -1.
         -5    1    3    3    0  503 -0.11618139324E+02 -0.36551128353E+02 -0.20219484710E+02  0.43610591686E+02  0.47000000000E+01 0.  1.
<mgrwt>
<rscale>  0 0.99392761E+02</rscale>
<asrwt>0</asrwt>
<pdfrwt beam="1">  1        1 0.12587557E-01 0.10164623E+03</pdfrwt>
<pdfrwt beam="2">  1       -1 0.30778125E-01 0.10164623E+03</pdfrwt>
<totfact> 0.43202972E+03</totfact>
</mgrwt>
</event>
<event>
 8    1  0.7366917E-004  0.9640474E+02  0.7546771E-02  0.1289699E+00
         -1   -1    0    0    0  501 -0.00000000000E+00  0.00000000000E+00  0.87062244759E+02  0.87062244759E+02  0.00000000000E+00 0.  1.
          1   -1    0    0  501    0  0.00000000000E+00 -0.00000000000E+00 -0.11029418987E+03  0.11029418987E+03  0.00000000000E+00 0. -1.
         23    2    1    2    0    0 -0.43745407740E+01  0.21002499960E+02 -0.36258394808E+02  0.10299778921E+03  0.93987402222E+02 0.  0.
         23    2    1    2    0    0  0.43745407740E+01 -0.21002499960E+02  0.13026449694E+02  0.94358645421E+02  0.90959463293E+02 0.  0.
          5    1    3    3  502    0  0.22798144560E+02  0.42342936202E+02 -0.46082617192E+02  0.66771080932E+02  0.47000000000E+01 0. -1.
         -5    1    3    3    0  502 -0.27172685334E+02 -0.21340436242E+02  0.98242223834E+01  0.36226708278E+02  0.47000000000E+01 0.  1.
          5    1    4    4  503    0  0.35235769663E+02 -0.42550436617E+02  0.96259981938E+01  0.56274763094E+02  0.47000000000E+01 0. -1.
         -5    1    4    4    0  503 -0.30861228889E+02  0.21547936657E+02  0.34004515003E+01  0.38083882327E+02  0.47000000000E+01 0.  1.
<mgrwt>
<rscale>  0 0.95658726E+02</rscale>
<asrwt>0</asrwt>
<pdfrwt beam="1">  1        1 0.16968337E-01 0.96404737E+02</pdfrwt>
<pdfrwt beam="2">  1       -1 0.13394192E-01 0.96404737E+02</pdfrwt>
<totfact> 0.11082287E+04</totfact>
</mgrwt>
</event>
<event>
 8    1  0.8912618E-004  0.9282832E+02  0.7546771E-02  0.1296488E+00
         -2   -1    0    0    0  501 -0.00000000000E+00  0.00000000000E+00  0.49658950494E+02  0.49658950494E+02  0.00000000000E+00 0.  1.
          2   -1    0    0  501    0  0.00000000000E+00 -0.00000000000E+00 -0.35345882699E+03  0.35345882699E+03  0.00000000000E+00 0. -1.
         23    2    1    2    0    0 -0.10292421511E+02  0.10133226325E+01 -0.29638678811E+03  0.31058368585E+03  0.92250403724E+02 0.  0.
         23    2    1    2    0    0  0.10292421511E+02 -0.10133226325E+01 -0.74130883826E+01  0.92534091631E+02  0.91655024255E+02 0.  0.
          5    1    4    4  502    0  0.13518824858E+02  0.42666520431E+02 -0.15792992190E+02  0.47693806658E+02  0.47000000000E+01 0. -1.
         -5    1    3    3    0  503  0.19072639525E+02 -0.37919075922E+02 -0.16240575509E+03  0.16792659463E+03  0.47000000000E+01 0.  1.
          5    1    3    3  503    0 -0.29365061036E+02  0.38932398555E+02 -0.13398103303E+03  0.14265709123E+03  0.47000000000E+01 0. -1.
         -5    1    4    4    0  502 -0.32264033468E+01 -0.43679843063E+02  0.83799038073E+01  0.44840284973E+02  0.47000000000E+01 0.  1.
<mgrwt>
<rscale>  0 0.92680057E+02</rscale>
<asrwt>0</asrwt>
<pdfrwt beam="1">  1        2 0.54378280E-01 0.92828324E+02</pdfrwt>
<pdfrwt beam="2">  1       -2 0.76398387E-02 0.92828324E+02</pdfrwt>
<totfact> 0.85824512E+03</totfact>
</mgrwt>
</event>
<event>
 8    1  0.7366917E-004  0.9333182E+02  0.7546771E-02  0.1295093E+00
          2   -1    0    0  501    0  0.00000000000E+00  0.00000000000E+00  0.15139701770E+02  0.15139701770E+02  0.00000000000E+00 0.  1.
         -2   -1    0    0    0  501 -0.00000000000E+00 -0.00000000000E+00 -0.58361284086E+03  0.58361284086E+03  0.00000000000E+00 0. -1.
         23    2    1    2    0    0 -0.14967274147E+02  0.94367920713E+01 -0.24638389191E+03  0.26346888065E+03  0.91639274010E+02 0.  0.
         23    2    1    2    0    0  0.14967274147E+02 -0.94367920713E+01 -0.32208924718E+03  0.33528366198E+03  0.91436199056E+02 0.  0.
          5    1    3    3  502    0  0.35102755645E+02 -0.84091430927E+01 -0.13713704952E+03  0.14188579031E+03  0.47000000000E+01 0. -1.
         -5    1    3    3    0  502 -0.50070029792E+02  0.17845935164E+02 -0.10924684239E+03  0.12158309034E+03  0.47000000000E+01 0.  1.
          5    1    4    4  503    0  0.80248148410E+01 -0.38013371098E+02 -0.28520488097E+03  0.28787727970E+03  0.47000000000E+01 0. -1.
         -5    1    4    4    0  503  0.69424593056E+01  0.28576579027E+02 -0.36884366210E+02  0.47406382279E+02  0.47000000000E+01 0.  1.
<mgrwt>
<rscale>  0 0.93281935E+02</rscale>
<asrwt>0</asrwt>
<pdfrwt beam="1">  1        2 0.23291850E-02 0.93331821E+02</pdfrwt>
<pdfrwt beam="2">  1       -2 0.89786588E-01 0.93331821E+02</pdfrwt>
<totfact> 0.44558318E+03</totfact>
</mgrwt>
</event>
<event>
 8    1  0.7366917E-004  0.1095342E+03  0.7546771E-02  0.1268049E+00
         -4   -1    0    0    0  501 -0.00000000000E+00  0.00000000000E+00  0.59601469395E+02  0.59601469395E+02  0.00000000000E+00 0.  1.
          4   -1    0    0  501    0  0.00000000000E+00 -0.00000000000E+00 -0.31545929508E+03  0.31545929508E+03  0.00000000000E+00 0. -1.
         23    2    1    2    0    0  0.25253367232E+01 -0.22495459586E+02 -0.87773687648E+01  0.10988526914E+03  0.10716952526E+03 0.  0.
         23    2    1    2    0    0 -0.25253367232E+01  0.22495459586E+02 -0.24708045692E+03  0.26517549534E+03  0.93578139040E+02 0.  0.
          5    1    3    3  502    0  0.54617008312E+02 -0.12693799317E+02 -0.61873565884E+01  0.56608511018E+02  0.47000000000E+01 0. -1.
         -5    1    3    3    0  502 -0.52091671589E+02 -0.98016602685E+01 -0.25900121764E+01  0.53276758123E+02  0.47000000000E+01 0.  1.
          5    1    4    4  503    0  0.42890757589E+02 -0.22706509415E+01 -0.92317975106E+02  0.10192875684E+03  0.47000000000E+01 0. -1.
         -5    1    4    4    0  503 -0.45416094312E+02  0.24766110527E+02 -0.15476248182E+03  0.16324673850E+03  0.47000000000E+01 0.  1.
<mgrwt>
<rscale>  0 0.10605789E+03</rscale>
<asrwt>0</asrwt>
<pdfrwt beam="1">  1        4 0.48532199E-01 0.10953415E+03</pdfrwt>
<pdfrwt beam="2">  1       -4 0.91694569E-02 0.10953415E+03</pdfrwt>
<totfact> 0.57430817E+02</totfact>
</mgrwt>
</event>
<event>
 8    1  0.7366917E-004  0.1049299E+03  0.7546771E-02  0.1270402E+00
         -2   -1    0    0    0  501 -0.00000000000E+00  0.00000000000E+00  0.35841646613E+02  0.35841646613E+02  0.00000000000E+00 0.  1.
          2   -1    0    0  501    0  0.00000000000E+00 -0.00000000000E+00 -0.38536590487E+03  0.38536590487E+03  0.00000000000E+00 0. -1.
         23    2    1    2    0    0 -0.67458141346E+01  0.51785292391E+02 -0.79197493556E+02  0.13123024152E+03  0.90674752760E+02 0.  0.
         23    2    1    2    0    0  0.67458141346E+01 -0.51785292391E+02 -0.27032676470E+03  0.28997730996E+03  0.91011307330E+02 0.  0.
          5    1    3    3  502    0 -0.47940012044E+02  0.19122500966E+02 -0.40800766671E+02  0.65959892048E+02  0.47000000000E+01 0. -1.
         -5    1    3    3    0  502  0.41194197909E+02  0.32662791426E+02 -0.38396726885E+02  0.65270349475E+02  0.47000000000E+01 0.  1.
          5    1    4    4  503    0 -0.17639061751E+02 -0.69375861108E+02 -0.21733827418E+03  0.22887149675E+03  0.47000000000E+01 0. -1.
         -5    1    4    4    0  503  0.24384875885E+02  0.17590568716E+02 -0.52988490526E+02  0.61105813209E+02  0.47000000000E+01 0.  1.
<mgrwt>
<rscale>  0 0.10485686E+03</rscale>
<asrwt>0</asrwt>
<pdfrwt beam="1">  1        2 0.59287064E-01 0.10492988E+03</pdfrwt>
<pdfrwt beam="2">  1       -2 0.55140994E-02 0.10492988E+03</pdfrwt>
<totfact> 0.12956670E+04</totfact>
</mgrwt>
</event>
<event>
 8    1  0.7366917E-004  0.9745742E+02  0.7546771E-02  0.1287331E+00
          2   -1    0    0  501    0  0.00000000000E+00  0.00000000000E+00  0.55559594891E+03  0.55559594891E+03  0.00000000000E+00 0. -1.
         -2   -1    0    0    0  501 -0.00000000000E+00 -0.00000000000E+00 -0.22487412041E+02  0.22487412041E+02  0.00000000000E+00 0.  1.
         23    2    1    2    0    0 -0.96368510658E+01  0.28951016676E+02  0.12153533041E+03  0.15578441999E+03  0.92557650723E+02 0.  0.
         23    2    1    2    0    0  0.96368510658E+01 -0.28951016676E+02  0.41157320646E+03  0.42229894096E+03  0.89514585415E+02 0.  0.
          5    1    3    3  502    0 -0.23170071091E+02 -0.23411344955E+02  0.82394033601E+02  0.88858370680E+02  0.47000000000E+01 0. -1.
         -5    1    4    4    0  503  0.21785696127E+02  0.13724547111E+02  0.38424787807E+02  0.46492301160E+02  0.47000000000E+01 0.  1.
          5    1    4    4  503    0 -0.12148845061E+02 -0.42675563787E+02  0.37314841865E+03  0.37580663980E+03  0.47000000000E+01 0. -1.
         -5    1    3    3    0  502  0.13533220025E+02  0.52362361631E+02  0.39141296814E+02  0.66926049309E+02  0.47000000000E+01 0.  1.
<mgrwt>
<rscale>  0 0.96727954E+02</rscale>
<asrwt>0</asrwt>
<pdfrwt beam="1">  1        2 0.85476290E-01 0.97457421E+02</pdfrwt>
<pdfrwt beam="2">  1       -2 0.34596023E-02 0.97457421E+02</pdfrwt>
<totfact> 0.17319361E+04</totfact>
</mgrwt>
</event>
<event>
 8    1  0.7366917E-004  0.1015143E+03  0.7546771E-02  0.1281672E+00
          2   -1    0    0  501    0  0.00000000000E+00  0.00000000000E+00  0.11232919044E+02  0.11232919044E+02  0.00000000000E+00 0. -1.
         -2   -1    0    0    0  501 -0.00000000000E+00 -0.00000000000E+00 -0.86972735279E+03  0.86972735279E+03  0.00000000000E+00 0.  1.
         23    2    1    2    0    0  0.15818492491E+02  0.73257783059E+01 -0.52410990895E+03  0.53385048883E+03  0.10000627999E+03 0.  0.
         23    2    1    2    0    0 -0.15818492491E+02 -0.73257783059E+01 -0.33438452480E+03  0.34710978300E+03  0.91478408920E+02 0.  0.
          5    1    4    4  502    0  0.25687500851E+02  0.28063846675E+02 -0.14293281112E+03  0.14798413998E+03  0.47000000000E+01 0. -1.
         -5    1    4    4    0  502 -0.41505993342E+02 -0.35389624981E+02 -0.19145171368E+03  0.19912564302E+03  0.47000000000E+01 0.  1.
          5    1    3    3  503    0 -0.58424087935E+01  0.42568864997E+02 -0.11900307858E+03  0.12660989187E+03  0.47000000000E+01 0. -1.
         -5    1    3    3    0  503  0.21660901285E+02 -0.35243086691E+02 -0.40510683036E+03  0.40724059696E+03  0.47000000000E+01 0.  1.
<mgrwt>
<rscale>  0 0.99348528E+02</rscale>
<asrwt>0</asrwt>
<pdfrwt beam="1">  1        2 0.17281411E-02 0.10151427E+03</pdfrwt>
<pdfrwt beam="2">  1       -2 0.13380423E+00 0.10151427E+03</pdfrwt>
<totfact> 0.26449064E+03</totfact>
</mgrwt>
</event>
<event>
 8    1  0.1223855E-003  0.1113591E+03  0.7546771E-02  0.1258134E+00
         -1   -1    0    0    0  501 -0.00000000000E+00  0.00000000000E+00  0.74091099260E+02  0.74091099260E+02  0.00000000000E+00 0.  1.
          1   -1    0    0  501    0  0.00000000000E+00 -0.00000000000E+00 -0.54886142944E+03  0.54886142944E+03  0.00000000000E+00 0. -1.
         23    2    1    2    0    0 -0.13970537599E+02 -0.62510992382E+02 -0.49717329384E+03  0.50949203555E+03  0.91093633669E+02 0.  0.
         23    2    1    2    0    0  0.13970537599E+02  0.62510992382E+02  0.22402963663E+02  0.11346049314E+03  0.90931791107E+02 0.  0.
          5    1    3    3  502    0 -0.38082883996E+02 -0.74353994670E+02 -0.35505236853E+03  0.36477814761E+03  0.47000000000E+01 0. -1.
         -5    1    3    3    0  502  0.24112346397E+02  0.11843002288E+02 -0.14212092531E+03  0.14471388794E+03  0.47000000000E+01 0.  1.
          5    1    4    4  503    0  0.25909842982E+02 -0.29969969639E+01 -0.21020456451E+02  0.33826787367E+02  0.47000000000E+01 0. -1.
         -5    1    4    4    0  503 -0.11939305383E+02  0.65507989346E+02  0.43423420115E+02  0.79633705776E+02  0.47000000000E+01 0.  1.
<mgrwt>
<rscale>  0 0.11132600E+03</rscale>
<asrwt>0</asrwt>
<pdfrwt beam="1">  1        1 0.84440220E-01 0.11135910E+03</pdfrwt>
<pdfrwt beam="2">  1       -1 0.11398631E-01 0.11135910E+03</pdfrwt>
<totfact> 0.19340107E+03</totfact>
</mgrwt>
</event>
<event>
 8    1  0.7366917E-004  0.1312587E+03  0.7546771E-02  0.1226739E+00
         -2   -1    0    0    0  501 -0.00000000000E+00  0.00000000000E+00  0.75759634986E+02  0.75759634986E+02  0.00000000000E+00 0.  1.
          2   -1    0    0  501    0  0.00000000000E+00 -0.00000000000E+00 -0.26287427936E+03  0.26287427936E+03  0.00000000000E+00 0. -1.
         23    2    1    2    0    0  0.90261258411E+02 -0.15491682530E+01 -0.15927915162E+03  0.20445619536E+03  0.91010949811E+02 0.  0.
         23    2    1    2    0    0 -0.90261258411E+02  0.15491682530E+01 -0.27835492752E+02  0.13417771899E+03  0.95285628112E+02 0.  0.
          5    1    3    3  502    0  0.14495053869E+02 -0.39715650009E+02 -0.43467048688E+02  0.60818695842E+02  0.47000000000E+01 0. -1.
         -5    1    3    3    0  502  0.75766204542E+02  0.38166481756E+02 -0.11581210294E+03  0.14363749951E+03  0.47000000000E+01 0.  1.
          5    1    4    4  503    0 -0.71539595910E+02 -0.26431285225E+02 -0.52039467106E+02  0.92448487053E+02  0.47000000000E+01 0. -1.
         -5    1    4    4    0  503 -0.18721662501E+02  0.27980453478E+02  0.24203974354E+02  0.41729231939E+02  0.47000000000E+01 0.  1.
<mgrwt>
<rscale>  0 0.13048452E+03</rscale>
<asrwt>0</asrwt>
<pdfrwt beam="1">  1        2 0.40442197E-01 0.13125870E+03</pdfrwt>
<pdfrwt beam="2">  1       -2 0.11655328E-01 0.13125870E+03</pdfrwt>
<totfact> 0.62281800E+03</totfact>
</mgrwt>
</event>
<event>
 8    1  0.7366917E-004  0.9592701E+02  0.7546771E-02  0.1289260E+00
          1   -1    0    0  501    0  0.00000000000E+00  0.00000000000E+00  0.40732935029E+02  0.40732935029E+02  0.00000000000E+00 0. -1.
         -1   -1    0    0    0  501 -0.00000000000E+00 -0.00000000000E+00 -0.24614849951E+03  0.24614849951E+03  0.00000000000E+00 0.  1.
         23    2    1    2    0    0  0.75859555439E+01 -0.32677647846E+02 -0.14465089402E+03  0.17356806210E+03  0.89869993044E+02 0.  0.
         23    2    1    2    0    0 -0.75859555439E+01  0.32677647846E+02 -0.60764670455E+02  0.11331337244E+03  0.89566733819E+02 0.  0.
          5    1    3    3  502    0 -0.32965215914E+02 -0.21330197114E+02 -0.25364362985E+02  0.46980034895E+02  0.47000000000E+01 0. -1.
         -5    1    4    4    0  503  0.40024763325E+01 -0.29271991594E+02 -0.79578024429E+01  0.30956193700E+02  0.47000000000E+01 0.  1.
          5    1    4    4  503    0 -0.11588431876E+02  0.61949639439E+02 -0.52806868012E+02  0.82357178736E+02  0.47000000000E+01 0. -1.
         -5    1    3    3    0  502  0.40551171458E+02 -0.11347450732E+02 -0.11928653104E+03  0.12658802721E+03  0.47000000000E+01 0.  1.
<mgrwt>
<rscale>  0 0.95855917E+02</rscale>
<asrwt>0</asrwt>
<pdfrwt beam="1">  1        1 0.62666054E-02 0.95927009E+02</pdfrwt>
<pdfrwt beam="2">  1       -1 0.37869000E-01 0.95927009E+02</pdfrwt>
<totfact> 0.76014319E+03</totfact>
</mgrwt>
</event>
<event>
 8    1  0.7366917E-004  0.1056575E+03  0.7546771E-02  0.1269512E+00
         -1   -1    0    0    0  501 -0.00000000000E+00  0.00000000000E+00  0.13536248753E+03  0.13536248753E+03  0.00000000000E+00 0.  1.
          1   -1    0    0  501    0  0.00000000000E+00 -0.00000000000E+00 -0.10956556753E+03  0.10956556753E+03  0.00000000000E+00 0. -1.
         23    2    1    2    0    0  0.12997189197E+02 -0.51085418391E+02  0.75060277505E+02  0.12960539863E+03  0.91568920473E+02 0.  0.
         23    2    1    2    0    0 -0.12997189197E+02  0.51085418391E+02 -0.49263357508E+02  0.11532265643E+03  0.89965492235E+02 0.  0.
          5    1    3    3  502    0  0.16417440476E+02  0.18420742768E+02 -0.25628720252E+01  0.25249048080E+02  0.47000000000E+01 0. -1.
         -5    1    3    3    0  502 -0.34202512795E+01 -0.69506161159E+02  0.77623149530E+02  0.10435635055E+03  0.47000000000E+01 0.  1.
          5    1    4    4  503    0 -0.33563740128E+02  0.63754833510E+02 -0.54126046485E+02  0.90238142464E+02  0.47000000000E+01 0. -1.
         -5    1    4    4    0  503  0.20566550931E+02 -0.12669415119E+02  0.48626889772E+01  0.25084513963E+02  0.47000000000E+01 0.  1.
<mgrwt>
<rscale>  0 0.10530917E+03</rscale>
<asrwt>0</asrwt>
<pdfrwt beam="1">  1        1 0.16856241E-01 0.10565753E+03</pdfrwt>
<pdfrwt beam="2">  1       -1 0.20824998E-01 0.10565753E+03</pdfrwt>
<totfact> 0.56355321E+03</totfact>
</mgrwt>
</event>
<event>
 8    1  0.7366917E-004  0.9623744E+02  0.7546771E-02  0.1291112E+00
         -1   -1    0    0    0  501 -0.00000000000E+00  0.00000000000E+00  0.62669350081E+03  0.62669350081E+03  0.00000000000E+00 0.  1.
          1   -1    0    0  501    0  0.00000000000E+00 -0.00000000000E+00 -0.14171338277E+02  0.14171338277E+02  0.00000000000E+00 0. -1.
         23    2    1    2    0    0  0.20697756253E+02  0.36707262240E+01  0.32712622531E+03  0.33967970512E+03  0.89044165668E+02 0.  0.
         23    2    1    2    0    0 -0.20697756253E+02 -0.36707262240E+01  0.28539593722E+03  0.30118513396E+03  0.93913644345E+02 0.  0.
          5    1    4    4  502    0 -0.40727216033E+02  0.33992510300E+02  0.16350418432E+03  0.17195902178E+03  0.47000000000E+01 0. -1.
         -5    1    3    3    0  503  0.13260315551E+02  0.29747784386E+02  0.29722488008E+03  0.29904094366E+03  0.47000000000E+01 0.  1.
          5    1    3    3  503    0  0.74374407021E+01 -0.26077058162E+02  0.29901345225E+02  0.40638761458E+02  0.47000000000E+01 0. -1.
         -5    1    4    4    0  502  0.20029459779E+02 -0.37663236524E+02  0.12189175290E+03  0.12922611218E+03  0.47000000000E+01 0.  1.
<mgrwt>
<rscale>  0 0.95028413E+02</rscale>
<asrwt>0</asrwt>
<pdfrwt beam="1">  1        1 0.21802064E-02 0.96237435E+02</pdfrwt>
<pdfrwt beam="2">  1       -1 0.96414363E-01 0.96237435E+02</pdfrwt>
<totfact> 0.54221694E+03</totfact>
</mgrwt>
</event>
<event>
 8    1  0.7366917E-004  0.9728543E+02  0.7546771E-02  0.1289786E+00
         -1   -1    0    0    0  501 -0.00000000000E+00  0.00000000000E+00  0.37329284609E+03  0.37329284609E+03  0.00000000000E+00 0.  1.
          1   -1    0    0  501    0  0.00000000000E+00 -0.00000000000E+00 -0.32499089956E+03  0.32499089956E+03  0.00000000000E+00 0. -1.
         23    2    1    2    0    0  0.11080502441E+02 -0.14592504562E+02  0.36037306961E+03  0.37327363231E+03  0.95544421915E+02 0.  0.
         23    2    1    2    0    0 -0.11080502441E+02  0.14592504562E+02 -0.31207112308E+03  0.32501011334E+03  0.88923951707E+02 0.  0.
          5    1    4    4  502    0 -0.47358169114E+02  0.22387714522E+02 -0.16074450999E+03  0.16912981238E+03  0.47000000000E+01 0. -1.
         -5    1    3    3    0  503  0.14752517900E+02 -0.41698032268E+02  0.32634573737E+03  0.32936301095E+03  0.47000000000E+01 0.  1.
          5    1    3    3  503    0 -0.36720154594E+01  0.27105527706E+02  0.34027332235E+02  0.43910621366E+02  0.47000000000E+01 0. -1.
         -5    1    4    4    0  502  0.36277666673E+02 -0.77952099600E+01 -0.15132661309E+03  0.15588030096E+03  0.47000000000E+01 0.  1.
<mgrwt>
<rscale>  0 0.95619784E+02</rscale>
<asrwt>0</asrwt>
<pdfrwt beam="1">  1        1 0.49998600E-01 0.97285432E+02</pdfrwt>
<pdfrwt beam="2">  1       -1 0.57429669E-01 0.97285432E+02</pdfrwt>
<totfact> 0.25746599E+02</totfact>
</mgrwt>
</event>
<event>
 8    1  0.7366917E-004  0.1323474E+03  0.7546771E-02  0.1224634E+00
         -1   -1    0    0    0  501 -0.00000000000E+00  0.00000000000E+00  0.16286804369E+02  0.16286804369E+02  0.00000000000E+00 0.  1.
          1   -1    0    0  501    0  0.00000000000E+00 -0.00000000000E+00 -0.11894576346E+04  0.11894576346E+04  0.00000000000E+00 0. -1.
         23    2    1    2    0    0  0.19666882719E+01 -0.87404181684E+02 -0.39238516393E+03  0.41410379740E+03  0.99360350799E+02 0.  0.
         23    2    1    2    0    0 -0.19666882719E+01  0.87404181684E+02 -0.78078566633E+03  0.79164064160E+03  0.97083931956E+02 0.  0.
          5    1    4    4  502    0 -0.17932480100E+02  0.75037789436E+02 -0.75307543892E+03  0.75703167067E+03  0.47000000000E+01 0. -1.
         -5    1    3    3    0  503  0.39996898599E+02 -0.70970064515E+02 -0.17954560940E+03  0.19721870552E+03  0.47000000000E+01 0.  1.
          5    1    3    3  503    0 -0.38030210327E+02 -0.16434117169E+02 -0.21283955453E+03  0.21688509188E+03  0.47000000000E+01 0. -1.
         -5    1    4    4    0  502  0.15965791828E+02  0.12366392248E+02 -0.27710227414E+02  0.34608970936E+02  0.47000000000E+01 0.  1.
<mgrwt>
<rscale>  0 0.13192026E+03</rscale>
<asrwt>0</asrwt>
<pdfrwt beam="1">  1        1 0.18299359E+00 0.13234741E+03</pdfrwt>
<pdfrwt beam="2">  1       -1 0.25056607E-02 0.13234741E+03</pdfrwt>
<totfact> 0.55978109E+03</totfact>
</mgrwt>
</event>
<event>
 8    1  0.7366917E-004  0.9483720E+02  0.7546771E-02  0.1292269E+00
         -2   -1    0    0    0  501 -0.00000000000E+00  0.00000000000E+00  0.32538336885E+03  0.32538336885E+03  0.00000000000E+00 0.  1.
          2   -1    0    0  501    0  0.00000000000E+00 -0.00000000000E+00 -0.34257206716E+02  0.34257206716E+02  0.00000000000E+00 0. -1.
         23    2    1    2    0    0 -0.19361221166E+02  0.20138328124E+02  0.63570334849E+02  0.11311319456E+03  0.89291646682E+02 0.  0.
         23    2    1    2    0    0  0.19361221166E+02 -0.20138328124E+02  0.22755582728E+03  0.24652738100E+03  0.90629387661E+02 0.  0.
          5    1    4    4  502    0  0.26492658839E+02  0.21301124017E+02  0.33662443220E+02  0.48071290188E+02  0.47000000000E+01 0. -1.
         -5    1    4    4    0  502 -0.71314376738E+01 -0.41439452142E+02  0.19389338406E+03  0.19845609081E+03  0.47000000000E+01 0.  1.
          5    1    3    3  503    0 -0.40569051111E+02  0.43788516523E+02  0.50910862201E+02  0.78595724930E+02  0.47000000000E+01 0. -1.
         -5    1    3    3    0  503  0.21207829945E+02 -0.23650188398E+02  0.12659472648E+02  0.34517469634E+02  0.47000000000E+01 0.  1.
<mgrwt>
<rscale>  0 0.94516187E+02</rscale>
<asrwt>0</asrwt>
<pdfrwt beam="1">  1        2 0.52703397E-02 0.94837203E+02</pdfrwt>
<pdfrwt beam="2">  1       -2 0.50058978E-01 0.94837203E+02</pdfrwt>
<totfact> 0.51643554E+03</totfact>
</mgrwt>
</event>
<event>
 8    1  0.7366917E-004  0.1008483E+03  0.7546771E-02  0.1279135E+00
          2   -1    0    0  501    0  0.00000000000E+00  0.00000000000E+00  0.65427098633E+02  0.65427098633E+02  0.00000000000E+00 0. -1.
         -2   -1    0    0    0  501 -0.00000000000E+00 -0.00000000000E+00 -0.18250406522E+03  0.18250406522E+03  0.00000000000E+00 0.  1.
         23    2    1    2    0    0 -0.20908626835E+02  0.35090122419E+02 -0.10812224277E+03  0.14785399816E+03  0.92205737478E+02 0.  0.
         23    2    1    2    0    0  0.20908626835E+02 -0.35090122419E+02 -0.89547238199E+01  0.10007716569E+03  0.90921750130E+02 0.  0.
          5    1    4    4  502    0  0.50567327664E+02 -0.28077905442E+02 -0.27369271786E+02  0.64160661150E+02  0.47000000000E+01 0. -1.
         -5    1    4    4    0  502 -0.29658700828E+02 -0.70122169774E+01  0.18414547966E+02  0.35916504543E+02  0.47000000000E+01 0.  1.
          5    1    3    3  503    0  0.11384066240E+02 -0.27525272774E+02 -0.35165408954E+02  0.46324222523E+02  0.47000000000E+01 0. -1.
         -5    1    3    3    0  503 -0.32292693076E+02  0.62615395193E+02 -0.72956833816E+02  0.10152977564E+03  0.47000000000E+01 0.  1.
<mgrwt>
<rscale>  0 0.10055389E+03</rscale>
<asrwt>0</asrwt>
<pdfrwt beam="1">  1        2 0.10065708E-01 0.10084833E+03</pdfrwt>
<pdfrwt beam="2">  1       -2 0.28077548E-01 0.10084833E+03</pdfrwt>
<totfact> 0.67652812E+03</totfact>
</mgrwt>
</event>
<event>
 8    1  0.7366917E-004  0.9235970E+02  0.7546771E-02  0.1298170E+00
          1   -1    0    0  501    0  0.00000000000E+00  0.00000000000E+00  0.73189986804E+02  0.73189986804E+02  0.00000000000E+00 0. -1.
         -1   -1    0    0    0  501 -0.00000000000E+00 -0.00000000000E+00 -0.11482918800E+03  0.11482918800E+03  0.00000000000E+00 0.  1.
         23    2    1    2    0    0  0.48183172195E-01 -0.62465978435E+01 -0.16458544395E+02  0.93814702259E+02  0.92148208719E+02 0.  0.
         23    2    1    2    0    0 -0.48183172195E-01  0.62465978435E+01 -0.25180656797E+02  0.94204472540E+02  0.90561552900E+02 0.  0.
          5    1    4    4  502    0 -0.29604256844E+02 -0.24753495063E+02 -0.32286291969E+02  0.50533574881E+02  0.47000000000E+01 0. -1.
         -5    1    3    3    0  503  0.18453864684E+02 -0.38937361673E+02 -0.31017131046E+02  0.53299302755E+02  0.47000000000E+01 0.  1.
          5    1    3    3  503    0 -0.18405681512E+02  0.32690763830E+02  0.14558586651E+02  0.40515399504E+02  0.47000000000E+01 0. -1.
         -5    1    4    4    0  502  0.29556073672E+02  0.31000092907E+02  0.71056351723E+01  0.43670897659E+02  0.47000000000E+01 0.  1.
<mgrwt>
<rscale>  0 0.91961394E+02</rscale>
<asrwt>0</asrwt>
<pdfrwt beam="1">  1        1 0.11259998E-01 0.92359703E+02</pdfrwt>
<pdfrwt beam="2">  1       -1 0.17666029E-01 0.92359703E+02</pdfrwt>
<totfact> 0.12162485E+04</totfact>
</mgrwt>
</event>
<event>
 8    1  0.7366917E-004  0.1262128E+03  0.7546771E-02  0.1238965E+00
         -2   -1    0    0    0  501 -0.00000000000E+00  0.00000000000E+00  0.11540103197E+02  0.11540103197E+02  0.00000000000E+00 0.  1.
          2   -1    0    0  501    0  0.00000000000E+00 -0.00000000000E+00 -0.12554051312E+04  0.12554051312E+04  0.00000000000E+00 0. -1.
         23    2    1    2    0    0  0.86231267243E+02 -0.86537334013E+01 -0.56948333298E+03  0.58330174763E+03  0.91754802017E+02 0.  0.
         23    2    1    2    0    0 -0.86231267243E+02  0.86537334013E+01 -0.67438169502E+03  0.68364348677E+03  0.71183058834E+02 0.  0.
          5    1    3    3  502    0  0.55810253600E+02  0.29262136225E+02 -0.44693948003E+03  0.45138458750E+03  0.47000000000E+01 0. -1.
         -5    1    4    4    0  503 -0.20767510350E+02 -0.51880523538E+01 -0.39038978669E+02  0.44769824982E+02  0.47000000000E+01 0.  1.
          5    1    4    4  503    0 -0.65463756893E+02  0.13841785755E+02 -0.63534271635E+03  0.63887366178E+03  0.47000000000E+01 0. -1.
         -5    1    3    3    0  502  0.30421013643E+02 -0.37915869626E+02 -0.12254385295E+03  0.13191716013E+03  0.47000000000E+01 0.  1.
<mgrwt>
<rscale>  0 0.12253998E+03</rscale>
<asrwt>0</asrwt>
<pdfrwt beam="1">  1        2 0.19313907E+00 0.12621277E+03</pdfrwt>
<pdfrwt beam="2">  1       -2 0.17754021E-02 0.12621277E+03</pdfrwt>
<totfact> 0.16405393E+04</totfact>
</mgrwt>
</event>
<event>
 8    1  0.7366917E-004  0.1018975E+03  0.7546771E-02  0.1281652E+00
         -2   -1    0    0    0  501 -0.00000000000E+00  0.00000000000E+00  0.15852785966E+02  0.15852785966E+02  0.00000000000E+00 0.  1.
          2   -1    0    0  501    0  0.00000000000E+00 -0.00000000000E+00 -0.60377289985E+03  0.60377289985E+03  0.00000000000E+00 0. -1.
         23    2    1    2    0    0 -0.49566523275E+02 -0.12035054770E+02 -0.31957841300E+03  0.33258847451E+03  0.76701033582E+02 0.  0.
         23    2    1    2    0    0  0.49566523275E+02  0.12035054770E+02 -0.26834170089E+03  0.28703721130E+03  0.88212297694E+02 0.  0.
          5    1    3    3  502    0 -0.38050626077E+02  0.26239572215E+02 -0.22595202022E+03  0.23067893431E+03  0.47000000000E+01 0. -1.
         -5    1    3    3    0  502 -0.11515897198E+02 -0.38274626985E+02 -0.93626392776E+02  0.10190954020E+03  0.47000000000E+01 0.  1.
          5    1    4    4  503    0  0.52838895693E+01  0.36862920870E+02 -0.18925017499E+03  0.19293655216E+03  0.47000000000E+01 0. -1.
         -5    1    4    4    0  503  0.44282633706E+02 -0.24827866100E+02 -0.79091525893E+02  0.94100659142E+02  0.47000000000E+01 0.  1.
<mgrwt>
<rscale>  0 0.99357871E+02</rscale>
<asrwt>0</asrwt>
<pdfrwt beam="1">  1        2 0.92888138E-01 0.10189746E+03</pdfrwt>
<pdfrwt beam="2">  1       -2 0.24388902E-02 0.10189746E+03</pdfrwt>
<totfact> 0.26378499E+04</totfact>
</mgrwt>
</event>
<event>
 8    1  0.1027853E-003  0.1029232E+03  0.7546771E-02  0.1274446E+00
          2   -1    0    0  501    0  0.00000000000E+00  0.00000000000E+00  0.22300173452E+03  0.22300173452E+03  0.00000000000E+00 0. -1.
         -2   -1    0    0    0  501 -0.00000000000E+00 -0.00000000000E+00 -0.13285617763E+03  0.13285617763E+03  0.00000000000E+00 0.  1.
         23    2    1    2    0    0  0.36684333772E+02 -0.29000716029E+02  0.18779683643E+03  0.21398135838E+03  0.91288488251E+02 0.  0.
         23    2    1    2    0    0 -0.36684333772E+02  0.29000716029E+02 -0.97651279539E+02  0.14187655377E+03  0.91686434328E+02 0.  0.
          5    1    4    4  502    0 -0.17133760848E+02 -0.30414936792E+02 -0.15416684567E+02  0.38449945434E+02  0.47000000000E+01 0. -1.
         -5    1    3    3    0  503 -0.17012756404E+02  0.20938928011E+02  0.35057845253E+02  0.44486122561E+02  0.47000000000E+01 0.  1.
          5    1    3    3  503    0  0.53697090176E+02 -0.49939644040E+02  0.15273899118E+03  0.16949523582E+03  0.47000000000E+01 0. -1.
         -5    1    4    4    0  502 -0.19550572924E+02  0.59415652821E+02 -0.82234594972E+02  0.10342660834E+03  0.47000000000E+01 0.  1.
<mgrwt>
<rscale>  0 0.10283450E+03</rscale>
<asrwt>0</asrwt>
<pdfrwt beam="1">  1        2 0.34307959E-01 0.10292320E+03</pdfrwt>
<pdfrwt beam="2">  1       -2 0.20439412E-01 0.10292320E+03</pdfrwt>
<totfact> 0.29183457E+03</totfact>
</mgrwt>
</event>
<event>
 8    1  0.7366917E-004  0.1095082E+03  0.7546771E-02  0.1262000E+00
         -1   -1    0    0    0  501 -0.00000000000E+00  0.00000000000E+00  0.41279138281E+02  0.41279138281E+02  0.00000000000E+00 0.  1.
          1   -1    0    0  501    0  0.00000000000E+00 -0.00000000000E+00 -0.29000508837E+03  0.29000508837E+03  0.00000000000E+00 0. -1.
         23    2    1    2    0    0 -0.36182241342E+02  0.45225005025E+02 -0.14008930257E+03  0.17781186197E+03  0.92938635101E+02 0.  0.
         23    2    1    2    0    0  0.36182241342E+02 -0.45225005025E+02 -0.10863664752E+03  0.15347236468E+03  0.91637273359E+02 0.  0.
          5    1    4    4  502    0  0.66419424575E+02 -0.23917939277E+02 -0.77032275262E+02  0.10459287362E+03  0.47000000000E+01 0. -1.
         -5    1    4    4    0  502 -0.30237183233E+02 -0.21307065748E+02 -0.31604372255E+02  0.48879491060E+02  0.47000000000E+01 0.  1.
          5    1    3    3  503    0  0.18476765483E+02  0.30606339134E+02 -0.10511780000E+03  0.11113046718E+03  0.47000000000E+01 0. -1.
         -5    1    3    3    0  503 -0.54659006826E+02  0.14618665891E+02 -0.34971502569E+02  0.66681394793E+02  0.47000000000E+01 0.  1.
<mgrwt>
<rscale>  0 0.10923159E+03</rscale>
<asrwt>0</asrwt>
<pdfrwt beam="1">  1        1 0.44616167E-01 0.10950820E+03</pdfrwt>
<pdfrwt beam="2">  1       -1 0.63506367E-02 0.10950820E+03</pdfrwt>
<totfact> 0.10410074E+04</totfact>
</mgrwt>
</event>
<event>
 8    1  0.7366917E-004  0.9764591E+02  0.7546771E-02  0.1286366E+00
         -2   -1    0    0    0  501 -0.00000000000E+00  0.00000000000E+00  0.15484485381E+02  0.15484485381E+02  0.00000000000E+00 0.  1.
          2   -1    0    0  501    0  0.00000000000E+00 -0.00000000000E+00 -0.62474566206E+03  0.62474566206E+03  0.00000000000E+00 0. -1.
         23    2    1    2    0    0 -0.52252848031E+01  0.27251983501E+02 -0.36605788741E+03  0.37885762481E+03  0.93620236815E+02 0.  0.
         23    2    1    2    0    0  0.52252848031E+01 -0.27251983501E+02 -0.24320328928E+03  0.26137252263E+03  0.91639410001E+02 0.  0.
          5    1    4    4  502    0 -0.33146828712E+02 -0.27067211329E+02 -0.19441318815E+03  0.19912288645E+03  0.47000000000E+01 0. -1.
         -5    1    4    4    0  502  0.38372113515E+02 -0.18477217242E+00 -0.48790101130E+02  0.62249636181E+02  0.47000000000E+01 0.  1.
          5    1    3    3  503    0  0.32971373467E+02  0.16758682402E+02 -0.29518472149E+03  0.29752995598E+03  0.47000000000E+01 0. -1.
         -5    1    3    3    0  503 -0.38196658270E+02  0.10493301099E+02 -0.70873165914E+02  0.81327668832E+02  0.47000000000E+01 0.  1.
<mgrwt>
<rscale>  0 0.97168032E+02</rscale>
<asrwt>0</asrwt>
<pdfrwt beam="1">  1        2 0.96114728E-01 0.97645906E+02</pdfrwt>
<pdfrwt beam="2">  1       -2 0.23822283E-02 0.97645906E+02</pdfrwt>
<totfact> 0.26146808E+04</totfact>
</mgrwt>
</event>
<event>
 7    1  0.7366917E-004  0.2405116E+03  0.7546771E-02  0.1154597E+00
         -1   -1    0    0    0  501 -0.00000000000E+00  0.00000000000E+00  0.87671384290E+02  0.87671384290E+02  0.00000000000E+00 0.  1.
          1   -1    0    0  501    0  0.00000000000E+00 -0.00000000000E+00 -0.33943411607E+03  0.33943411607E+03  0.00000000000E+00 0. -1.
         23    2    1    2    0    0  0.35742981073E+02  0.36422038381E+02 -0.96655047940E+02  0.14091636120E+03  0.88944347682E+02 0.  0.
          5    1    3    3  502    0  0.30735409082E+02 -0.14724316798E+02 -0.79349792356E+02  0.86486706629E+02  0.47000000000E+01 0. -1.
         -5    1    1    2    0  503 -0.79128699614E+02  0.82153370786E+02 -0.73414264620E+02  0.13572866935E+03  0.47000000000E+01 0.  1.
          5    1    1    2  503    0  0.43385718541E+02 -0.11857540917E+03 -0.81693419220E+02  0.15046046981E+03  0.47000000000E+01 0. -1.
         -5    1    3    3    0  502  0.50075719906E+01  0.51146355180E+02 -0.17305255584E+02  0.54429654567E+02  0.47000000000E+01 0.  1.
<mgrwt>
<rscale>  0 0.19434767E+03</rscale>
<asrwt>0</asrwt>
<pdfrwt beam="1">  1        1 0.52220633E-01 0.24051160E+03</pdfrwt>
<pdfrwt beam="2">  1       -1 0.13487905E-01 0.24051160E+03</pdfrwt>
<totfact> 0.28280432E+03</totfact>
</mgrwt>
</event>
<event>
 8    1  0.7366917E-004  0.1002239E+03  0.7546771E-02  0.1282125E+00
          1   -1    0    0  501    0  0.00000000000E+00  0.00000000000E+00  0.59451046987E+02  0.59451046987E+02  0.00000000000E+00 0. -1.
         -1   -1    0    0    0  501 -0.00000000000E+00 -0.00000000000E+00 -0.16307930167E+03  0.16307930167E+03  0.00000000000E+00 0.  1.
         23    2    1    2    0    0  0.29755561930E+02  0.19853975380E+01 -0.60492340076E+02  0.11341782425E+03  0.91186316853E+02 0.  0.
         23    2    1    2    0    0 -0.29755561930E+02 -0.19853975380E+01 -0.43135914609E+02  0.10911252441E+03  0.95684380041E+02 0.  0.
          5    1    4    4  502    0 -0.57604286945E+02 -0.20847507996E+02 -0.43273430806E+02  0.75150198122E+02  0.47000000000E+01 0. -1.
         -5    1    4    4    0  502  0.27848725015E+02  0.18862110458E+02  0.13751619690E+00  0.33962326284E+02  0.47000000000E+01 0.  1.
          5    1    3    3  503    0  0.23019233124E+01 -0.20078340436E+02  0.17864863070E+02  0.27380320270E+02  0.47000000000E+01 0. -1.
         -5    1    3    3    0  503  0.27453638617E+02  0.22063737974E+02 -0.78357203146E+02  0.86037503982E+02  0.47000000000E+01 0.  1.
<mgrwt>
<rscale>  0 0.99135064E+02</rscale>
<asrwt>0</asrwt>
<pdfrwt beam="1">  1        1 0.91463151E-02 0.10022393E+03</pdfrwt>
<pdfrwt beam="2">  1       -1 0.25089123E-01 0.10022393E+03</pdfrwt>
<totfact> 0.91849587E+03</totfact>
</mgrwt>
</event>
<event>
 8    1  0.7366917E-004  0.9157493E+02  0.7546771E-02  0.1300089E+00
         -4   -1    0    0    0  501 -0.00000000000E+00  0.00000000000E+00  0.73887471573E+03  0.73887471573E+03  0.00000000000E+00 0.  1.
          4   -1    0    0  501    0  0.00000000000E+00 -0.00000000000E+00 -0.12290688954E+02  0.12290688954E+02  0.00000000000E+00 0. -1.
         23    2    1    2    0    0 -0.62311384722E+01  0.46339274651E+01  0.48117893400E+03  0.48981540903E+03  0.91245098640E+02 0.  0.
         23    2    1    2    0    0  0.62311384722E+01 -0.46339274651E+01  0.24540509278E+03  0.26134999566E+03  0.89553672725E+02 0.  0.
          5    1    3    3  502    0  0.23534438777E+02  0.35730292048E+02  0.15835768502E+03  0.16410292497E+03  0.47000000000E+01 0. -1.
         -5    1    4    4    0  503 -0.14196250989E+02 -0.43068191816E+02  0.13920330484E+03  0.14647884751E+03  0.47000000000E+01 0.  1.
          5    1    4    4  503    0  0.20427389461E+02  0.38434264351E+02  0.10620178794E+03  0.11487114815E+03  0.47000000000E+01 0. -1.
         -5    1    3    3    0  502 -0.29765577249E+02 -0.31096364583E+02  0.32282124898E+03  0.32571248406E+03  0.47000000000E+01 0.  1.
<mgrwt>
<rscale>  0 0.91150689E+02</rscale>
<asrwt>0</asrwt>
<pdfrwt beam="1">  1        4 0.18908758E-02 0.91574933E+02</pdfrwt>
<pdfrwt beam="2">  1       -4 0.11367300E+00 0.91574933E+02</pdfrwt>
<totfact> 0.10611935E+03</totfact>
</mgrwt>
</event>
<event>
 8    1  0.7366917E-004  0.1025514E+03  0.7546771E-02  0.1276694E+00
         -1   -1    0    0    0  501 -0.00000000000E+00  0.00000000000E+00  0.44504230853E+02  0.44504230853E+02  0.00000000000E+00 0.  1.
          1   -1    0    0  501    0  0.00000000000E+00 -0.00000000000E+00 -0.22924556840E+03  0.22924556840E+03  0.00000000000E+00 0. -1.
         23    2    1    2    0    0  0.49002515101E+01 -0.41051286283E+02 -0.96113375593E+02  0.13820753039E+03  0.90301273070E+02 0.  0.
         23    2    1    2    0    0 -0.49002515101E+01  0.41051286283E+02 -0.88627961952E+02  0.13554226886E+03  0.93848657091E+02 0.  0.
          5    1    3    3  502    0 -0.38310713902E+02 -0.19805060999E+02 -0.72220662572E+02  0.84248829922E+02  0.47000000000E+01 0. -1.
         -5    1    3    3    0  502  0.43210965412E+02 -0.21246225284E+02 -0.23892713021E+02  0.53958700468E+02  0.47000000000E+01 0.  1.
          5    1    4    4  503    0 -0.28162096709E+02  0.17177336926E+02 -0.95534465200E+02  0.10117849888E+03  0.47000000000E+01 0. -1.
         -5    1    4    4    0  503  0.23261845199E+02  0.23873949358E+02  0.69065032489E+01  0.34363769979E+02  0.47000000000E+01 0.  1.
<mgrwt>
<rscale>  0 0.10173264E+03</rscale>
<asrwt>0</asrwt>
<pdfrwt beam="1">  1        1 0.35268549E-01 0.10255141E+03</pdfrwt>
<pdfrwt beam="2">  1       -1 0.68468047E-02 0.10255141E+03</pdfrwt>
<totfact> 0.12349060E+04</totfact>
</mgrwt>
</event>
<event>
 8    1  0.7366917E-004  0.1183610E+03  0.7546771E-02  0.1246285E+00
          1   -1    0    0  501    0  0.00000000000E+00  0.00000000000E+00  0.72456943248E+03  0.72456943248E+03  0.00000000000E+00 0. -1.
         -1   -1    0    0    0  501 -0.00000000000E+00 -0.00000000000E+00 -0.21390772134E+02  0.21390772134E+02  0.00000000000E+00 0.  1.
         23    2    1    2    0    0  0.15346420161E+02  0.74049353803E+02  0.23252600723E+03  0.26091696568E+03  0.91052180260E+02 0.  0.
         23    2    1    2    0    0 -0.15346420161E+02 -0.74049353803E+02  0.47065265312E+03  0.48504323894E+03  0.89633723235E+02 0.  0.
          5    1    4    4  502    0  0.32269347949E+02 -0.86315225123E+01  0.96894798944E+02  0.10259876247E+03  0.47000000000E+01 0. -1.
         -5    1    3    3    0  503 -0.94868745705E+01  0.60516122030E+02  0.59476693676E+02  0.85508882026E+02  0.47000000000E+01 0.  1.
          5    1    3    3  503    0  0.24833294732E+02  0.13533231774E+02  0.17304931355E+03  0.17540808365E+03  0.47000000000E+01 0. -1.
         -5    1    4    4    0  502 -0.47615768110E+02 -0.65417831291E+02  0.37375785417E+03  0.38244447647E+03  0.47000000000E+01 0.  1.
<mgrwt>
<rscale>  0 0.11808811E+03</rscale>
<asrwt>0</asrwt>
<pdfrwt beam="1">  1        1 0.11147220E+00 0.11836097E+03</pdfrwt>
<pdfrwt beam="2">  1       -1 0.32908886E-02 0.11836097E+03</pdfrwt>
<totfact> 0.83960655E+03</totfact>
</mgrwt>
</event>
<event>
 8    1  0.7366917E-004  0.1008173E+03  0.7546771E-02  0.1284052E+00
          2   -1    0    0  501    0  0.00000000000E+00  0.00000000000E+00  0.41547470742E+02  0.41547470742E+02  0.00000000000E+00 0. -1.
         -2   -1    0    0    0  501 -0.00000000000E+00 -0.00000000000E+00 -0.22675225530E+03  0.22675225530E+03  0.00000000000E+00 0.  1.
         23    2    1    2    0    0 -0.38519254492E+02 -0.23019378938E+02 -0.66794986087E+02  0.11278440957E+03  0.79026122914E+02 0.  0.
         23    2    1    2    0    0  0.38519254492E+02  0.23019378938E+02 -0.11840979847E+03  0.15551531647E+03  0.90280166758E+02 0.  0.
          5    1    3    3  502    0 -0.66630924818E+01 -0.41914888383E+02 -0.61798615108E+02  0.75116000286E+02  0.47000000000E+01 0. -1.
         -5    1    3    3    0  502 -0.31856162010E+02  0.18895509445E+02 -0.49963709790E+01  0.37668409286E+02  0.47000000000E+01 0.  1.
          5    1    4    4  503    0  0.10592751985E+02  0.24776100945E+02  0.59227928594E+01  0.27986265344E+02  0.47000000000E+01 0. -1.
         -5    1    4    4    0  503  0.27926502507E+02 -0.17567220067E+01 -0.12433259133E+03  0.12752905113E+03  0.47000000000E+01 0.  1.
<mgrwt>
<rscale>  0 0.98234874E+02</rscale>
<asrwt>0</asrwt>
<pdfrwt beam="1">  1        2 0.63919185E-02 0.10081733E+03</pdfrwt>
<pdfrwt beam="2">  1       -2 0.34884963E-01 0.10081733E+03</pdfrwt>
<totfact> 0.80498647E+03</totfact>
</mgrwt>
</event>
<event>
 8    1  0.7366917E-004  0.1029872E+03  0.7546771E-02  0.1274208E+00
          1   -1    0    0  501    0  0.00000000000E+00  0.00000000000E+00  0.87116182891E+03  0.87116182891E+03  0.00000000000E+00 0. -1.
         -1   -1    0    0    0  501 -0.00000000000E+00 -0.00000000000E+00 -0.20948716482E+02  0.20948716482E+02  0.00000000000E+00 0.  1.
         23    2    1    2    0    0 -0.18027482179E+02  0.45297951730E+02  0.13599492742E+03  0.17050540057E+03  0.90557036149E+02 0.  0.
         23    2    1    2    0    0  0.18027482179E+02 -0.45297951730E+02  0.71421818501E+03  0.72160514482E+03  0.90716452134E+02 0.  0.
          5    1    3    3  502    0  0.34527530257E+02  0.26860761106E+02  0.80516707743E+02  0.91753370829E+02  0.47000000000E+01 0. -1.
         -5    1    3    3    0  502 -0.52555012436E+02  0.18437190623E+02  0.55478219674E+02  0.78752029741E+02  0.47000000000E+01 0.  1.
          5    1    4    4  503    0  0.49557533971E+02 -0.50211385846E+02  0.49809132046E+03  0.50308467076E+03  0.47000000000E+01 0. -1.
         -5    1    4    4    0  503 -0.31530051793E+02  0.49134341166E+01  0.21612686456E+03  0.21852047406E+03  0.47000000000E+01 0.  1.
<mgrwt>
<rscale>  0 0.10295211E+03</rscale>
<asrwt>0</asrwt>
<pdfrwt beam="1">  1        1 0.13402487E+00 0.10298723E+03</pdfrwt>
<pdfrwt beam="2">  1       -1 0.32228801E-02 0.10298723E+03</pdfrwt>
<totfact> 0.65207514E+03</totfact>
</mgrwt>
</event>
<event>
 8    1  0.7366917E-004  0.1450249E+03  0.7546771E-02  0.1209065E+00
          2   -1    0    0  501    0  0.00000000000E+00  0.00000000000E+00  0.29298334865E+03  0.29298334865E+03  0.00000000000E+00 0. -1.
         -2   -1    0    0    0  501 -0.00000000000E+00 -0.00000000000E+00 -0.73936755025E+02  0.73936755025E+02  0.00000000000E+00 0.  1.
         23    2    1    2    0    0  0.10743873843E+03 -0.33972322378E+02  0.15755702733E+03  0.20939809430E+03  0.79537059497E+02 0.  0.
         23    2    1    2    0    0 -0.10743873843E+03  0.33972322378E+02  0.61489566295E+02  0.15752200937E+03  0.91296305894E+02 0.  0.
          5    1    4    4  502    0 -0.42996787941E+02 -0.42284716174E+01  0.69568733668E+02  0.82027449367E+02  0.47000000000E+01 0. -1.
         -5    1    4    4    0  502 -0.64441950490E+02  0.38200793996E+02 -0.80791673728E+01  0.75494560005E+02  0.47000000000E+01 0.  1.
          5    1    3    3  503    0  0.64169013081E+02 -0.57696816169E+02  0.82697803669E+02  0.11961438696E+03  0.47000000000E+01 0. -1.
         -5    1    3    3    0  503  0.43269725350E+02  0.23724493790E+02  0.74859223658E+02  0.89783707343E+02  0.47000000000E+01 0.  1.
<mgrwt>
<rscale>  0 0.14321640E+03</rscale>
<asrwt>0</asrwt>
<pdfrwt beam="1">  1        2 0.45074361E-01 0.14502488E+03</pdfrwt>
<pdfrwt beam="2">  1       -2 0.11374886E-01 0.14502488E+03</pdfrwt>
<totfact> 0.58062875E+03</totfact>
</mgrwt>
</event>
<event>
 8    1  0.7366917E-004  0.2528315E+03  0.7546771E-02  0.1112403E+00
          1   -1    0    0  501    0  0.00000000000E+00  0.00000000000E+00  0.94176811065E+03  0.94176811065E+03  0.00000000000E+00 0. -1.
         -1   -1    0    0    0  501 -0.00000000000E+00 -0.00000000000E+00 -0.17649957960E+03  0.17649957960E+03  0.00000000000E+00 0.  1.
         23    2    1    2    0    0 -0.21080481927E+03  0.10409459191E+03  0.82583948021E+03  0.86367507346E+03  0.93002309386E+02 0.  0.
         23    2    1    2    0    0  0.21080481927E+03 -0.10409459191E+03 -0.60570949155E+02  0.25459261679E+03  0.76643360776E+02 0.  0.
          5    1    4    4  502    0  0.15678970686E+03 -0.98475403443E+02 -0.19281175943E+02  0.18621028706E+03  0.47000000000E+01 0. -1.
         -5    1    4    4    0  502  0.54015112401E+02 -0.56191884639E+01 -0.41289773213E+02  0.68382329725E+02  0.47000000000E+01 0.  1.
          5    1    3    3  503    0 -0.13954082449E+03  0.20712254669E+02  0.41137014415E+03  0.43491162860E+03  0.47000000000E+01 0. -1.
         -5    1    3    3    0  503 -0.71263994779E+02  0.83382337237E+02  0.41446933606E+03  0.42876344486E+03  0.47000000000E+01 0.  1.
<mgrwt>
<rscale>  0 0.25143267E+03</rscale>
<asrwt>0</asrwt>
<pdfrwt beam="1">  1        1 0.14488740E+00 0.25283154E+03</pdfrwt>
<pdfrwt beam="2">  1       -1 0.27153782E-01 0.25283154E+03</pdfrwt>
<totfact> 0.21720815E+02</totfact>
</mgrwt>
</event>
<event>
 8    1  0.7366917E-004  0.1011806E+03  0.7546771E-02  0.1280111E+00
         -1   -1    0    0    0  501 -0.00000000000E+00  0.00000000000E+00  0.31338038807E+03  0.31338038807E+03  0.00000000000E+00 0.  1.
          1   -1    0    0  501    0  0.00000000000E+00 -0.00000000000E+00 -0.43714669007E+02  0.43714669007E+02  0.00000000000E+00 0. -1.
         23    2    1    2    0    0 -0.26752762027E+02  0.20770832807E+02  0.41773106751E+02  0.10946466549E+03  0.95343498842E+02 0.  0.
         23    2    1    2    0    0  0.26752762027E+02 -0.20770832807E+02  0.22789261231E+03  0.24763039159E+03  0.90766901013E+02 0.  0.
          5    1    3    3  502    0 -0.59278893189E+02  0.24248372144E+02  0.12729137587E+02  0.65468249351E+02  0.47000000000E+01 0. -1.
         -5    1    4    4    0  503  0.57543181813E+02  0.99317994903E+00  0.15543253115E+03  0.16581183890E+03  0.47000000000E+01 0.  1.
          5    1    4    4  503    0 -0.30790419785E+02 -0.21764012756E+02  0.72460081155E+02  0.81818552681E+02  0.47000000000E+01 0. -1.
         -5    1    3    3    0  502  0.32526131162E+02 -0.34775393370E+01  0.29043969164E+02  0.43996416138E+02  0.47000000000E+01 0.  1.
<mgrwt>
<rscale>  0 0.10008794E+03</rscale>
<asrwt>0</asrwt>
<pdfrwt beam="1">  1        1 0.67253339E-02 0.10118063E+03</pdfrwt>
<pdfrwt beam="2">  1       -1 0.48212366E-01 0.10118063E+03</pdfrwt>
<totfact> 0.45414335E+03</totfact>
</mgrwt>
</event>
<event>
 8    1  0.7366917E-004  0.9796833E+02  0.7546771E-02  0.1287154E+00
         -2   -1    0    0    0  501 -0.00000000000E+00  0.00000000000E+00  0.11849748722E+02  0.11849748722E+02  0.00000000000E+00 0.  1.
          2   -1    0    0  501    0  0.00000000000E+00 -0.00000000000E+00 -0.82414543774E+03  0.82414543774E+03  0.00000000000E+00 0. -1.
         23    2    1    2    0    0 -0.13761615967E+02  0.31453313976E+02 -0.29268678128E+03  0.30723133564E+03  0.86872599970E+02 0.  0.
         23    2    1    2    0    0  0.13761615967E+02 -0.31453313976E+02 -0.51960890773E+03  0.52876385082E+03  0.91755653271E+02 0.  0.
          5    1    3    3  502    0  0.11080110841E+02  0.51301694179E+02 -0.23829784782E+03  0.24405447539E+03  0.47000000000E+01 0. -1.
         -5    1    3    3    0  502 -0.24841726808E+02 -0.19848380203E+02 -0.54388933461E+02  0.63176860246E+02  0.47000000000E+01 0.  1.
          5    1    4    4  503    0  0.43882464205E+02 -0.28185420948E+02 -0.44544192331E+03  0.44850940420E+03  0.47000000000E+01 0. -1.
         -5    1    4    4    0  503 -0.30120848238E+02 -0.32678930278E+01 -0.74166984426E+02  0.80254446620E+02  0.47000000000E+01 0.  1.
<mgrwt>
<rscale>  0 0.96808461E+02</rscale>
<asrwt>0</asrwt>
<pdfrwt beam="1">  1        2 0.12679159E+00 0.97968326E+02</pdfrwt>
<pdfrwt beam="2">  1       -2 0.18230384E-02 0.97968326E+02</pdfrwt>
<totfact> 0.27718670E+04</totfact>
</mgrwt>
</event>
<event>
 8    1  0.7366917E-004  0.1404850E+03  0.7546771E-02  0.1213316E+00
          2   -1    0    0  501    0  0.00000000000E+00  0.00000000000E+00  0.22595056679E+03  0.22595056679E+03  0.00000000000E+00 0. -1.
         -2   -1    0    0    0  501 -0.00000000000E+00 -0.00000000000E+00 -0.90000322017E+02  0.90000322017E+02  0.00000000000E+00 0.  1.
         23    2    1    2    0    0 -0.89209560471E+02 -0.56099703696E+02  0.34967774913E+02  0.14293793116E+03  0.90016578731E+02 0.  0.
         23    2    1    2    0    0  0.89209560471E+02  0.56099703696E+02  0.10098246986E+03  0.17301295765E+03  0.92900494411E+02 0.  0.
          5    1    4    4  502    0  0.10799639928E+03  0.46163474542E+02  0.92796647323E+02  0.14975846017E+03  0.47000000000E+01 0. -1.
         -5    1    3    3    0  503 -0.10055712721E+03 -0.35152208417E+02  0.84202878944E+01  0.10695982814E+03  0.47000000000E+01 0.  1.
          5    1    3    3  503    0  0.11347566735E+02 -0.20947495280E+02  0.26547487018E+02  0.35978103011E+02  0.47000000000E+01 0. -1.
         -5    1    4    4    0  502 -0.18786838810E+02  0.99362291540E+01  0.81858225381E+01  0.23254497477E+02  0.47000000000E+01 0.  1.
<mgrwt>
<rscale>  0 0.14001001E+03</rscale>
<asrwt>0</asrwt>
<pdfrwt beam="1">  1        2 0.34761626E-01 0.14048496E+03</pdfrwt>
<pdfrwt beam="2">  1       -2 0.13846203E-01 0.14048496E+03</pdfrwt>
<totfact> 0.55746800E+03</totfact>
</mgrwt>
</event>
<event>
 8    1  0.7366917E-004  0.9882357E+02  0.7546771E-02  0.1283629E+00
          3   -1    0    0  501    0  0.00000000000E+00  0.00000000000E+00  0.10382771931E+03  0.10382771931E+03  0.00000000000E+00 0. -1.
         -3   -1    0    0    0  501 -0.00000000000E+00 -0.00000000000E+00 -0.20025591635E+03  0.20025591635E+03  0.00000000000E+00 0.  1.
         23    2    1    2    0    0  0.24678575154E+02  0.26441044526E+02  0.63093816437E+02  0.11724729273E+03  0.91967043409E+02 0.  0.
         23    2    1    2    0    0 -0.24678575154E+02 -0.26441044526E+02 -0.15952201348E+03  0.18683634292E+03  0.90290560659E+02 0.  0.
          5    1    3    3  502    0  0.44691651428E+02 -0.65436381059E+01  0.27823355085E+01  0.45497190000E+02  0.47000000000E+01 0. -1.
         -5    1    3    3    0  502 -0.20013076275E+02  0.32984682632E+02  0.60311480928E+02  0.71750102732E+02  0.47000000000E+01 0.  1.
          5    1    4    4  503    0 -0.49712439133E+02 -0.19563119217E+02 -0.47151430010E+02  0.71410010433E+02  0.47000000000E+01 0. -1.
         -5    1    4    4    0  503  0.25033863980E+02 -0.68779253093E+01 -0.11237058347E+03  0.11542633249E+03  0.47000000000E+01 0.  1.
<mgrwt>
<rscale>  0 0.98431687E+02</rscale>
<asrwt>0</asrwt>
<pdfrwt beam="1">  1        3 0.15973496E-01 0.98823570E+02</pdfrwt>
<pdfrwt beam="2">  1       -3 0.30808602E-01 0.98823570E+02</pdfrwt>
<totfact> 0.74642030E+02</totfact>
</mgrwt>
</event>
<event>
 8    1  0.7366917E-004  0.9207528E+02  0.7546771E-02  0.1298720E+00
         -3   -1    0    0    0  501 -0.00000000000E+00  0.00000000000E+00  0.47042899200E+02  0.47042899200E+02  0.00000000000E+00 0.  1.
          3   -1    0    0  501    0  0.00000000000E+00 -0.00000000000E+00 -0.24285467530E+03  0.24285467530E+03  0.00000000000E+00 0. -1.
         23    2    1    2    0    0 -0.81940535942E+01 -0.11080664496E+02 -0.17254373239E+03  0.19492779377E+03  0.89641405379E+02 0.  0.
         23    2    1    2    0    0  0.81940535942E+01  0.11080664496E+02 -0.23268043714E+02  0.94969780729E+02  0.91038089575E+02 0.  0.
          5    1    3    3  502    0 -0.15127590429E+02 -0.47669208013E+02 -0.12227971414E+03  0.13219537009E+03  0.47000000000E+01 0.  1.
         -5    1    4    4    0  503 -0.17404922916E+02 -0.12066099458E+02  0.26485625444E+02  0.34235952638E+02  0.47000000000E+01 0.  1.
          5    1    4    4  503    0  0.25598976510E+02  0.23146763954E+02 -0.49753669158E+02  0.60733828091E+02  0.47000000000E+01 0. -1.
         -5    1    3    3    0  502  0.69335368351E+01  0.36588543518E+02 -0.50264018251E+02  0.62732423678E+02  0.47000000000E+01 0. -1.
<mgrwt>
<rscale>  0 0.91728145E+02</rscale>
<asrwt>0</asrwt>
<pdfrwt beam="1">  1        3 0.37362258E-01 0.92075281E+02</pdfrwt>
<pdfrwt beam="2">  1       -3 0.72373691E-02 0.92075281E+02</pdfrwt>
<totfact> 0.18992208E+03</totfact>
</mgrwt>
</event>
<event>
 8    1  0.7366917E-004  0.1168963E+03  0.7546771E-02  0.1250613E+00
          2   -1    0    0  501    0  0.00000000000E+00  0.00000000000E+00  0.59172827734E+02  0.59172827734E+02  0.00000000000E+00 0. -1.
         -2   -1    0    0    0  501 -0.00000000000E+00 -0.00000000000E+00 -0.26880408838E+03  0.26880408838E+03  0.00000000000E+00 0.  1.
         23    2    1    2    0    0  0.86068381744E+01  0.65245568111E+02 -0.17619981375E+03  0.21145006473E+03  0.96611043290E+02 0.  0.
         23    2    1    2    0    0 -0.86068381744E+01 -0.65245568111E+02 -0.33431446889E+02  0.11652685138E+03  0.90165312789E+02 0.  0.
          5    1    4    4  502    0 -0.33197474637E+02 -0.62909375050E+02  0.40400564447E+01  0.71400797247E+02  0.47000000000E+01 0. -1.
         -5    1    4    4    0  502  0.24590636463E+02 -0.23361930619E+01 -0.37471503334E+02  0.45126054135E+02  0.47000000000E+01 0.  1.
          5    1    3    3  503    0  0.11966579222E+02 -0.16501133424E+02 -0.47934986568E+01  0.21460523104E+02  0.47000000000E+01 0. -1.
         -5    1    3    3    0  503 -0.33597410473E+01  0.81746701535E+02 -0.17140631510E+03  0.18998954162E+03  0.47000000000E+01 0.  1.
<mgrwt>
<rscale>  0 0.11555644E+03</rscale>
<asrwt>0</asrwt>
<pdfrwt beam="1">  1        2 0.91035120E-02 0.11689635E+03</pdfrwt>
<pdfrwt beam="2">  1       -2 0.41354475E-01 0.11689635E+03</pdfrwt>
<totfact> 0.38097601E+03</totfact>
</mgrwt>
</event>
<event>
 8    1  0.7366917E-004  0.9920437E+02  0.7546771E-02  0.1282153E+00
          2   -1    0    0  501    0  0.00000000000E+00  0.00000000000E+00  0.26194444727E+03  0.26194444727E+03  0.00000000000E+00 0. -1.
         -2   -1    0    0    0  501 -0.00000000000E+00 -0.00000000000E+00 -0.38577962426E+02  0.38577962426E+02  0.00000000000E+00 0.  1.
         23    2    1    2    0    0  0.19124767511E+01 -0.35334279193E+02  0.86127284789E+02  0.13137509496E+03  0.92678678981E+02 0.  0.
         23    2    1    2    0    0 -0.19124767511E+01  0.35334279193E+02  0.13723920006E+03  0.16914731474E+03  0.92325766700E+02 0.  0.
          5    1    3    3  502    0 -0.10285970151E+02 -0.58168980750E+02  0.86748007070E+02  0.10505588148E+03  0.47000000000E+01 0. -1.
         -5    1    3    3    0  502  0.12198446903E+02  0.22834701557E+02 -0.62072228079E+00  0.26319213479E+02  0.47000000000E+01 0.  1.
          5    1    4    4  503    0 -0.23216293370E+02 -0.10277210468E+02  0.10735302807E+03  0.11041458223E+03  0.47000000000E+01 0.  1.
         -5    1    4    4    0  503  0.21303816619E+02  0.45611489661E+02  0.29886171985E+02  0.58732732505E+02  0.47000000000E+01 0. -1.
<mgrwt>
<rscale>  0 0.99121860E+02</rscale>
<asrwt>0</asrwt>
<pdfrwt beam="1">  1        2 0.40299145E-01 0.99204367E+02</pdfrwt>
<pdfrwt beam="2">  1       -2 0.59350713E-02 0.99204367E+02</pdfrwt>
<totfact> 0.17315883E+04</totfact>
</mgrwt>
</event>
<event>
 8    1  0.7366917E-004  0.9962927E+02  0.7546771E-02  0.1282155E+00
          1   -1    0    0  501    0  0.00000000000E+00  0.00000000000E+00  0.57492095707E+03  0.57492095707E+03  0.00000000000E+00 0. -1.
         -1   -1    0    0    0  501 -0.00000000000E+00 -0.00000000000E+00 -0.20472655669E+02  0.20472655669E+02  0.00000000000E+00 0.  1.
         23    2    1    2    0    0  0.38404759192E+02 -0.15705774333E+02  0.15082348461E+03  0.17965453169E+03  0.88354005973E+02 0.  0.
         23    2    1    2    0    0 -0.38404759192E+02  0.15705774333E+02  0.40362481679E+03  0.41573908105E+03  0.90578109407E+02 0.  0.
          5    1    3    3  502    0  0.17158817656E+01 -0.46529167541E+02  0.53548016924E+02  0.71115313392E+02  0.47000000000E+01 0. -1.
         -5    1    4    4    0  503 -0.22184921090E+01 -0.33108522880E+02  0.85593803792E+02  0.91921081598E+02  0.47000000000E+01 0.  1.
          5    1    4    4  503    0 -0.36186267083E+02  0.48814297213E+02  0.31803101300E+03  0.32381799945E+03  0.47000000000E+01 0. -1.
         -5    1    3    3    0  502  0.36688877426E+02  0.30823393208E+02  0.97275467685E+02  0.10853921830E+03  0.47000000000E+01 0.  1.
<mgrwt>
<rscale>  0 0.99120977E+02</rscale>
<asrwt>0</asrwt>
<pdfrwt beam="1">  1        1 0.88449366E-01 0.99629267E+02</pdfrwt>
<pdfrwt beam="2">  1       -1 0.31496398E-02 0.99629267E+02</pdfrwt>
<totfact> 0.12162259E+04</totfact>
</mgrwt>
</event>
<event>
 8    1  0.7366917E-004  0.1075083E+03  0.7546771E-02  0.1265845E+00
          1   -1    0    0  501    0  0.00000000000E+00  0.00000000000E+00  0.13927467888E+03  0.13927467888E+03  0.00000000000E+00 0. -1.
         -1   -1    0    0    0  501 -0.00000000000E+00 -0.00000000000E+00 -0.84383523146E+02  0.84383523146E+02  0.00000000000E+00 0.  1.
         23    2    1    2    0    0  0.18048240538E+02  0.51327434742E+02  0.86644108366E+01  0.10663282419E+03  0.91297550002E+02 0.  0.
         23    2    1    2    0    0 -0.18048240538E+02 -0.51327434742E+02  0.46226744897E+02  0.11702537783E+03  0.92724228602E+02 0.  0.
          5    1    4    4  502    0  0.14530545379E+02 -0.45920980856E+02  0.63198395229E+02  0.79598997427E+02  0.47000000000E+01 0. -1.
         -5    1    3    3    0  503  0.38727846449E+02  0.27999536269E+02 -0.30094617835E+02  0.56670946211E+02  0.47000000000E+01 0.  1.
          5    1    3    3  503    0 -0.20679605911E+02  0.23327898473E+02  0.38759028672E+02  0.49961877981E+02  0.47000000000E+01 0. -1.
         -5    1    4    4    0  502 -0.32578785917E+02 -0.54064538865E+01 -0.16971650332E+02  0.37426380408E+02  0.47000000000E+01 0.  1.
<mgrwt>
<rscale>  0 0.10719993E+03</rscale>
<asrwt>0</asrwt>
<pdfrwt beam="1">  1        1 0.21426874E-01 0.10750827E+03</pdfrwt>
<pdfrwt beam="2">  1       -1 0.12982080E-01 0.10750827E+03</pdfrwt>
<totfact> 0.87438891E+03</totfact>
</mgrwt>
</event>
<event>
 8    1  0.7366917E-004  0.1030835E+03  0.7546771E-02  0.1276718E+00
          2   -1    0    0  501    0  0.00000000000E+00  0.00000000000E+00  0.40171472987E+03  0.40171472987E+03  0.00000000000E+00 0. -1.
         -2   -1    0    0    0  501 -0.00000000000E+00 -0.00000000000E+00 -0.30382773562E+02  0.30382773562E+02  0.00000000000E+00 0.  1.
         23    2    1    2    0    0  0.52624289890E+01 -0.42099409849E+02  0.27981845664E+03  0.29820225266E+03  0.93947652152E+02 0.  0.
         23    2    1    2    0    0 -0.52624289890E+01  0.42099409849E+02  0.91513499669E+02  0.13389525078E+03  0.88052053300E+02 0.  0.
          5    1    4    4  502    0  0.29046667067E+02  0.16558511835E+02  0.83577787113E+02  0.90140055917E+02  0.47000000000E+01 0. -1.
         -5    1    4    4    0  502 -0.34309096056E+02  0.25540898014E+02  0.79357125559E+01  0.43755194860E+02  0.47000000000E+01 0.  1.
          5    1    3    3  503    0  0.14368144853E+02  0.26483723558E+02  0.12321697763E+03  0.12693441132E+03  0.47000000000E+01 0. -1.
         -5    1    3    3    0  503 -0.91057158642E+01 -0.68583133407E+02  0.15660147901E+03  0.17126784134E+03  0.47000000000E+01 0.  1.
<mgrwt>
<rscale>  0 0.10172101E+03</rscale>
<asrwt>0</asrwt>
<pdfrwt beam="1">  1        2 0.61802263E-01 0.10308353E+03</pdfrwt>
<pdfrwt beam="2">  1       -2 0.46742731E-02 0.10308353E+03</pdfrwt>
<totfact> 0.15842272E+04</totfact>
</mgrwt>
</event>
<event>
 8    1  0.7366917E-004  0.1208238E+03  0.7546771E-02  0.1242624E+00
          2   -1    0    0  501    0  0.00000000000E+00  0.00000000000E+00  0.34548212484E+03  0.34548212484E+03  0.00000000000E+00 0. -1.
         -2   -1    0    0    0  501 -0.00000000000E+00 -0.00000000000E+00 -0.50350655703E+02  0.50350655703E+02  0.00000000000E+00 0.  1.
         23    2    1    2    0    0 -0.57152130872E+02  0.51890158024E+02  0.63568913100E+02  0.13464396451E+03  0.90161166264E+02 0.  0.
         23    2    1    2    0    0  0.57152130872E+02 -0.51890158024E+02  0.23156255604E+03  0.26118881604E+03  0.92948511023E+02 0.  0.
          5    1    3    3  502    0 -0.25531055019E+01 -0.21465979369E+02 -0.17145512139E+01  0.22188652592E+02  0.47000000000E+01 0. -1.
         -5    1    4    4    0  503 -0.22692280918E+02  0.18703022532E+00  0.27883354953E+02  0.36256669414E+02  0.47000000000E+01 0.  1.
          5    1    4    4  503    0  0.79844411790E+02 -0.52077188250E+02  0.20367920108E+03  0.22493214662E+03  0.47000000000E+01 0. -1.
         -5    1    3    3    0  502 -0.54599025370E+02  0.73356137394E+02  0.65283464314E+02  0.11245531191E+03  0.47000000000E+01 0.  1.
<mgrwt>
<rscale>  0 0.12028747E+03</rscale>
<asrwt>0</asrwt>
<pdfrwt beam="1">  1        2 0.53151095E-01 0.12082376E+03</pdfrwt>
<pdfrwt beam="2">  1       -2 0.77462549E-02 0.12082376E+03</pdfrwt>
<totfact> 0.87813608E+03</totfact>
</mgrwt>
</event>
<event>
 8    1  0.7366917E-004  0.1531047E+03  0.7546771E-02  0.1206258E+00
          2   -1    0    0  501    0  0.00000000000E+00  0.00000000000E+00  0.15833379404E+03  0.15833379404E+03  0.00000000000E+00 0. -1.
         -2   -1    0    0    0  501 -0.00000000000E+00 -0.00000000000E+00 -0.12198197610E+03  0.12198197610E+03  0.00000000000E+00 0.  1.
         23    2    1    2    0    0 -0.54526644615E+02 -0.65356785864E+02  0.13050592939E+02  0.15365991837E+03  0.12726503096E+03 0.  0.
         23    2    1    2    0    0  0.54526644615E+02  0.65356785864E+02  0.23301224993E+02  0.12665585177E+03  0.90852040540E+02 0.  0.
          5    1    3    3  502    0  0.22352899117E+02 -0.14620317087E+02  0.47915580951E+02  0.55058138986E+02  0.47000000000E+01 0. -1.
         -5    1    4    4    0  503 -0.17506377315E+02  0.41038856989E+02 -0.55439414454E+01  0.45204936859E+02  0.47000000000E+01 0.  1.
          5    1    4    4  503    0  0.72033021931E+02  0.24317928874E+02  0.28845166438E+02  0.81450914912E+02  0.47000000000E+01 0. -1.
         -5    1    3    3    0  502 -0.76879543732E+02 -0.50736468776E+02 -0.34864988012E+02  0.98601779383E+02  0.47000000000E+01 0.  1.
<mgrwt>
<rscale>  0 0.14538799E+03</rscale>
<asrwt>0</asrwt>
<pdfrwt beam="1">  1        2 0.24359045E-01 0.15310471E+03</pdfrwt>
<pdfrwt beam="2">  1       -2 0.18766458E-01 0.15310471E+03</pdfrwt>
<totfact> 0.49981610E+03</totfact>
</mgrwt>
</event>
<event>
 8    1  0.7366917E-004  0.2067647E+03  0.7546771E-02  0.1144301E+00
          2   -1    0    0  501    0  0.00000000000E+00  0.00000000000E+00  0.28375069240E+04  0.28375069240E+04  0.00000000000E+00 0. -1.
         -2   -1    0    0    0  501 -0.00000000000E+00 -0.00000000000E+00 -0.15280194322E+02  0.15280194322E+02  0.00000000000E+00 0.  1.
         23    2    1    2    0    0 -0.14356196532E+03 -0.11593934907E+03  0.12203745705E+04  0.12376456461E+04  0.91655236257E+02 0.  0.
         23    2    1    2    0    0  0.14356196532E+03  0.11593934907E+03  0.16018521591E+04  0.16151414722E+04  0.93271994807E+02 0.  0.
          5    1    3    3  502    0 -0.12874072199E+03 -0.13046588646E+03  0.11315138613E+04  0.11462727552E+04  0.47000000000E+01 0. -1.
         -5    1    4    4    0  503  0.22046491109E+02  0.70250022340E+02  0.45308155384E+03  0.45904912356E+03  0.47000000000E+01 0.  1.
          5    1    4    4  503    0  0.12151547421E+03  0.45689326733E+02  0.11487706053E+04  0.11560923487E+04  0.47000000000E+01 0. -1.
         -5    1    3    3    0  502 -0.14821243323E+02  0.14526537384E+02  0.88860709259E+02  0.91372890904E+02  0.47000000000E+01 0.  1.
<mgrwt>
<rscale>  0 0.20658338E+03</rscale>
<asrwt>0</asrwt>
<pdfrwt beam="1">  1        2 0.43653911E+00 0.20676469E+03</pdfrwt>
<pdfrwt beam="2">  1       -2 0.23508014E-02 0.20676469E+03</pdfrwt>
<totfact> 0.15934365E+03</totfact>
</mgrwt>
</event>
<event>
 8    1  0.7366917E-004  0.1010673E+03  0.7546771E-02  0.1278417E+00
         -1   -1    0    0    0  501 -0.00000000000E+00  0.00000000000E+00  0.26411808387E+02  0.26411808387E+02  0.00000000000E+00 0.  1.
          1   -1    0    0  501    0  0.00000000000E+00 -0.00000000000E+00 -0.55005353392E+03  0.55005353392E+03  0.00000000000E+00 0. -1.
         23    2    1    2    0    0 -0.15610206313E+02  0.37621897745E+02 -0.10414809788E+03  0.14512558280E+03  0.92496068881E+02 0.  0.
         23    2    1    2    0    0  0.15610206313E+02 -0.37621897745E+02 -0.41949362765E+03  0.43133975951E+03  0.91760551236E+02 0.  0.
          5    1    4    4  502    0  0.46217428223E+02 -0.11441150243E+02 -0.32514390801E+03  0.32864509963E+03  0.47000000000E+01 0. -1.
         -5    1    4    4    0  502 -0.30607221910E+02 -0.26180747502E+02 -0.94349719639E+02  0.10269465988E+03  0.47000000000E+01 0.  1.
          5    1    3    3  503    0  0.19754996698E+02  0.47389936211E+02 -0.93267705222E+02  0.10656932385E+03  0.47000000000E+01 0. -1.
         -5    1    3    3    0  503 -0.35365203011E+02 -0.97680384654E+01 -0.10880392660E+02  0.38556258946E+02  0.47000000000E+01 0.  1.
<mgrwt>
<rscale>  0 0.10089875E+03</rscale>
<asrwt>0</asrwt>
<pdfrwt beam="1">  1        1 0.84623626E-01 0.10106735E+03</pdfrwt>
<pdfrwt beam="2">  1       -1 0.40633549E-02 0.10106735E+03</pdfrwt>
<totfact> 0.89193638E+03</totfact>
</mgrwt>
</event>
<event>
 8    1  0.7366917E-004  0.1045065E+03  0.7546771E-02  0.1271598E+00
          2   -1    0    0  501    0  0.00000000000E+00  0.00000000000E+00  0.37008843917E+03  0.37008843917E+03  0.00000000000E+00 0. -1.
         -2   -1    0    0    0  501 -0.00000000000E+00 -0.00000000000E+00 -0.33437861259E+02  0.33437861259E+02  0.00000000000E+00 0.  1.
         23    2    1    2    0    0  0.21532965487E+02 -0.43827767676E+02  0.97435294030E+02  0.14288189729E+03  0.92396202461E+02 0.  0.
         23    2    1    2    0    0 -0.21532965487E+02  0.43827767676E+02  0.23921528388E+03  0.26064440314E+03  0.91252457623E+02 0.  0.
          5    1    4    4  502    0 -0.39514354168E+02  0.62556900471E+02  0.20071365422E+03  0.21396918229E+03  0.47000000000E+01 0. -1.
         -5    1    4    4    0  502  0.17981388681E+02 -0.18729132794E+02  0.38501629668E+02  0.46675220848E+02  0.47000000000E+01 0.  1.
          5    1    3    3  503    0 -0.21168708313E+01 -0.65097569938E+02  0.87594288041E+02  0.10925668882E+03  0.47000000000E+01 0. -1.
         -5    1    3    3    0  503  0.23649836318E+02  0.21269802262E+02  0.98410059890E+01  0.33625208475E+02  0.47000000000E+01 0.  1.
<mgrwt>
<rscale>  0 0.10425308E+03</rscale>
<asrwt>0</asrwt>
<pdfrwt beam="1">  1        2 0.56936680E-01 0.10450646E+03</pdfrwt>
<pdfrwt beam="2">  1       -2 0.51442866E-02 0.10450646E+03</pdfrwt>
<totfact> 0.14995959E+04</totfact>
</mgrwt>
</event>
<event>
 8    1  0.7366917E-004  0.1396404E+03  0.7546771E-02  0.1214446E+00
          1   -1    0    0  501    0  0.00000000000E+00  0.00000000000E+00  0.81700397011E+02  0.81700397011E+02  0.00000000000E+00 0. -1.
         -1   -1    0    0    0  501 -0.00000000000E+00 -0.00000000000E+00 -0.37269566286E+03  0.37269566286E+03  0.00000000000E+00 0.  1.
         23    2    1    2    0    0  0.10172275097E+03 -0.25122566453E+02 -0.28395858379E+03  0.31643629771E+03  0.92308135026E+02 0.  0.
         23    2    1    2    0    0 -0.10172275097E+03  0.25122566453E+02 -0.70366820582E+01  0.13795976216E+03  0.89469098972E+02 0.  0.
          5    1    4    4  502    0 -0.66332825925E+02  0.11497470142E+02  0.39146334866E+02  0.78017697661E+02  0.47000000000E+01 0. -1.
         -5    1    3    3    0  503  0.46337737318E+02  0.21391378730E+02 -0.19534632770E+03  0.20195805190E+03  0.47000000000E+01 0.  1.
          5    1    3    3  503    0  0.55385013648E+02 -0.46513945183E+02 -0.88612256088E+02  0.11447824580E+03  0.47000000000E+01 0. -1.
         -5    1    4    4    0  502 -0.35389925041E+02  0.13625096310E+02 -0.46183016924E+02  0.59942064497E+02  0.47000000000E+01 0.  1.
<mgrwt>
<rscale>  0 0.13917304E+03</rscale>
<asrwt>0</asrwt>
<pdfrwt beam="1">  1        1 0.12569292E-01 0.13964044E+03</pdfrwt>
<pdfrwt beam="2">  1       -1 0.57337795E-01 0.13964044E+03</pdfrwt>
<totfact> 0.14658148E+03</totfact>
</mgrwt>
</event>
<event>
 8    1  0.7366917E-004  0.1289258E+03  0.7546771E-02  0.1229382E+00
          2   -1    0    0  501    0  0.00000000000E+00  0.00000000000E+00  0.58863975182E+02  0.58863975182E+02  0.00000000000E+00 0. -1.
         -2   -1    0    0    0  501 -0.00000000000E+00 -0.00000000000E+00 -0.31855315731E+03  0.31855315731E+03  0.00000000000E+00 0.  1.
         23    2    1    2    0    0  0.68531376131E+02 -0.59634745867E+02 -0.19545297126E+03  0.23414467372E+03  0.91482303347E+02 0.  0.
         23    2    1    2    0    0 -0.68531376131E+02  0.59634745867E+02 -0.64236210865E+02  0.14327245878E+03  0.90265465313E+02 0.  0.
          5    1    4    4  502    0 -0.32202012246E+02  0.79582393481E+02 -0.38047980626E+02  0.94021623973E+02  0.47000000000E+01 0. -1.
         -5    1    4    4    0  502 -0.36329363884E+02 -0.19947647614E+02 -0.26188230239E+02  0.49250834802E+02  0.47000000000E+01 0.  1.
          5    1    3    3  503    0 -0.14584326821E+02 -0.40758454224E+02 -0.64058715101E+02  0.77456847082E+02  0.47000000000E+01 0. -1.
         -5    1    3    3    0  503  0.83115702951E+02 -0.18876291643E+02 -0.13139425616E+03  0.15668782663E+03  0.47000000000E+01 0.  1.
<mgrwt>
<rscale>  0 0.12871013E+03</rscale>
<asrwt>0</asrwt>
<pdfrwt beam="1">  1        2 0.90559961E-02 0.12892581E+03</pdfrwt>
<pdfrwt beam="2">  1       -2 0.49008178E-01 0.12892581E+03</pdfrwt>
<totfact> 0.27795341E+03</totfact>
</mgrwt>
</event>
<event>
 8    1  0.7366917E-004  0.1354433E+03  0.7546771E-02  0.1224705E+00
          1   -1    0    0  501    0  0.00000000000E+00  0.00000000000E+00  0.34487466015E+03  0.34487466015E+03  0.00000000000E+00 0. -1.
         -1   -1    0    0    0  501 -0.00000000000E+00 -0.00000000000E+00 -0.16399725190E+03  0.16399725190E+03  0.00000000000E+00 0.  1.
         23    2    1    2    0    0 -0.82556956528E+02 -0.39647297112E+00 -0.12492807363E+03  0.17441430401E+03  0.89428841001E+02 0.  0.
         23    2    1    2    0    0  0.82556956528E+02  0.39647297112E+00  0.30580548188E+03  0.33445760804E+03  0.10737360272E+03 0.  0.
          5    1    3    3  502    0 -0.70984630406E+02  0.30261998762E+02 -0.48860585605E+02  0.91455197493E+02  0.47000000000E+01 0. -1.
         -5    1    3    3    0  502 -0.11572326123E+02 -0.30658471733E+02 -0.76067488022E+02  0.82959106521E+02  0.47000000000E+01 0.  1.
          5    1    4    4  503    0  0.47656143281E+02 -0.81947901229E+01  0.29144717614E+03  0.29546879540E+03  0.47000000000E+01 0. -1.
         -5    1    4    4    0  503  0.34900813248E+02  0.85912630940E+01  0.14358305747E+02  0.38988812637E+02  0.47000000000E+01 0.  1.
<mgrwt>
<rscale>  0 0.13187116E+03</rscale>
<asrwt>0</asrwt>
<pdfrwt beam="1">  1        1 0.53057640E-01 0.13544334E+03</pdfrwt>
<pdfrwt beam="2">  1       -1 0.25230346E-01 0.13544334E+03</pdfrwt>
<totfact> 0.99977014E+02</totfact>
</mgrwt>
</event>
<event>
 8    1  0.7366917E-004  0.1101271E+03  0.7546771E-02  0.1260449E+00
         -1   -1    0    0    0  501 -0.00000000000E+00  0.00000000000E+00  0.25690131705E+03  0.25690131705E+03  0.00000000000E+00 0.  1.
          1   -1    0    0  501    0  0.00000000000E+00 -0.00000000000E+00 -0.47150316302E+02  0.47150316302E+02  0.00000000000E+00 0. -1.
         23    2    1    2    0    0 -0.13476242912E+02  0.58676323375E+02  0.99930134991E+02  0.14852476881E+03  0.91918741414E+02 0.  0.
         23    2    1    2    0    0  0.13476242912E+02 -0.58676323375E+02  0.10982086576E+03  0.15552686454E+03  0.92214223362E+02 0.  0.
          5    1    4    4  502    0  0.28412198248E+02 -0.78059060076E+02  0.95984216408E+02  0.12702570476E+03  0.47000000000E+01 0. -1.
         -5    1    4    4    0  502 -0.14935955336E+02  0.19382736701E+02  0.13836649348E+02  0.28501159784E+02  0.47000000000E+01 0.  1.
          5    1    3    3  503    0 -0.20597671559E+02 -0.12519826674E+02 -0.11601676702E+01  0.24585486015E+02  0.47000000000E+01 0. -1.
         -5    1    3    3    0  503  0.71214286468E+01  0.71196150049E+02  0.10109030266E+03  0.12393928280E+03  0.47000000000E+01 0.  1.
<mgrwt>
<rscale>  0 0.11006524E+03</rscale>
<asrwt>0</asrwt>
<pdfrwt beam="1">  1        1 0.72538949E-02 0.11012712E+03</pdfrwt>
<pdfrwt beam="2">  1       -1 0.39523279E-01 0.11012712E+03</pdfrwt>
<totfact> 0.58698324E+03</totfact>
</mgrwt>
</event>
<event>
 7    1  0.7366917E-004  0.1431618E+03  0.7546771E-02  0.1227021E+00
          2   -1    0    0  501    0  0.00000000000E+00  0.00000000000E+00  0.13894214674E+02  0.13894214674E+02  0.00000000000E+00 0. -1.
         -2   -1    0    0    0  501 -0.00000000000E+00 -0.00000000000E+00 -0.10538369328E+04  0.10538369328E+04  0.00000000000E+00 0.  1.
         23    2    1    2    0    0 -0.36664590173E+02 -0.54058949268E+01 -0.38593378911E+03  0.39823658063E+03  0.90961358293E+02 0.  0.
          5    1    1    2  502    0  0.13522379370E+02  0.65375537659E+02 -0.19920363745E+03  0.21014517563E+03  0.47000000000E+01 0. -1.
         -5    1    1    2    0  502  0.23142210803E+02 -0.59969642732E+02 -0.45480529162E+03  0.45934939126E+03  0.47000000000E+01 0.  1.
          5    1    3    3  503    0 -0.79023909881E+01  0.27512145304E+02 -0.39409065160E+02  0.48933938523E+02  0.47000000000E+01 0. -1.
         -5    1    3    3    0  503 -0.28762199185E+02 -0.32918040231E+02 -0.34652472395E+03  0.34930264211E+03  0.47000000000E+01 0.  1.
<mgrwt>
<rscale>  0 0.13029330E+03</rscale>
<asrwt>0</asrwt>
<pdfrwt beam="1">  1        2 0.21375715E-02 0.14316178E+03</pdfrwt>
<pdfrwt beam="2">  1       -2 0.16212876E+00 0.14316178E+03</pdfrwt>
<totfact> 0.12488496E+03</totfact>
</mgrwt>
</event>
<event>
 8    1  0.7366917E-004  0.2175183E+03  0.7546771E-02  0.1138087E+00
         -1   -1    0    0    0  501 -0.00000000000E+00  0.00000000000E+00  0.55058527909E+02  0.55058527909E+02  0.00000000000E+00 0.  1.
          1   -1    0    0  501    0  0.00000000000E+00 -0.00000000000E+00 -0.84245291840E+03  0.84245291840E+03  0.00000000000E+00 0. -1.
         23    2    1    2    0    0  0.35167668315E+02  0.18101290776E+03 -0.29846633368E+03  0.36238075521E+03  0.90748122486E+02 0.  0.
         23    2    1    2    0    0 -0.35167668315E+02 -0.18101290776E+03 -0.48892805681E+03  0.53513069110E+03  0.11537666208E+03 0.  0.
          5    1    4    4  502    0 -0.47054483119E+02 -0.90888897342E+02 -0.37798448716E+03  0.39162389939E+03  0.47000000000E+01 0. -1.
         -5    1    4    4    0  502  0.11886814804E+02 -0.90124010416E+02 -0.11094356965E+03  0.14350679171E+03  0.47000000000E+01 0.  1.
          5    1    3    3  503    0  0.44889724082E+02  0.58735360242E+02 -0.64732526409E+02  0.98373369599E+02  0.47000000000E+01 0. -1.
         -5    1    3    3    0  503 -0.97220557665E+01  0.12227754752E+03 -0.23373380727E+03  0.26400738561E+03  0.47000000000E+01 0.  1.
<mgrwt>
<rscale>  0 0.21445409E+03</rscale>
<asrwt>0</asrwt>
<pdfrwt beam="1">  1        1 0.12960814E+00 0.21751830E+03</pdfrwt>
<pdfrwt beam="2">  1       -1 0.84705425E-02 0.21751830E+03</pdfrwt>
<totfact> 0.16719939E+03</totfact>
</mgrwt>
</event>
<event>
 8    1  0.7366917E-004  0.1182859E+03  0.7546771E-02  0.1247198E+00
          1   -1    0    0  501    0  0.00000000000E+00  0.00000000000E+00  0.22874143134E+03  0.22874143134E+03  0.00000000000E+00 0. -1.
         -1   -1    0    0    0  501 -0.00000000000E+00 -0.00000000000E+00 -0.60209697487E+02  0.60209697487E+02  0.00000000000E+00 0.  1.
         23    2    1    2    0    0  0.54935359327E+02  0.49079551144E+02  0.96969464457E+02  0.15070240398E+03  0.88777482969E+02 0.  0.
         23    2    1    2    0    0 -0.54935359327E+02 -0.49079551144E+02  0.71562269394E+02  0.13824872485E+03  0.92546504400E+02 0.  0.
          5    1    3    3  502    0  0.25236657406E+02 -0.24028218592E+02  0.20409240377E+02  0.40655519410E+02  0.47000000000E+01 0. -1.
         -5    1    4    4    0  503 -0.11362121927E+02 -0.38148507619E+02 -0.13203249637E+02  0.42199789682E+02  0.47000000000E+01 0.  1.
          5    1    4    4  503    0 -0.43573237400E+02 -0.10931043524E+02  0.84765519031E+02  0.96048935166E+02  0.47000000000E+01 0. -1.
         -5    1    3    3    0  502  0.29698701921E+02  0.73107769736E+02  0.76560224080E+02  0.11004688457E+03  0.47000000000E+01 0.  1.
<mgrwt>
<rscale>  0 0.11754776E+03</rscale>
<asrwt>0</asrwt>
<pdfrwt beam="1">  1        1 0.35190989E-01 0.11828589E+03</pdfrwt>
<pdfrwt beam="2">  1       -1 0.92630305E-02 0.11828589E+03</pdfrwt>
<totfact> 0.79624801E+03</totfact>
</mgrwt>
</event>
<event>
 8    1  0.7366917E-004  0.9429258E+02  0.7546771E-02  0.1293639E+00
         -1   -1    0    0    0  501 -0.00000000000E+00  0.00000000000E+00  0.12790484104E+02  0.12790484104E+02  0.00000000000E+00 0.  1.
          1   -1    0    0  501    0  0.00000000000E+00 -0.00000000000E+00 -0.68627659852E+03  0.68627659852E+03  0.00000000000E+00 0. -1.
         23    2    1    2    0    0  0.24727388587E+02 -0.67845011479E+01 -0.35372627617E+03  0.36569425243E+03  0.89176984722E+02 0.  0.
         23    2    1    2    0    0 -0.24727388587E+02  0.67845011479E+01 -0.31975983824E+03  0.33337283019E+03  0.90739277904E+02 0.  0.
          5    1    4    4  502    0 -0.69687288290E+01  0.40579572293E+02 -0.25260743241E+03  0.25598412017E+03  0.47000000000E+01 0. -1.
         -5    1    4    4    0  502 -0.17758659758E+02 -0.33795071145E+02 -0.67152405834E+02  0.77388710025E+02  0.47000000000E+01 0.  1.
          5    1    3    3  503    0 -0.29507277401E+02  0.90265070031E+01 -0.18718765763E+03  0.18977214342E+03  0.47000000000E+01 0. -1.
         -5    1    3    3    0  503  0.54234665989E+02 -0.15811008151E+02 -0.16653861854E+03  0.17592210901E+03  0.47000000000E+01 0.  1.
<mgrwt>
<rscale>  0 0.93914698E+02</rscale>
<asrwt>0</asrwt>
<pdfrwt beam="1">  1        1 0.10558101E+00 0.94292575E+02</pdfrwt>
<pdfrwt beam="2">  1       -1 0.19677669E-02 0.94292575E+02</pdfrwt>
<totfact> 0.18691082E+04</totfact>
</mgrwt>
</event>
<event>
 8    1  0.7366917E-004  0.9386414E+02  0.7546771E-02  0.1294570E+00
         -1   -1    0    0    0  501 -0.00000000000E+00  0.00000000000E+00  0.24522045123E+03  0.24522045123E+03  0.00000000000E+00 0.  1.
          1   -1    0    0  501    0  0.00000000000E+00 -0.00000000000E+00 -0.35879656627E+02  0.35879656627E+02  0.00000000000E+00 0. -1.
         23    2    1    2    0    0 -0.12411959585E+02  0.95839918994E+01  0.87465620816E+02  0.12726891773E+03  0.91111102253E+02 0.  0.
         23    2    1    2    0    0  0.12411959585E+02 -0.95839918994E+01  0.12187517379E+03  0.15383119013E+03  0.92544948155E+02 0.  0.
          5    1    3    3  502    0 -0.51108147903E+02 -0.23101770997E-01  0.39790996022E+02  0.64941948540E+02  0.47000000000E+01 0. -1.
         -5    1    3    3    0  502  0.38696188318E+02  0.96070936704E+01  0.47674624794E+02  0.62326969189E+02  0.47000000000E+01 0.  1.
          5    1    4    4  503    0 -0.85489007996E+00 -0.47251865149E+02  0.38032557446E+02  0.60844350789E+02  0.47000000000E+01 0. -1.
         -5    1    4    4    0  503  0.13266849665E+02  0.37667873250E+02  0.83842616341E+02  0.92986839338E+02  0.47000000000E+01 0.  1.
<mgrwt>
<rscale>  0 0.93508783E+02</rscale>
<asrwt>0</asrwt>
<pdfrwt beam="1">  1        1 0.55199473E-02 0.93864142E+02</pdfrwt>
<pdfrwt beam="2">  1       -1 0.37726222E-01 0.93864142E+02</pdfrwt>
<totfact> 0.90558588E+03</totfact>
</mgrwt>
</event>
<event>
 8    1  0.7366917E-004  0.9164143E+02  0.7546771E-02  0.1299979E+00
         -2   -1    0    0    0  501 -0.00000000000E+00  0.00000000000E+00  0.27996859079E+02  0.27996859079E+02  0.00000000000E+00 0.  1.
          2   -1    0    0  501    0  0.00000000000E+00 -0.00000000000E+00 -0.58524499408E+03  0.58524499408E+03  0.00000000000E+00 0. -1.
         23    2    1    2    0    0 -0.16051323134E+02 -0.22478260474E+01 -0.63769128262E+02  0.11164521362E+03  0.90196753322E+02 0.  0.
         23    2    1    2    0    0  0.16051323134E+02  0.22478260474E+01 -0.49347900674E+03  0.50159663953E+03  0.88402268095E+02 0.  0.
          5    1    4    4  502    0 -0.24763950862E+02 -0.26373641513E+02 -0.27759475869E+03  0.27998171776E+03  0.47000000000E+01 0. -1.
         -5    1    4    4    0  502  0.40815273995E+02  0.28621467560E+02 -0.21588424805E+03  0.22161492177E+03  0.47000000000E+01 0.  1.
          5    1    3    3  503    0 -0.48576668670E+02 -0.20006949145E+02 -0.27098476046E+02  0.59299141285E+02  0.47000000000E+01 0. -1.
         -5    1    3    3    0  503  0.32525345536E+02  0.17759123098E+02 -0.36670652216E+02  0.52346072340E+02  0.47000000000E+01 0.  1.
<mgrwt>
<rscale>  0 0.91196797E+02</rscale>
<asrwt>0</asrwt>
<pdfrwt beam="1">  1        2 0.90037685E-01 0.91641432E+02</pdfrwt>
<pdfrwt beam="2">  1       -2 0.43072094E-02 0.91641432E+02</pdfrwt>
<totfact> 0.11785714E+04</totfact>
</mgrwt>
</event>
<event>
 8    1  0.7366917E-004  0.1056475E+03  0.7546771E-02  0.1269764E+00
         -1   -1    0    0    0  501 -0.00000000000E+00  0.00000000000E+00  0.12986555150E+02  0.12986555150E+02  0.00000000000E+00 0.  1.
          1   -1    0    0  501    0  0.00000000000E+00 -0.00000000000E+00 -0.88140472071E+03  0.88140472071E+03  0.00000000000E+00 0. -1.
         23    2    1    2    0    0 -0.12955849577E+02  0.47303878944E+02 -0.52210857806E+03  0.53232535497E+03  0.91473522174E+02 0.  0.
         23    2    1    2    0    0  0.12955849577E+02 -0.47303878944E+02 -0.34630958750E+03  0.36206592088E+03  0.93572911002E+02 0.  0.
          5    1    3    3  502    0  0.33400769113E+02  0.24992082441E+02 -0.35339268439E+03  0.35587735941E+03  0.47000000000E+01 0. -1.
         -5    1    4    4    0  503 -0.38978525089E+02 -0.20370023880E+02 -0.19053387828E+03  0.19560038871E+03  0.47000000000E+01 0.  1.
          5    1    4    4  503    0  0.51934374667E+02 -0.26933855064E+02 -0.15577570921E+03  0.16646553217E+03  0.47000000000E+01 0. -1.
         -5    1    3    3    0  502 -0.46356618690E+02  0.22311796503E+02 -0.16871589368E+03  0.17644799556E+03  0.47000000000E+01 0.  1.
<mgrwt>
<rscale>  0 0.10518073E+03</rscale>
<asrwt>0</asrwt>
<pdfrwt beam="1">  1        1 0.13560074E+00 0.10564753E+03</pdfrwt>
<pdfrwt beam="2">  1       -1 0.19979313E-02 0.10564753E+03</pdfrwt>
<totfact> 0.12769786E+04</totfact>
</mgrwt>
</event>
<event>
 8    1  0.7366917E-004  0.1001562E+03  0.7546771E-02  0.1281105E+00
         -1   -1    0    0    0  501 -0.00000000000E+00  0.00000000000E+00  0.12440404427E+03  0.12440404427E+03  0.00000000000E+00 0.  1.
          1   -1    0    0  501    0  0.00000000000E+00 -0.00000000000E+00 -0.79320951873E+02  0.79320951873E+02  0.00000000000E+00 0. -1.
         23    2    1    2    0    0 -0.23717896723E+02  0.25120349618E+02  0.15045767983E+02  0.99161600395E+02  0.91722828504E+02 0.  0.
         23    2    1    2    0    0  0.23717896723E+02 -0.25120349618E+02  0.30037324409E+02  0.10456339574E+03  0.94009001068E+02 0.  0.
          5    1    4    4  502    0  0.92260664999E+01  0.31255587060E+02 -0.92248861347E+01  0.34193867137E+02  0.47000000000E+01 0. -1.
         -5    1    3    3    0  503 -0.10801215819E+02  0.50363710370E+02 -0.18549433783E+02  0.54948531181E+02  0.47000000000E+01 0.  1.
          5    1    3    3  503    0 -0.12916680904E+02 -0.25243360752E+02  0.33595201765E+02  0.44213069214E+02  0.47000000000E+01 0. -1.
         -5    1    4    4    0  502  0.14491830223E+02 -0.56375936678E+02  0.39262210544E+02  0.70369528607E+02  0.47000000000E+01 0.  1.
<mgrwt>
<rscale>  0 0.99616170E+02</rscale>
<asrwt>0</asrwt>
<pdfrwt beam="1">  1        1 0.12203223E-01 0.10015619E+03</pdfrwt>
<pdfrwt beam="2">  1       -1 0.19139084E-01 0.10015619E+03</pdfrwt>
<totfact> 0.97277978E+03</totfact>
</mgrwt>
</event>
<event>
 8    1  0.7366917E-004  0.9527384E+02  0.7546771E-02  0.1291393E+00
         -2   -1    0    0    0  501 -0.00000000000E+00  0.00000000000E+00  0.28772410992E+02  0.28772410992E+02  0.00000000000E+00 0.  1.
          2   -1    0    0  501    0  0.00000000000E+00 -0.00000000000E+00 -0.31093080234E+03  0.31093080234E+03  0.00000000000E+00 0. -1.
         23    2    1    2    0    0  0.23114727393E+02  0.18427832561E+01 -0.14532809870E+03  0.17297098955E+03  0.90890156126E+02 0.  0.
         23    2    1    2    0    0 -0.23114727393E+02 -0.18427832561E+01 -0.13683029264E+03  0.16673222378E+03  0.92408976778E+02 0.  0.
          5    1    3    3  502    0 -0.29547997980E+02  0.21859661325E+02 -0.51911992563E+02  0.63779886717E+02  0.47000000000E+01 0. -1.
         -5    1    4    4    0  503  0.19313301368E+02 -0.20956616578E+02 -0.84454703037E+01  0.30093177911E+02  0.47000000000E+01 0.  1.
          5    1    4    4  503    0 -0.42428028762E+02  0.19113833322E+02 -0.12838482234E+03  0.13663904587E+03  0.47000000000E+01 0. -1.
         -5    1    3    3    0  502  0.52662725373E+02 -0.20016878069E+02 -0.93416106142E+02  0.10919110283E+03  0.47000000000E+01 0.  1.
<mgrwt>
<rscale>  0 0.94903586E+02</rscale>
<asrwt>0</asrwt>
<pdfrwt beam="1">  1        2 0.47835509E-01 0.95273845E+02</pdfrwt>
<pdfrwt beam="2">  1       -2 0.44265247E-02 0.95273845E+02</pdfrwt>
<totfact> 0.22307453E+04</totfact>
</mgrwt>
</event>
<event>
 8    1  0.7366917E-004  0.1377686E+03  0.7546771E-02  0.1216804E+00
          2   -1    0    0  501    0  0.00000000000E+00  0.00000000000E+00  0.13931632955E+04  0.13931632955E+04  0.00000000000E+00 0. -1.
         -2   -1    0    0    0  501 -0.00000000000E+00 -0.00000000000E+00 -0.13511998036E+02  0.13511998036E+02  0.00000000000E+00 0.  1.
         23    2    1    2    0    0 -0.56987244110E+02  0.84697743504E+02  0.66397548766E+03  0.67785978966E+03  0.90604594151E+02 0.  0.
         23    2    1    2    0    0  0.56987244110E+02 -0.84697743504E+02  0.71567580979E+03  0.72881550386E+03  0.92514432393E+02 0.  0.
          5    1    4    4  502    0  0.44272415903E+02 -0.66996830831E+02  0.69056896268E+03  0.69523823569E+03  0.47000000000E+01 0. -1.
         -5    1    4    4    0  502  0.12714828206E+02 -0.17700912673E+02  0.25106847112E+02  0.33577268169E+02  0.47000000000E+01 0.  1.
          5    1    3    3  503    0 -0.12196824236E+02 -0.18641122480E+02  0.14558644880E+03  0.14735588907E+03  0.47000000000E+01 0. -1.
         -5    1    3    3    0  503 -0.44790419874E+02  0.10333886598E+03  0.51838903886E+03  0.53050390059E+03  0.47000000000E+01 0.  1.
<mgrwt>
<rscale>  0 0.13744865E+03</rscale>
<asrwt>0</asrwt>
<pdfrwt beam="1">  1        2 0.21433270E+00 0.13776855E+03</pdfrwt>
<pdfrwt beam="2">  1       -2 0.20787700E-02 0.13776855E+03</pdfrwt>
<totfact> 0.11066041E+04</totfact>
</mgrwt>
</event>
<event>
 8    1  0.7366917E-004  0.1141695E+03  0.7546771E-02  0.1255372E+00
         -2   -1    0    0    0  501 -0.00000000000E+00  0.00000000000E+00  0.16005065058E+02  0.16005065058E+02  0.00000000000E+00 0.  1.
          2   -1    0    0  501    0  0.00000000000E+00 -0.00000000000E+00 -0.80116842313E+03  0.80116842313E+03  0.00000000000E+00 0. -1.
         23    2    1    2    0    0  0.12042425595E+02  0.58262783381E+02 -0.47092686409E+03  0.48456865981E+03  0.97442818135E+02 0.  0.
         23    2    1    2    0    0 -0.12042425595E+02 -0.58262783381E+02 -0.31423649398E+03  0.33260482838E+03  0.91333596063E+02 0.  0.
          5    1    3    3  502    0 -0.32716329539E+02  0.58513531857E+02 -0.23660209600E+03  0.24596104054E+03  0.47000000000E+01 0. -1.
         -5    1    4    4    0  503 -0.35903928021E+02 -0.65742932354E+02 -0.28038571805E+03  0.29025758576E+03  0.47000000000E+01 0.  1.
          5    1    4    4  503    0  0.23861502426E+02  0.74801489729E+01 -0.33850775931E+02  0.42347242623E+02  0.47000000000E+01 0. -1.
         -5    1    3    3    0  502  0.44758755134E+02 -0.25074847552E+00 -0.23432476809E+03  0.23860761928E+03  0.47000000000E+01 0.  1.
<mgrwt>
<rscale>  0 0.11285505E+03</rscale>
<asrwt>0</asrwt>
<pdfrwt beam="1">  1        2 0.12325668E+00 0.11416950E+03</pdfrwt>
<pdfrwt beam="2">  1       -2 0.24623178E-02 0.11416950E+03</pdfrwt>
<totfact> 0.18849093E+04</totfact>
</mgrwt>
</event>
<event>
 8    1  0.7366917E-004  0.1175007E+03  0.7546771E-02  0.1252365E+00
          2   -1    0    0  501    0  0.00000000000E+00  0.00000000000E+00  0.10188437885E+03  0.10188437885E+03  0.00000000000E+00 0. -1.
         -2   -1    0    0    0  501 -0.00000000000E+00 -0.00000000000E+00 -0.17958079262E+03  0.17958079262E+03  0.00000000000E+00 0.  1.
         23    2    1    2    0    0  0.49023879648E+02  0.23591171601E+02 -0.11931038918E+03  0.16745564300E+03  0.10414671984E+03 0.  0.
         23    2    1    2    0    0 -0.49023879648E+02 -0.23591171601E+02  0.41613975412E+02  0.11400952846E+03  0.91140361405E+02 0.  0.
          5    1    4    4  502    0 -0.62905336710E+02 -0.46345833052E+02  0.36895575153E+02  0.86535490372E+02  0.47000000000E+01 0. -1.
         -5    1    3    3    0  503  0.25826684446E+02  0.61607988175E+02 -0.95774672833E+02  0.11686504949E+03  0.47000000000E+01 0.  1.
          5    1    3    3  503    0  0.23197195203E+02 -0.38016816574E+02 -0.23535716348E+02  0.50590593510E+02  0.47000000000E+01 0. -1.
         -5    1    4    4    0  502  0.13881457062E+02  0.22754661451E+02  0.47184002586E+01  0.27474038089E+02  0.47000000000E+01 0.  1.
<mgrwt>
<rscale>  0 0.11455230E+03</rscale>
<asrwt>0</asrwt>
<pdfrwt beam="1">  1        2 0.15674520E-01 0.11750074E+03</pdfrwt>
<pdfrwt beam="2">  1       -2 0.27627814E-01 0.11750074E+03</pdfrwt>
<totfact> 0.41615284E+03</totfact>
</mgrwt>
</event>
<event>
 8    1  0.7366917E-004  0.9282940E+02  0.7546771E-02  0.1296335E+00
         -3   -1    0    0    0  501 -0.00000000000E+00  0.00000000000E+00  0.18249102624E+03  0.18249102624E+03  0.00000000000E+00 0.  1.
          3   -1    0    0  501    0  0.00000000000E+00 -0.00000000000E+00 -0.11373597766E+03  0.11373597766E+03  0.00000000000E+00 0. -1.
         23    2    1    2    0    0 -0.19970378252E+01 -0.14859896448E+02  0.14776436947E+03  0.17432634973E+03  0.91271915965E+02 0.  0.
         23    2    1    2    0    0  0.19970378252E+01  0.14859896448E+02 -0.79009320890E+02  0.12190065417E+03  0.91610545338E+02 0.  0.
          5    1    4    4  502    0  0.31359078024E+02 -0.24123732772E+02 -0.53280191370E+02  0.66529805724E+02  0.47000000000E+01 0. -1.
         -5    1    4    4    0  502 -0.29362040198E+02  0.38983629220E+02 -0.25729129521E+02  0.55370848446E+02  0.47000000000E+01 0.  1.
          5    1    3    3  503    0 -0.31613931064E+02  0.26125755176E+02  0.74677176571E+02  0.85327407212E+02  0.47000000000E+01 0. -1.
         -5    1    3    3    0  503  0.29616893239E+02 -0.40985651624E+02  0.73087192896E+02  0.88998942520E+02  0.47000000000E+01 0.  1.
<mgrwt>
<rscale>  0 0.92745741E+02</rscale>
<asrwt>0</asrwt>
<pdfrwt beam="1">  1        3 0.17497843E-01 0.92829396E+02</pdfrwt>
<pdfrwt beam="2">  1       -3 0.28075543E-01 0.92829396E+02</pdfrwt>
<totfact> 0.74866192E+02</totfact>
</mgrwt>
</event>
<event>
 8    1  0.7366917E-004  0.1207071E+03  0.7546771E-02  0.1242371E+00
         -1   -1    0    0    0  501 -0.00000000000E+00  0.00000000000E+00  0.67704423396E+02  0.67704423396E+02  0.00000000000E+00 0.  1.
          1   -1    0    0  501    0  0.00000000000E+00 -0.00000000000E+00 -0.25841879544E+03  0.25841879544E+03  0.00000000000E+00 0. -1.
         23    2    1    2    0    0 -0.72280450396E+02 -0.32105577600E+02 -0.16382380932E+03  0.20349065273E+03  0.91186477206E+02 0.  0.
         23    2    1    2    0    0  0.72280450396E+02  0.32105577600E+02 -0.26890562723E+02  0.12263256611E+03  0.89779798861E+02 0.  0.
          5    1    4    4  502    0  0.27494517043E+02  0.47797800609E+02 -0.45297273305E+02  0.71515810695E+02  0.47000000000E+01 0. -1.
         -5    1    4    4    0  502  0.44785933353E+02 -0.15692223009E+02  0.18406710582E+02  0.51116755411E+02  0.47000000000E+01 0.  1.
          5    1    3    3  503    0 -0.39527269699E+02 -0.59200209625E+02 -0.13248543149E+03  0.15047109166E+03  0.47000000000E+01 0. -1.
         -5    1    3    3    0  503 -0.32753180697E+02  0.27094632026E+02 -0.31338377828E+02  0.53019561063E+02  0.47000000000E+01 0.  1.
<mgrwt>
<rscale>  0 0.12044145E+03</rscale>
<asrwt>0</asrwt>
<pdfrwt beam="1">  1        1 0.39756738E-01 0.12070711E+03</pdfrwt>
<pdfrwt beam="2">  1       -1 0.10416065E-01 0.12070711E+03</pdfrwt>
<totfact> 0.57405818E+03</totfact>
</mgrwt>
</event>
<event>
 8    1  0.7366917E-004  0.1121823E+03  0.7546771E-02  0.1256613E+00
          1   -1    0    0  501    0  0.00000000000E+00  0.00000000000E+00  0.12704443397E+03  0.12704443397E+03  0.00000000000E+00 0. -1.
         -1   -1    0    0    0  501 -0.00000000000E+00 -0.00000000000E+00 -0.10193880360E+03  0.10193880360E+03  0.00000000000E+00 0.  1.
         23    2    1    2    0    0  0.15747558121E+02  0.62253432125E+02  0.31998130304E+02  0.11658940605E+03  0.91900673899E+02 0.  0.
         23    2    1    2    0    0 -0.15747558121E+02 -0.62253432125E+02 -0.68924999286E+01  0.11239383152E+03  0.91985821785E+02 0.  0.
          5    1    4    4  502    0  0.13380160096E+02 -0.21381331536E+02  0.37356758446E+02  0.45318952151E+02  0.47000000000E+01 0. -1.
         -5    1    3    3    0  503  0.24431773514E+02 -0.10656604680E+02  0.33413265754E+02  0.43000129171E+02  0.47000000000E+01 0.  1.
          5    1    3    3  503    0 -0.86842153938E+01  0.72910036805E+02 -0.14151354503E+01  0.73589276883E+02  0.47000000000E+01 0. -1.
         -5    1    4    4    0  502 -0.29127718216E+02 -0.40872100588E+02 -0.44249258375E+02  0.67074879364E+02  0.47000000000E+01 0.  1.
<mgrwt>
<rscale>  0 0.11216484E+03</rscale>
<asrwt>0</asrwt>
<pdfrwt beam="1">  1        1 0.19545297E-01 0.11218229E+03</pdfrwt>
<pdfrwt beam="2">  1       -1 0.15682893E-01 0.11218229E+03</pdfrwt>
<totfact> 0.73464900E+03</totfact>
</mgrwt>
</event>
<event>
 8    1  0.7366917E-004  0.1090041E+03  0.7546771E-02  0.1262494E+00
         -1   -1    0    0    0  501 -0.00000000000E+00  0.00000000000E+00  0.15536411590E+02  0.15536411590E+02  0.00000000000E+00 0.  1.
          1   -1    0    0  501    0  0.00000000000E+00 -0.00000000000E+00 -0.82272747463E+03  0.82272747463E+03  0.00000000000E+00 0. -1.
         23    2    1    2    0    0 -0.29133730360E+02 -0.51672550439E+02 -0.29162416999E+03  0.31133030747E+03  0.91449861185E+02 0.  0.
         23    2    1    2    0    0  0.29133730360E+02  0.51672550439E+02 -0.51556689305E+03  0.52693357875E+03  0.91274029693E+02 0.  0.
          5    1    3    3  502    0  0.21143432983E+02 -0.42186510759E+02 -0.20672564558E+03  0.21209509421E+03  0.47000000000E+01 0. -1.
         -5    1    3    3    0  502 -0.50277163342E+02 -0.94860396803E+01 -0.84898524413E+02  0.99235213257E+02  0.47000000000E+01 0.  1.
          5    1    4    4  503    0  0.61546092746E+02  0.26018557139E+02 -0.33574782339E+03  0.34236468533E+03  0.47000000000E+01 0. -1.
         -5    1    4    4    0  503 -0.32412362386E+02  0.25653993300E+02 -0.17981906966E+03  0.18456889342E+03  0.47000000000E+01 0.  1.
<mgrwt>
<rscale>  0 0.10896726E+03</rscale>
<asrwt>0</asrwt>
<pdfrwt beam="1">  1        1 0.12657344E+00 0.10900415E+03</pdfrwt>
<pdfrwt beam="2">  1       -1 0.23902175E-02 0.10900415E+03</pdfrwt>
<totfact> 0.10997448E+04</totfact>
</mgrwt>
</event>
<event>
 8    1  0.7366917E-004  0.1105644E+03  0.7546771E-02  0.1260264E+00
         -1   -1    0    0    0  501 -0.00000000000E+00  0.00000000000E+00  0.21144027088E+03  0.21144027088E+03  0.00000000000E+00 0.  1.
          1   -1    0    0  501    0  0.00000000000E+00 -0.00000000000E+00 -0.90122344150E+02  0.90122344150E+02  0.00000000000E+00 0. -1.
         23    2    1    2    0    0 -0.22621469476E+02  0.55505378198E+02 -0.30488636349E+02  0.11469110074E+03  0.92908093045E+02 0.  0.
         23    2    1    2    0    0  0.22621469476E+02 -0.55505378198E+02  0.15180656308E+03  0.18687151429E+03  0.91011825428E+02 0.  0.
          5    1    3    3  502    0  0.94139026897E+00 -0.22330624604E+02 -0.23754541451E+02  0.32953167532E+02  0.47000000000E+01 0. -1.
         -5    1    3    3    0  502 -0.23562859745E+02  0.77836002803E+02 -0.67340948977E+01  0.81737933212E+02  0.47000000000E+01 0.  1.
          5    1    4    4  503    0  0.53033940043E+02 -0.56664279988E+02  0.10102053063E+03  0.12747814335E+03  0.47000000000E+01 0. -1.
         -5    1    4    4    0  503 -0.30412470567E+02  0.11589017901E+01  0.50786032449E+02  0.59393370937E+02  0.47000000000E+01 0.  1.
<mgrwt>
<rscale>  0 0.11016512E+03</rscale>
<asrwt>0</asrwt>
<pdfrwt beam="1">  1        1 0.13864976E-01 0.11056442E+03</pdfrwt>
<pdfrwt beam="2">  1       -1 0.32529272E-01 0.11056442E+03</pdfrwt>
<totfact> 0.34925636E+03</totfact>
</mgrwt>
</event>
<event>
 8    1  0.7366917E-004  0.9837473E+02  0.7546771E-02  0.1284479E+00
          1   -1    0    0  501    0  0.00000000000E+00  0.00000000000E+00  0.45502759128E+03  0.45502759128E+03  0.00000000000E+00 0. -1.
         -1   -1    0    0    0  501 -0.00000000000E+00 -0.00000000000E+00 -0.47233419560E+02  0.47233419560E+02  0.00000000000E+00 0.  1.
         23    2    1    2    0    0  0.16697138905E+02 -0.15357122644E+02  0.16043813975E+02  0.98347740752E+02  0.94341075257E+02 0.  0.
         23    2    1    2    0    0 -0.16697138905E+02  0.15357122644E+02  0.39175035774E+03  0.40391327009E+03  0.95723305919E+02 0.  0.
          5    1    3    3  502    0 -0.21516211007E+02  0.48012105343E+01  0.42043631307E+02  0.47704883315E+02  0.47000000000E+01 0. -1.
         -5    1    3    3    0  502  0.38213349912E+02 -0.20158333178E+02 -0.25999817332E+02  0.50642857436E+02  0.47000000000E+01 0.  1.
          5    1    4    4  503    0  0.32976598867E+02  0.22782270425E+02  0.10003364208E+03  0.10786708241E+03  0.47000000000E+01 0. -1.
         -5    1    4    4    0  503 -0.49673737772E+02 -0.74251477813E+01  0.29171671566E+03  0.29604618768E+03  0.47000000000E+01 0.  1.
<mgrwt>
<rscale>  0 0.98036878E+02</rscale>
<asrwt>0</asrwt>
<pdfrwt beam="1">  1        1 0.70004242E-01 0.98374727E+02</pdfrwt>
<pdfrwt beam="2">  1       -1 0.72666803E-02 0.98374727E+02</pdfrwt>
<totfact> 0.48325539E+03</totfact>
</mgrwt>
</event>
<event>
 8    1  0.7366917E-004  0.1088542E+03  0.7546771E-02  0.1265494E+00
          3   -1    0    0  501    0  0.00000000000E+00  0.00000000000E+00  0.50783307045E+02  0.50783307045E+02  0.00000000000E+00 0. -1.
         -3   -1    0    0    0  501 -0.00000000000E+00 -0.00000000000E+00 -0.31772414763E+03  0.31772414763E+03  0.00000000000E+00 0.  1.
         23    2    1    2    0    0  0.26643931994E+02 -0.54161713470E+02 -0.29377430022E+02  0.10719230328E+03  0.83568930653E+02 0.  0.
         23    2    1    2    0    0 -0.26643931994E+02  0.54161713470E+02 -0.23756341056E+03  0.26131515139E+03  0.90586113675E+02 0.  0.
          5    1    3    3  502    0  0.30771251263E+01 -0.72533047091E+02 -0.22768253719E+02  0.76229882571E+02  0.47000000000E+01 0. -1.
         -5    1    3    3    0  502  0.23566806867E+02  0.18371333622E+02 -0.66091763032E+01  0.30962420712E+02  0.47000000000E+01 0.  1.
          5    1    4    4  503    0 -0.19286087001E+01  0.21068751137E+02 -0.16149550460E+01  0.21732691637E+02  0.47000000000E+01 0. -1.
         -5    1    4    4    0  503 -0.24715323294E+02  0.33092962332E+02 -0.23594845551E+03  0.23958245975E+03  0.47000000000E+01 0.  1.
<mgrwt>
<rscale>  0 0.10738311E+03</rscale>
<asrwt>0</asrwt>
<pdfrwt beam="1">  1        3 0.78128164E-02 0.10885419E+03</pdfrwt>
<pdfrwt beam="2">  1       -3 0.48880639E-01 0.10885419E+03</pdfrwt>
<totfact> 0.10303182E+03</totfact>
</mgrwt>
</event>
<event>
 8    1  0.7366917E-004  0.9231062E+02  0.7546771E-02  0.1297707E+00
          1   -1    0    0  501    0  0.00000000000E+00  0.00000000000E+00  0.49364279332E+03  0.49364279332E+03  0.00000000000E+00 0. -1.
         -1   -1    0    0    0  501 -0.00000000000E+00 -0.00000000000E+00 -0.17148592691E+02  0.17148592691E+02  0.00000000000E+00 0.  1.
         23    2    1    2    0    0 -0.31515099062E+01  0.71286427254E+01  0.23887057798E+03  0.25608671019E+03  0.91980979295E+02 0.  0.
         23    2    1    2    0    0  0.31515099062E+01 -0.71286427254E+01  0.23762362265E+03  0.25470467582E+03  0.91371419383E+02 0.  0.
          5    1    4    4  502    0 -0.10561097146E+02 -0.40620090170E+02  0.19037626071E+03  0.19500445928E+03  0.47000000000E+01 0. -1.
         -5    1    3    3    0  503  0.28796759586E+02 -0.28855703980E+02  0.78397753401E+02  0.88488432878E+02  0.47000000000E+01 0.  1.
          5    1    3    3  503    0 -0.31948269492E+02  0.35984346705E+02  0.16047282458E+03  0.16759827732E+03  0.47000000000E+01 0. -1.
         -5    1    4    4    0  502  0.13712607052E+02  0.33491447445E+02  0.47247361948E+02  0.59700216542E+02  0.47000000000E+01 0.  1.
<mgrwt>
<rscale>  0 0.92158399E+02</rscale>
<asrwt>0</asrwt>
<pdfrwt beam="1">  1        1 0.75945034E-01 0.92310618E+02</pdfrwt>
<pdfrwt beam="2">  1       -1 0.26382454E-02 0.92310618E+02</pdfrwt>
<totfact> 0.19023196E+04</totfact>
</mgrwt>
</event>
<event>
 8    1  0.7366917E-004  0.1068549E+03  0.7546771E-02  0.1267642E+00
          4   -1    0    0  501    0  0.00000000000E+00  0.00000000000E+00  0.10349785851E+03  0.10349785851E+03  0.00000000000E+00 0. -1.
         -4   -1    0    0    0  501 -0.00000000000E+00 -0.00000000000E+00 -0.11082020503E+03  0.11082020503E+03  0.00000000000E+00 0.  1.
         23    2    1    2    0    0  0.42257632328E+02 -0.31006693416E+02 -0.20930272559E+02  0.10660018770E+03  0.90434513217E+02 0.  0.
         23    2    1    2    0    0 -0.42257632328E+02  0.31006693416E+02  0.13607926037E+02  0.10771787584E+03  0.93117359276E+02 0.  0.
          5    1    4    4  502    0 -0.57491557387E+02 -0.13102028758E+02  0.14116492831E+02  0.60813713077E+02  0.47000000000E+01 0. -1.
         -5    1    4    4    0  502  0.15233925059E+02  0.44108722174E+02 -0.50856679445E+00  0.46904162765E+02  0.47000000000E+01 0.  1.
          5    1    3    3  503    0  0.23565214103E+02 -0.45735930539E+01  0.34466988506E+02  0.42264646761E+02  0.47000000000E+01 0. -1.
         -5    1    3    3    0  503  0.18692418225E+02 -0.26433100362E+02 -0.55397261065E+02  0.64335540935E+02  0.47000000000E+01 0.  1.
<mgrwt>
<rscale>  0 0.10626764E+03</rscale>
<asrwt>0</asrwt>
<pdfrwt beam="1">  1        4 0.15922747E-01 0.10685488E+03</pdfrwt>
<pdfrwt beam="2">  1       -4 0.17049262E-01 0.10685488E+03</pdfrwt>
<totfact> 0.15870964E+03</totfact>
</mgrwt>
</event>
<event>
 8    1  0.7366917E-004  0.9346073E+02  0.7546771E-02  0.1295901E+00
          2   -1    0    0  501    0  0.00000000000E+00  0.00000000000E+00  0.10228452361E+03  0.10228452361E+03  0.00000000000E+00 0.  1.
         -2   -1    0    0    0  501 -0.00000000000E+00 -0.00000000000E+00 -0.84224251390E+02  0.84224251390E+02  0.00000000000E+00 0. -1.
         23    2    1    2    0    0  0.25274631003E+01  0.98051377817E+01  0.17597922912E+02  0.93046897286E+02  0.90804787358E+02 0.  0.
         23    2    1    2    0    0 -0.25274631003E+01 -0.98051377817E+01  0.46234931014E+00  0.93461877716E+02  0.92910602316E+02 0.  0.
          5    1    4    4  502    0 -0.69851431777E+01 -0.46165859621E+02  0.20764948544E+02  0.51316195375E+02  0.47000000000E+01 0. -1.
         -5    1    4    4    0  502  0.44576800774E+01  0.36360721839E+02 -0.20302599234E+02  0.42145682341E+02  0.47000000000E+01 0.  1.
          5    1    3    3  503    0  0.10003577031E+02 -0.21426618430E+02  0.44684016178E+02  0.50773249183E+02  0.47000000000E+01 0.  1.
         -5    1    3    3    0  503 -0.74761139306E+01  0.31231756212E+02 -0.27086093266E+02  0.42273648103E+02  0.47000000000E+01 0. -1.
<mgrwt>
<rscale>  0 0.92932997E+02</rscale>
<asrwt>0</asrwt>
<pdfrwt beam="1">  1        2 0.15736080E-01 0.93460734E+02</pdfrwt>
<pdfrwt beam="2">  1       -2 0.12957577E-01 0.93460734E+02</pdfrwt>
<totfact> 0.14427289E+04</totfact>
</mgrwt>
</event>
<event>
 7    1  0.7366917E-004  0.1364482E+03  0.7546771E-02  0.1241984E+00
         -1   -1    0    0    0  501 -0.00000000000E+00  0.00000000000E+00  0.49232072216E+02  0.49232072216E+02  0.00000000000E+00 0.  1.
          1   -1    0    0  501    0  0.00000000000E+00 -0.00000000000E+00 -0.31374120943E+03  0.31374120943E+03  0.00000000000E+00 0. -1.
         23    2    1    2    0    0  0.40164585264E+01 -0.14396174528E+02 -0.18994344975E+03  0.20748004534E+03  0.82134483200E+02 0.  0.
          5    1    3    3  502    0 -0.58028234642E+01 -0.41343272286E+02 -0.53753797165E+02  0.68223893418E+02  0.47000000000E+01 0. -1.
         -5    1    1    2    0  503  0.55782404445E+02 -0.57747218935E+01  0.18097482354E+01  0.56306209669E+02  0.47000000000E+01 0.  1.
          5    1    1    2  503    0 -0.59798862972E+02  0.20170896422E+02 -0.76375435701E+02  0.99187026640E+02  0.47000000000E+01 0. -1.
         -5    1    3    3    0  502  0.98192819906E+01  0.26947097758E+02 -0.13618965258E+03  0.13925615192E+03  0.47000000000E+01 0.  1.
<mgrwt>
<rscale>  0 0.12067732E+03</rscale>
<asrwt>0</asrwt>
<pdfrwt beam="1">  1        1 0.48267879E-01 0.13644818E+03</pdfrwt>
<pdfrwt beam="2">  1       -1 0.75741648E-02 0.13644818E+03</pdfrwt>
<totfact> 0.73799049E+03</totfact>
</mgrwt>
</event>
<event>
 7    1  0.7366917E-004  0.2001349E+03  0.7546771E-02  0.1159702E+00
         -1   -1    0    0    0  501 -0.00000000000E+00  0.00000000000E+00  0.60736058601E+03  0.60736058601E+03  0.00000000000E+00 0.  1.
          1   -1    0    0  501    0  0.00000000000E+00 -0.00000000000E+00 -0.18855935654E+03  0.18855935654E+03  0.00000000000E+00 0. -1.
         23    2    1    2    0    0 -0.12681954447E+03 -0.15046962443E+02  0.53954310146E+03  0.56218381162E+03  0.92920782260E+02 0.  0.
          5    1    1    2  502    0  0.16080994565E+03 -0.11424300943E+01 -0.10775161923E+03  0.19363275863E+03  0.47000000000E+01 0. -1.
         -5    1    3    3    0  503 -0.11616444773E+03 -0.37992172035E+02  0.50188951483E+03  0.51657793135E+03  0.47000000000E+01 0.  1.
          5    1    3    3  503    0 -0.10655096735E+02  0.22945209593E+02  0.37653586622E+02  0.45605880270E+02  0.47000000000E+01 0. -1.
         -5    1    1    2    0  502 -0.33990401184E+02  0.16189392537E+02 -0.12990252753E+02  0.40103372302E+02  0.47000000000E+01 0.  1.
<mgrwt>
<rscale>  0 0.18863081E+03</rscale>
<asrwt>0</asrwt>
<pdfrwt beam="1">  1        1 0.29009132E-01 0.20013490E+03</pdfrwt>
<pdfrwt beam="2">  1       -1 0.93440090E-01 0.20013490E+03</pdfrwt>
<totfact> 0.18783454E+02</totfact>
</mgrwt>
</event>
<event>
 8    1  0.7366917E-004  0.1028399E+03  0.7546771E-02  0.1275562E+00
          1   -1    0    0  501    0  0.00000000000E+00  0.00000000000E+00  0.60799435386E+03  0.60799435386E+03  0.00000000000E+00 0. -1.
         -1   -1    0    0    0  501 -0.00000000000E+00 -0.00000000000E+00 -0.34819726352E+02  0.34819726352E+02  0.00000000000E+00 0.  1.
         23    2    1    2    0    0 -0.51485921868E+02 -0.24212086238E+01  0.51483370503E+03  0.52457826154E+03  0.86440420169E+02 0.  0.
         23    2    1    2    0    0  0.51485921868E+02  0.24212086238E+01  0.58340922471E+02  0.11823581867E+03  0.88990916278E+02 0.  0.
          5    1    3    3  502    0 -0.20957694557E+02  0.38565436149E+02  0.32281758383E+03  0.32582173079E+03  0.47000000000E+01 0. -1.
         -5    1    4    4    0  503  0.51501651640E+02 -0.36585727456E+02  0.32377293260E+02  0.71142917384E+02  0.47000000000E+01 0.  1.
          5    1    4    4  503    0 -0.15729771208E-01  0.39006936080E+02  0.25963629211E+02  0.47092901286E+02  0.47000000000E+01 0. -1.
         -5    1    3    3    0  502 -0.30528227312E+02 -0.40986644773E+02  0.19201612120E+03  0.19875653075E+03  0.47000000000E+01 0.  1.
<mgrwt>
<rscale>  0 0.10228571E+03</rscale>
<asrwt>0</asrwt>
<pdfrwt beam="1">  1        1 0.93537585E-01 0.10283990E+03</pdfrwt>
<pdfrwt beam="2">  1       -1 0.53568814E-02 0.10283990E+03</pdfrwt>
<totfact> 0.52125182E+03</totfact>
</mgrwt>
</event>
<event>
 8    1  0.7366917E-004  0.1626310E+03  0.7546771E-02  0.1186080E+00
          1   -1    0    0  501    0  0.00000000000E+00  0.00000000000E+00  0.88673871591E+02  0.88673871591E+02  0.00000000000E+00 0. -1.
         -1   -1    0    0    0  501 -0.00000000000E+00 -0.00000000000E+00 -0.42848283329E+03  0.42848283329E+03  0.00000000000E+00 0.  1.
         23    2    1    2    0    0  0.15685818076E+02 -0.13384803782E+03 -0.31402924737E+03  0.35364275206E+03  0.91035629088E+02 0.  0.
         23    2    1    2    0    0 -0.15685818076E+02  0.13384803782E+03 -0.25779714328E+02  0.16351395282E+03  0.88943110921E+02 0.  0.
          5    1    4    4  502    0 -0.49780472493E+02  0.10452057821E+03 -0.13434931179E+02  0.11664147670E+03  0.47000000000E+01 0. -1.
         -5    1    3    3    0  503 -0.51396292995E+01 -0.12822833375E+03 -0.20130845340E+03  0.23878045309E+03  0.47000000000E+01 0.  1.
          5    1    3    3  503    0  0.20825447376E+02 -0.56197040685E+01 -0.11272079397E+03  0.11486229897E+03  0.47000000000E+01 0. -1.
         -5    1    4    4    0  502  0.34094654417E+02  0.29327459611E+02 -0.12344783149E+02  0.46872476125E+02  0.47000000000E+01 0.  1.
<mgrwt>
<rscale>  0 0.16233967E+03</rscale>
<asrwt>0</asrwt>
<pdfrwt beam="1">  1        1 0.13642134E-01 0.16263096E+03</pdfrwt>
<pdfrwt beam="2">  1       -1 0.65920434E-01 0.16263096E+03</pdfrwt>
<totfact> 0.10121747E+03</totfact>
</mgrwt>
</event>
<event>
 8    1  0.7366917E-004  0.1510903E+03  0.7546771E-02  0.1199164E+00
          1   -1    0    0  501    0  0.00000000000E+00  0.00000000000E+00  0.23548129662E+03  0.23548129662E+03  0.00000000000E+00 0. -1.
         -1   -1    0    0    0  501 -0.00000000000E+00 -0.00000000000E+00 -0.96930023393E+02  0.96930023393E+02  0.00000000000E+00 0.  1.
         23    2    1    2    0    0 -0.11539043186E+03 -0.33500470489E+02  0.65939306440E+02  0.16477841426E+03  0.91469669195E+02 0.  0.
         23    2    1    2    0    0  0.11539043186E+03  0.33500470489E+02  0.72611966785E+02  0.16763290576E+03  0.91602729672E+02 0.  0.
          5    1    3    3  502    0 -0.85122664741E+02  0.16613869886E+02  0.60381006977E+02  0.10578206241E+03  0.47000000000E+01 0. -1.
         -5    1    4    4    0  503  0.84793443530E+02 -0.16249749197E+02  0.65778320159E+02  0.10864096749E+03  0.47000000000E+01 0.  1.
          5    1    4    4  503    0  0.30596988333E+02  0.49750219687E+02  0.68336466253E+01  0.58991938264E+02  0.47000000000E+01 0. -1.
         -5    1    3    3    0  502 -0.30267767122E+02 -0.50114340375E+02  0.55582994637E+01  0.58996351842E+02  0.47000000000E+01 0.  1.
<mgrwt>
<rscale>  0 0.15107019E+03</rscale>
<asrwt>0</asrwt>
<pdfrwt beam="1">  1        1 0.36227892E-01 0.15109035E+03</pdfrwt>
<pdfrwt beam="2">  1       -1 0.14912311E-01 0.15109035E+03</pdfrwt>
<totfact> 0.37444132E+03</totfact>
</mgrwt>
</event>
<event>
 8    1  0.7366917E-004  0.1125415E+03  0.7546771E-02  0.1256008E+00
         -2   -1    0    0    0  501 -0.00000000000E+00  0.00000000000E+00  0.42627946738E+02  0.42627946738E+02  0.00000000000E+00 0.  1.
          2   -1    0    0  501    0  0.00000000000E+00 -0.00000000000E+00 -0.61448910746E+03  0.61448910746E+03  0.00000000000E+00 0. -1.
         23    2    1    2    0    0  0.28867285308E+02 -0.59132408475E+02 -0.49747465637E+02  0.12304636236E+03  0.91299699120E+02 0.  0.
         23    2    1    2    0    0 -0.28867285308E+02  0.59132408475E+02 -0.52211369509E+03  0.53407069184E+03  0.91097922002E+02 0.  0.
          5    1    4    4  502    0  0.16615895281E+02  0.52885412481E+02 -0.39379379053E+03  0.39770415423E+03  0.47000000000E+01 0. -1.
         -5    1    3    3    0  503  0.50449982323E+02 -0.47273758271E+02 -0.22444179478E+01  0.69333515340E+02  0.47000000000E+01 0.  1.
          5    1    3    3  503    0 -0.21582697016E+02 -0.11858650204E+02 -0.47503047689E+02  0.53712847019E+02  0.47000000000E+01 0. -1.
         -5    1    4    4    0  502 -0.45483180588E+02  0.62469959937E+01 -0.12831990455E+03  0.13636653761E+03  0.47000000000E+01 0.  1.
<mgrwt>
<rscale>  0 0.11250060E+03</rscale>
<asrwt>0</asrwt>
<pdfrwt beam="1">  1        2 0.94536788E-01 0.11254153E+03</pdfrwt>
<pdfrwt beam="2">  1       -2 0.65581455E-02 0.11254153E+03</pdfrwt>
<totfact> 0.60354426E+03</totfact>
</mgrwt>
</event>
<event>
 8    1  0.7366917E-004  0.9711952E+02  0.7546771E-02  0.1286748E+00
          2   -1    0    0  501    0  0.00000000000E+00  0.00000000000E+00  0.36798699673E+03  0.36798699673E+03  0.00000000000E+00 0. -1.
         -2   -1    0    0    0  501 -0.00000000000E+00 -0.00000000000E+00 -0.31748832391E+02  0.31748832391E+02  0.00000000000E+00 0.  1.
         23    2    1    2    0    0  0.96635668979E+01  0.32703271243E+02  0.79093204708E+02  0.12486180080E+03  0.90398262113E+02 0.  0.
         23    2    1    2    0    0 -0.96635668979E+01 -0.32703271243E+02  0.25714495964E+03  0.27487402832E+03  0.90935761425E+02 0.  0.
          5    1    3    3  502    0  0.37933579161E+02 -0.14916914816E+02  0.34321990142E+02  0.53493548983E+02  0.47000000000E+01 0. -1.
         -5    1    3    3    0  502 -0.28270012263E+02  0.47620186060E+02  0.44771214566E+02  0.71368251817E+02  0.47000000000E+01 0.  1.
          5    1    4    4  503    0  0.80329438659E+01  0.22589260331E+02  0.15806557564E+03  0.15994254929E+03  0.47000000000E+01 0. -1.
         -5    1    4    4    0  503 -0.17696510764E+02 -0.55292531574E+02  0.99079383995E+02  0.11493147904E+03  0.47000000000E+01 0.  1.
<mgrwt>
<rscale>  0 0.96993502E+02</rscale>
<asrwt>0</asrwt>
<pdfrwt beam="1">  1        2 0.56613381E-01 0.97119520E+02</pdfrwt>
<pdfrwt beam="2">  1       -2 0.48844360E-02 0.97119520E+02</pdfrwt>
<totfact> 0.16186900E+04</totfact>
</mgrwt>
</event>
<event>
 8    1  0.7366917E-004  0.1072646E+03  0.7546771E-02  0.1266615E+00
          1   -1    0    0  501    0  0.00000000000E+00  0.00000000000E+00  0.16939170132E+02  0.16939170132E+02  0.00000000000E+00 0. -1.
         -1   -1    0    0    0  501 -0.00000000000E+00 -0.00000000000E+00 -0.92743074105E+03  0.92743074105E+03  0.00000000000E+00 0.  1.
         23    2    1    2    0    0  0.49673747773E+02  0.19479450656E+02 -0.20245742091E+03  0.22825675692E+03  0.90913198066E+02 0.  0.
         23    2    1    2    0    0 -0.49673747773E+02 -0.19479450656E+02 -0.70803415001E+03  0.71611315426E+03  0.93052468599E+02 0.  0.
          5    1    4    4  502    0  0.24803436207E+02 -0.22828130516E+01 -0.95357965688E+02  0.98669414224E+02  0.47000000000E+01 0. -1.
         -5    1    4    4    0  502 -0.74477183980E+02 -0.17196637604E+02 -0.61267618432E+03  0.61744374004E+03  0.47000000000E+01 0.  1.
          5    1    3    3  503    0  0.50183049718E+02 -0.25901627948E+02 -0.84113375939E+02  0.10142180644E+03  0.47000000000E+01 0. -1.
         -5    1    3    3    0  503 -0.50930194490E+00  0.45381078604E+02 -0.11834404497E+03  0.12683495048E+03  0.47000000000E+01 0.  1.
<mgrwt>
<rscale>  0 0.10679895E+03</rscale>
<asrwt>0</asrwt>
<pdfrwt beam="1">  1        1 0.26060260E-02 0.10726459E+03</pdfrwt>
<pdfrwt beam="2">  1       -1 0.14268166E+00 0.10726459E+03</pdfrwt>
<totfact> 0.17204289E+03</totfact>
</mgrwt>
</event>
<event>
 8    1  0.7366917E-004  0.1050560E+03  0.7546771E-02  0.1270986E+00
         -1   -1    0    0    0  501 -0.00000000000E+00  0.00000000000E+00  0.45831549872E+03  0.45831549872E+03  0.00000000000E+00 0.  1.
          1   -1    0    0  501    0  0.00000000000E+00 -0.00000000000E+00 -0.92503380871E+02  0.92503380871E+02  0.00000000000E+00 0. -1.
         23    2    1    2    0    0 -0.35806118784E+02 -0.32967436281E+02  0.42010063345E+03  0.43256487486E+03  0.90878483352E+02 0.  0.
         23    2    1    2    0    0  0.35806118784E+02  0.32967436281E+02 -0.54288515609E+02  0.11825400473E+03  0.93101217552E+02 0.  0.
          5    1    3    3  502    0  0.18743380855E+02  0.19357225923E+02  0.11354154662E+03  0.11678950865E+03  0.47000000000E+01 0. -1.
         -5    1    3    3    0  502 -0.54549499639E+02 -0.52324662204E+02  0.30655908683E+03  0.31577536621E+03  0.47000000000E+01 0.  1.
          5    1    4    4  503    0  0.12739445268E+02  0.21193838036E+02 -0.78533462571E+02  0.82468581774E+02  0.47000000000E+01 0. -1.
         -5    1    4    4    0  503  0.23066673516E+02  0.11773598245E+02  0.24244946962E+02  0.35785422953E+02  0.47000000000E+01 0.  1.
<mgrwt>
<rscale>  0 0.10456137E+03</rscale>
<asrwt>0</asrwt>
<pdfrwt beam="1">  1        1 0.14231290E-01 0.10505602E+03</pdfrwt>
<pdfrwt beam="2">  1       -1 0.70510076E-01 0.10505602E+03</pdfrwt>
<totfact> 0.83170375E+02</totfact>
</mgrwt>
</event>
<event>
 8    1  0.7366917E-004  0.9667842E+02  0.7546771E-02  0.1289786E+00
         -3   -1    0    0    0  501 -0.00000000000E+00  0.00000000000E+00  0.21846203422E+03  0.21846203422E+03  0.00000000000E+00 0.  1.
          3   -1    0    0  501    0  0.00000000000E+00 -0.00000000000E+00 -0.45454338640E+02  0.45454338640E+02  0.00000000000E+00 0. -1.
         23    2    1    2    0    0 -0.10368784551E+02  0.15205038971E+01  0.12970131630E+03  0.16176881292E+03  0.96108760052E+02 0.  0.
         23    2    1    2    0    0  0.10368784551E+02 -0.15205038971E+01  0.43306379278E+02  0.10214755994E+03  0.91917669084E+02 0.  0.
          5    1    4    4  502    0 -0.20062368108E+02  0.78343212018E+01 -0.20868586182E+02  0.30355610552E+02  0.47000000000E+01 0. -1.
         -5    1    3    3    0  503  0.22392160065E+02 -0.25266942699E+02  0.10942027529E+03  0.11460677934E+03  0.47000000000E+01 0.  1.
          5    1    3    3  503    0 -0.32760944615E+02  0.26787446596E+02  0.20281041010E+02  0.47162033583E+02  0.47000000000E+01 0. -1.
         -5    1    4    4    0  502  0.30431152658E+02 -0.93548250989E+01  0.64174965460E+02  0.71791949385E+02  0.47000000000E+01 0.  1.
<mgrwt>
<rscale>  0 0.95619843E+02</rscale>
<asrwt>0</asrwt>
<pdfrwt beam="1">  1        3 0.69929753E-02 0.96678423E+02</pdfrwt>
<pdfrwt beam="2">  1       -3 0.33609543E-01 0.96678423E+02</pdfrwt>
<totfact> 0.24706912E+03</totfact>
</mgrwt>
</event>
<event>
 8    1  0.7366917E-004  0.1631785E+03  0.7546771E-02  0.1185363E+00
         -2   -1    0    0    0  501 -0.00000000000E+00  0.00000000000E+00  0.44371304347E+02  0.44371304347E+02  0.00000000000E+00 0.  1.
          2   -1    0    0  501    0  0.00000000000E+00 -0.00000000000E+00 -0.13555685245E+04  0.13555685245E+04  0.00000000000E+00 0. -1.
         23    2    1    2    0    0  0.58250003855E+02 -0.12146142168E+03 -0.11784361475E+04  0.11895765177E+04  0.90744684719E+02 0.  0.
         23    2    1    2    0    0 -0.58250003855E+02  0.12146142168E+03 -0.13276107272E+03  0.21036331122E+03  0.92093867181E+02 0.  0.
          5    1    4    4  502    0  0.10337930320E+02  0.59473363599E+02 -0.18501053813E+02  0.63311395288E+02  0.47000000000E+01 0. -1.
         -5    1    3    3    0  503  0.69127096747E+02 -0.51752232642E+02 -0.49556446727E+03  0.50305375489E+03  0.47000000000E+01 0.  1.
          5    1    3    3  503    0 -0.10877092892E+02 -0.69709189039E+02 -0.68287168020E+03  0.68652276277E+03  0.47000000000E+01 0. -1.
         -5    1    4    4    0  502 -0.68587934175E+02  0.61988058082E+02 -0.11426001891E+03  0.14705191593E+03  0.47000000000E+01 0.  1.
<mgrwt>
<rscale>  0 0.16298875E+03</rscale>
<asrwt>0</asrwt>
<pdfrwt beam="1">  1        2 0.20854896E+00 0.16317849E+03</pdfrwt>
<pdfrwt beam="2">  1       -2 0.68263561E-02 0.16317849E+03</pdfrwt>
<totfact> 0.19818047E+03</totfact>
</mgrwt>
</event>
<event>
 8    1  0.7366917E-004  0.9440015E+02  0.7546771E-02  0.1293386E+00
          3   -1    0    0  501    0  0.00000000000E+00  0.00000000000E+00  0.69511195074E+02  0.69511195074E+02  0.00000000000E+00 0. -1.
         -3   -1    0    0    0  501 -0.00000000000E+00 -0.00000000000E+00 -0.21932270044E+03  0.21932270044E+03  0.00000000000E+00 0.  1.
         23    2    1    2    0    0  0.16088808496E+02  0.13673246284E+02  0.18859968723E+02  0.96265704474E+02  0.92008586636E+02 0.  0.
         23    2    1    2    0    0 -0.16088808496E+02 -0.13673246284E+02 -0.16867147409E+03  0.19256819104E+03  0.90480023245E+02 0.  0.
          5    1    4    4  502    0 -0.39956136774E+02  0.21009995372E+02 -0.55303525016E+02  0.71543571693E+02  0.47000000000E+01 0. -1.
         -5    1    3    3    0  503  0.50527754881E+02  0.23692594916E+02  0.12133487079E+01  0.56017455157E+02  0.47000000000E+01 0.  1.
          5    1    3    3  503    0 -0.34438946385E+02 -0.10019348633E+02  0.17646620015E+02  0.40248249317E+02  0.47000000000E+01 0. -1.
         -5    1    4    4    0  502  0.23867328279E+02 -0.34683241656E+02 -0.11336794908E+03  0.12102461935E+03  0.47000000000E+01 0.  1.
<mgrwt>
<rscale>  0 0.94025620E+02</rscale>
<asrwt>0</asrwt>
<pdfrwt beam="1">  1        3 0.10694030E-01 0.94400145E+02</pdfrwt>
<pdfrwt beam="2">  1       -3 0.33741954E-01 0.94400145E+02</pdfrwt>
<totfact> 0.12255876E+03</totfact>
</mgrwt>
</event>
<event>
 8    1  0.7366917E-004  0.9486562E+02  0.7546771E-02  0.1291956E+00
          1   -1    0    0  501    0  0.00000000000E+00  0.00000000000E+00  0.35663098891E+02  0.35663098891E+02  0.00000000000E+00 0. -1.
         -1   -1    0    0    0  501 -0.00000000000E+00 -0.00000000000E+00 -0.25271411035E+03  0.25271411035E+03  0.00000000000E+00 0.  1.
         23    2    1    2    0    0  0.21953598893E+02 -0.14318423427E+02 -0.12267406538E+03  0.15456206066E+03  0.90296879931E+02 0.  0.
         23    2    1    2    0    0 -0.21953598893E+02  0.14318423427E+02 -0.94376946081E+02  0.13381514858E+03  0.91172958077E+02 0.  0.
          5    1    4    4  502    0  0.10144252359E+02 -0.31020481879E+02 -0.59584900215E+02  0.68100121039E+02  0.47000000000E+01 0. -1.
         -5    1    4    4    0  502 -0.32097851251E+02  0.45338905306E+02 -0.34792045867E+02  0.65715027542E+02  0.47000000000E+01 0.  1.
          5    1    3    3  503    0  0.97010946552E+01 -0.38389800599E+02 -0.13653868445E+02  0.42147433505E+02  0.47000000000E+01 0. -1.
         -5    1    3    3    0  503  0.12252504237E+02  0.24071377173E+02 -0.10902019693E+03  0.11241462715E+03  0.47000000000E+01 0.  1.
<mgrwt>
<rscale>  0 0.94654501E+02</rscale>
<asrwt>0</asrwt>
<pdfrwt beam="1">  1        1 0.54866306E-02 0.94865621E+02</pdfrwt>
<pdfrwt beam="2">  1       -1 0.38879094E-01 0.94865621E+02</pdfrwt>
<totfact> 0.86771098E+03</totfact>
</mgrwt>
</event>
<event>
 8    1  0.7366917E-004  0.1473484E+03  0.7546771E-02  0.1206578E+00
          1   -1    0    0  501    0  0.00000000000E+00  0.00000000000E+00  0.58116652996E+03  0.58116652996E+03  0.00000000000E+00 0. -1.
         -1   -1    0    0    0  501 -0.00000000000E+00 -0.00000000000E+00 -0.38802173193E+02  0.38802173193E+02  0.00000000000E+00 0.  1.
         23    2    1    2    0    0 -0.95467315138E+02  0.47349411605E+02  0.35816851744E+03  0.38408811122E+03  0.88786346144E+02 0.  0.
         23    2    1    2    0    0  0.95467315138E+02 -0.47349411605E+02  0.18419583933E+03  0.23588059193E+03  0.10176232792E+03 0.  0.
          5    1    4    4  502    0  0.16676016447E+02 -0.55079447043E+02  0.36706128528E+02  0.68419769677E+02  0.47000000000E+01 0. -1.
         -5    1    4    4    0  502  0.78791298690E+02  0.77300354373E+01  0.14748971080E+03  0.16746082225E+03  0.47000000000E+01 0.  1.
          5    1    3    3  503    0 -0.38525069181E+02  0.46981496102E+02  0.28399416016E+03  0.29045862861E+03  0.47000000000E+01 0. -1.
         -5    1    3    3    0  503 -0.56942245957E+02  0.36791550310E+00  0.74174357281E+02  0.93629482614E+02  0.47000000000E+01 0.  1.
<mgrwt>
<rscale>  0 0.14513823E+03</rscale>
<asrwt>0</asrwt>
<pdfrwt beam="1">  1        1 0.89410229E-01 0.14734838E+03</pdfrwt>
<pdfrwt beam="2">  1       -1 0.59695655E-02 0.14734838E+03</pdfrwt>
<totfact> 0.48077311E+03</totfact>
</mgrwt>
</event>
<event>
 8    1  0.7366917E-004  0.1238134E+03  0.7546771E-02  0.1238927E+00
         -1   -1    0    0    0  501 -0.00000000000E+00  0.00000000000E+00  0.19699186137E+02  0.19699186137E+02  0.00000000000E+00 0.  1.
          1   -1    0    0  501    0  0.00000000000E+00 -0.00000000000E+00 -0.76047842513E+03  0.76047842513E+03  0.00000000000E+00 0. -1.
         23    2    1    2    0    0  0.75198769723E+02 -0.23732538644E+02 -0.42863673984E+03  0.44616051352E+03  0.95455019344E+02 0.  0.
         23    2    1    2    0    0 -0.75198769723E+02  0.23732538644E+02 -0.31214249915E+03  0.33401709775E+03  0.88974116777E+02 0.  0.
          5    1    3    3  502    0  0.55137505400E+02 -0.46333807119E+02 -0.15685162015E+03  0.17266003281E+03  0.47000000000E+01 0. -1.
         -5    1    3    3    0  502  0.20061264323E+02  0.22601268476E+02 -0.27178511969E+03  0.27350048071E+03  0.47000000000E+01 0.  1.
          5    1    4    4  503    0 -0.47245498804E+02  0.55975519940E+02 -0.16190212318E+03  0.17776327933E+03  0.47000000000E+01 0. -1.
         -5    1    4    4    0  503 -0.27953270919E+02 -0.32242981297E+02 -0.15024037597E+03  0.15625381842E+03  0.47000000000E+01 0.  1.
<mgrwt>
<rscale>  0 0.12256335E+03</rscale>
<asrwt>0</asrwt>
<pdfrwt beam="1">  1        1 0.11699667E+00 0.12381336E+03</pdfrwt>
<pdfrwt beam="2">  1       -1 0.30306444E-02 0.12381336E+03</pdfrwt>
<totfact> 0.88466279E+03</totfact>
</mgrwt>
</event>
<event>
 8    1  0.7366917E-004  0.9603116E+02  0.7546771E-02  0.1289816E+00
          1   -1    0    0  501    0  0.00000000000E+00  0.00000000000E+00  0.82432157632E+02  0.82432157632E+02  0.00000000000E+00 0. -1.
         -1   -1    0    0    0  501 -0.00000000000E+00 -0.00000000000E+00 -0.11372734098E+03  0.11372734098E+03  0.00000000000E+00 0.  1.
         23    2    1    2    0    0  0.23981117102E+02 -0.44077754916E+01 -0.33733728096E+02  0.10178382588E+03  0.92884123168E+02 0.  0.
         23    2    1    2    0    0 -0.23981117102E+02  0.44077754916E+01  0.24385447517E+01  0.94375672731E+02  0.91138897517E+02 0.  0.
          5    1    3    3  502    0  0.14418215314E+02 -0.38042294753E+02  0.13235553888E+02  0.43039179937E+02  0.47000000000E+01 0. -1.
         -5    1    3    3    0  502  0.95629017883E+01  0.33634519261E+02 -0.46969281984E+02  0.58744645940E+02  0.47000000000E+01 0.  1.
          5    1    4    4  503    0 -0.68620320409E+01 -0.40396328972E+02  0.16114253812E+02  0.44279905760E+02  0.47000000000E+01 0. -1.
         -5    1    4    4    0  503 -0.17119085061E+02  0.44804104464E+02 -0.13675709060E+02  0.50095766971E+02  0.47000000000E+01 0.  1.
<mgrwt>
<rscale>  0 0.95606600E+02</rscale>
<asrwt>0</asrwt>
<pdfrwt beam="1">  1        1 0.12681870E-01 0.96031155E+02</pdfrwt>
<pdfrwt beam="2">  1       -1 0.17496514E-01 0.96031155E+02</pdfrwt>
<totfact> 0.10621594E+04</totfact>
</mgrwt>
</event>
<event>
 8    1  0.7366917E-004  0.1199027E+03  0.7546771E-02  0.1243517E+00
          1   -1    0    0  501    0  0.00000000000E+00  0.00000000000E+00  0.96490350640E+03  0.96490350640E+03  0.00000000000E+00 0. -1.
         -1   -1    0    0    0  501 -0.00000000000E+00 -0.00000000000E+00 -0.69472041825E+02  0.69472041825E+02  0.00000000000E+00 0.  1.
         23    2    1    2    0    0 -0.76844328700E+02 -0.36648642310E+00 -0.10744547726E+02  0.12038319148E+03  0.92040655803E+02 0.  0.
         23    2    1    2    0    0  0.76844328700E+02  0.36648642310E+00  0.90617601230E+03  0.91399235674E+03  0.91224326487E+02 0.  0.
          5    1    4    4  502    0  0.75234225863E+02 -0.35272052941E+02  0.61815427098E+03  0.62373159227E+03  0.47000000000E+01 0. -1.
         -5    1    3    3    0  503 -0.70607855625E+02 -0.30319990086E+02 -0.31428213804E+02  0.83154035967E+02  0.47000000000E+01 0.  1.
          5    1    3    3  503    0 -0.62364730748E+01  0.29953503663E+02  0.20683666078E+02  0.37229155517E+02  0.47000000000E+01 0.  1.
         -5    1    4    4    0  502  0.16101028364E+01  0.35638539365E+02  0.28802174132E+03  0.29026076447E+03  0.47000000000E+01 0.  1.
<mgrwt>
<rscale>  0 0.11974606E+03</rscale>
<asrwt>0</asrwt>
<pdfrwt beam="1">  1        1 0.14844668E+00 0.11990274E+03</pdfrwt>
<pdfrwt beam="2">  1       -1 0.10688007E-01 0.11990274E+03</pdfrwt>
<totfact> 0.94033147E+02</totfact>
</mgrwt>
</event>
<event>
 8    1  0.7366917E-004  0.9909148E+02  0.7546771E-02  0.1282798E+00
         -1   -1    0    0    0  501 -0.00000000000E+00  0.00000000000E+00  0.12395046354E+03  0.12395046354E+03  0.00000000000E+00 0.  1.
          1   -1    0    0  501    0  0.00000000000E+00 -0.00000000000E+00 -0.78929469864E+02  0.78929469864E+02  0.00000000000E+00 0. -1.
         23    2    1    2    0    0 -0.19817120342E+02 -0.33112789726E+02  0.13733391647E+02  0.98966342011E+02  0.90091929176E+02 0.  0.
         23    2    1    2    0    0  0.19817120342E+02  0.33112789726E+02  0.31287602031E+02  0.10391359139E+03  0.91268534192E+02 0.  0.
          5    1    4    4  502    0  0.32151603069E+02  0.16131751939E+02 -0.24732846048E+02  0.43906294243E+02  0.47000000000E+01 0. -1.
         -5    1    3    3    0  503 -0.50388433613E+02 -0.34309481731E+02 -0.72520393024E+01  0.61569609814E+02  0.47000000000E+01 0.  1.
          5    1    3    3  503    0  0.30571313271E+02  0.11966920049E+01  0.20985430949E+02  0.37396732197E+02  0.47000000000E+01 0. -1.
         -5    1    4    4    0  502 -0.12334482727E+02  0.16981037788E+02  0.56020448079E+02  0.60007297152E+02  0.47000000000E+01 0.  1.
<mgrwt>
<rscale>  0 0.98819698E+02</rscale>
<asrwt>0</asrwt>
<pdfrwt beam="1">  1        1 0.12142995E-01 0.99091475E+02</pdfrwt>
<pdfrwt beam="2">  1       -1 0.19069302E-01 0.99091475E+02</pdfrwt>
<totfact> 0.98377839E+03</totfact>
</mgrwt>
</event>
<event>
 8    1  0.7366917E-004  0.9529035E+02  0.7546771E-02  0.1292191E+00
          1   -1    0    0  501    0  0.00000000000E+00  0.00000000000E+00  0.69885579676E+02  0.69885579676E+02  0.00000000000E+00 0. -1.
         -1   -1    0    0    0  501 -0.00000000000E+00 -0.00000000000E+00 -0.13564751737E+03  0.13564751737E+03  0.00000000000E+00 0.  1.
         23    2    1    2    0    0 -0.16582809844E+02  0.36751405111E+00 -0.59167997249E+01  0.95473871217E+02  0.93835637778E+02 0.  0.
         23    2    1    2    0    0  0.16582809844E+02 -0.36751405111E+00 -0.59845137969E+02  0.11005922583E+03  0.90865108829E+02 0.  0.
          5    1    4    4  502    0  0.60163704673E+01 -0.33245633771E+02 -0.66349871364E+02  0.74604720417E+02  0.47000000000E+01 0.  1.
         -5    1    3    3    0  503 -0.20776801594E+02 -0.35178776997E+02  0.24842564300E+02  0.48046486203E+02  0.47000000000E+01 0.  1.
          5    1    3    3  503    0  0.41939917496E+01  0.35546291048E+02 -0.30759364025E+02  0.47427385014E+02  0.47000000000E+01 0. -1.
         -5    1    4    4    0  502  0.10566439377E+02  0.32878119720E+02  0.65047333953E+01  0.35454505412E+02  0.47000000000E+01 0. -1.
<mgrwt>
<rscale>  0 0.94550857E+02</rscale>
<asrwt>0</asrwt>
<pdfrwt beam="1">  1        1 0.10751628E-01 0.95290354E+02</pdfrwt>
<pdfrwt beam="2">  1       -1 0.20868848E-01 0.95290354E+02</pdfrwt>
<totfact> 0.99510399E+03</totfact>
</mgrwt>
</event>
<event>
 8    1  0.7366917E-004  0.1170908E+03  0.7546771E-02  0.1248100E+00
          2   -1    0    0  501    0  0.00000000000E+00  0.00000000000E+00  0.38904687543E+03  0.38904687543E+03  0.00000000000E+00 0. -1.
         -2   -1    0    0    0  501 -0.00000000000E+00 -0.00000000000E+00 -0.35290408549E+02  0.35290408549E+02  0.00000000000E+00 0.  1.
         23    2    1    2    0    0 -0.70662693248E+02 -0.62728749059E+01  0.19037970904E+03  0.22350547861E+03  0.93154174234E+02 0.  0.
         23    2    1    2    0    0  0.70662693248E+02  0.62728749059E+01  0.16337675784E+03  0.20083180537E+03  0.92784071205E+02 0.  0.
          5    1    4    4  502    0  0.30129510320E+02  0.36330266058E+02  0.13423953785E+03  0.14237281744E+03  0.47000000000E+01 0. -1.
         -5    1    4    4    0  502  0.40533182928E+02 -0.30057391152E+02  0.29137219994E+02  0.58458987933E+02  0.47000000000E+01 0.  1.
          5    1    3    3  503    0  0.16513657171E+02  0.11857984137E+02  0.11972533464E+02  0.24057103286E+02  0.47000000000E+01 0. -1.
         -5    1    3    3    0  503 -0.87176350419E+02 -0.18130859043E+02  0.17840717558E+03  0.19944837532E+03  0.47000000000E+01 0.  1.
<mgrwt>
<rscale>  0 0.11701722E+03</rscale>
<asrwt>0</asrwt>
<pdfrwt beam="1">  1        2 0.59853362E-01 0.11709084E+03</pdfrwt>
<pdfrwt beam="2">  1       -2 0.54292939E-02 0.11709084E+03</pdfrwt>
<totfact> 0.13251032E+04</totfact>
</mgrwt>
</event>
<event>
 8    1  0.7366917E-004  0.2374560E+03  0.7546771E-02  0.1121599E+00
          2   -1    0    0  501    0  0.00000000000E+00  0.00000000000E+00  0.33017796346E+03  0.33017796346E+03  0.00000000000E+00 0. -1.
         -2   -1    0    0    0  501 -0.00000000000E+00 -0.00000000000E+00 -0.18274822718E+03  0.18274822718E+03  0.00000000000E+00 0.  1.
         23    2    1    2    0    0  0.19665940635E+03  0.96931653626E+02  0.14060073504E+03  0.27596003682E+03  0.91185018778E+02 0.  0.
         23    2    1    2    0    0 -0.19665940635E+03 -0.96931653626E+02  0.68290012427E+01  0.23696615381E+03  0.89641816222E+02 0.  0.
          5    1    4    4  502    0 -0.80245258573E+02 -0.88997401453E+02  0.78705926386E+01  0.12018267436E+03  0.47000000000E+01 0. -1.
         -5    1    4    4    0  502 -0.11641414778E+03 -0.79342521736E+01 -0.10415913960E+01  0.11678347945E+03  0.47000000000E+01 0.  1.
          5    1    3    3  503    0  0.14362227572E+03  0.24523621743E+02  0.10321331221E+03  0.17861647159E+03  0.47000000000E+01 0. -1.
         -5    1    3    3    0  503  0.53037130632E+02  0.72408031883E+02  0.37387422832E+02  0.97343565236E+02  0.47000000000E+01 0.  1.
<mgrwt>
<rscale>  0 0.23730883E+03</rscale>
<asrwt>0</asrwt>
<pdfrwt beam="1">  1        2 0.50796610E-01 0.23745605E+03</pdfrwt>
<pdfrwt beam="2">  1       -2 0.28115112E-01 0.23745605E+03</pdfrwt>
<totfact> 0.11324568E+03</totfact>
</mgrwt>
</event>
<event>
 8    1  0.7366917E-004  0.9859900E+02  0.7546771E-02  0.1285609E+00
          1   -1    0    0  501    0  0.00000000000E+00  0.00000000000E+00  0.43335641045E+02  0.43335641045E+02  0.00000000000E+00 0. -1.
         -1   -1    0    0    0  501 -0.00000000000E+00 -0.00000000000E+00 -0.24976376649E+03  0.24976376649E+03  0.00000000000E+00 0.  1.
         23    2    1    2    0    0  0.66135641213E+01  0.32725805927E+02 -0.15611992118E+03  0.18240759114E+03  0.88229144361E+02 0.  0.
         23    2    1    2    0    0 -0.66135641213E+01 -0.32725805927E+02 -0.50308204268E+02  0.11069181639E+03  0.92774162327E+02 0.  0.
          5    1    3    3  502    0 -0.16169138742E+02 -0.20294518136E+02 -0.16119142765E+02  0.30906718970E+02  0.47000000000E+01 0. -1.
         -5    1    3    3    0  502  0.22782702863E+02  0.53020324063E+02 -0.14000077841E+03  0.15150087217E+03  0.47000000000E+01 0.  1.
          5    1    4    4  503    0  0.19291289665E+02 -0.46429976421E+02  0.20137111741E+01  0.50537526652E+02  0.47000000000E+01 0. -1.
         -5    1    4    4    0  503 -0.25904853786E+02  0.13704170493E+02 -0.52321915442E+02  0.60154289740E+02  0.47000000000E+01 0.  1.
<mgrwt>
<rscale>  0 0.97515273E+02</rscale>
<asrwt>0</asrwt>
<pdfrwt beam="1">  1        1 0.66670216E-02 0.98599000E+02</pdfrwt>
<pdfrwt beam="2">  1       -1 0.38425195E-01 0.98599000E+02</pdfrwt>
<totfact> 0.68384401E+03</totfact>
</mgrwt>
</event>
<event>
 8    1  0.7366917E-004  0.1017116E+03  0.7546771E-02  0.1277750E+00
         -1   -1    0    0    0  501 -0.00000000000E+00  0.00000000000E+00  0.10365532697E+03  0.10365532697E+03  0.00000000000E+00 0.  1.
          1   -1    0    0  501    0  0.00000000000E+00 -0.00000000000E+00 -0.98642218342E+02  0.98642218342E+02  0.00000000000E+00 0. -1.
         23    2    1    2    0    0  0.33159986767E+02  0.18169863589E+02  0.11306625494E+02  0.10233811640E+03  0.94422039927E+02 0.  0.
         23    2    1    2    0    0 -0.33159986767E+02 -0.18169863589E+02 -0.62935168682E+01  0.99959428905E+02  0.92317660322E+02 0.  0.
          5    1    4    4  502    0 -0.49528061324E+02  0.23051828928E+02 -0.75008599940E+01  0.55342285606E+02  0.47000000000E+01 0. -1.
         -5    1    4    4    0  502  0.16368074558E+02 -0.41221692517E+02  0.12073431258E+01  0.44617143298E+02  0.47000000000E+01 0.  1.
          5    1    3    3  503    0  0.31426469531E+01  0.42014301693E+02 -0.25095879766E+02  0.49264296990E+02  0.47000000000E+01 0. -1.
         -5    1    3    3    0  503  0.30017339814E+02 -0.23844438105E+02  0.36402505260E+02  0.53073819414E+02  0.47000000000E+01 0.  1.
<mgrwt>
<rscale>  0 0.10122043E+03</rscale>
<asrwt>0</asrwt>
<pdfrwt beam="1">  1        1 0.15175726E-01 0.10171160E+03</pdfrwt>
<pdfrwt beam="2">  1       -1 0.15946973E-01 0.10171160E+03</pdfrwt>
<totfact> 0.97984582E+03</totfact>
</mgrwt>
</event>
<event>
 8    1  0.7366917E-004  0.1028521E+03  0.7546771E-02  0.1276826E+00
         -1   -1    0    0    0  501 -0.00000000000E+00  0.00000000000E+00  0.48272884696E+03  0.48272884696E+03  0.00000000000E+00 0.  1.
          1   -1    0    0  501    0  0.00000000000E+00 -0.00000000000E+00 -0.31947826682E+02  0.31947826682E+02  0.00000000000E+00 0. -1.
         23    2    1    2    0    0  0.42826676180E+02 -0.10589830806E+02  0.77737540342E+02  0.12892505613E+03  0.92910043644E+02 0.  0.
         23    2    1    2    0    0 -0.42826676180E+02  0.10589830806E+02  0.37304347993E+03  0.38575161751E+03  0.87730289995E+02 0.  0.
          5    1    4    4  502    0 -0.91284700710E+01 -0.26625360790E+02  0.41312003385E+02  0.50209664675E+02  0.47000000000E+01 0. -1.
         -5    1    3    3    0  503  0.58516172882E+02  0.19476808945E+02  0.70762594936E+02  0.93983633774E+02  0.47000000000E+01 0.  1.
          5    1    3    3  503    0 -0.15689496701E+02 -0.30066639751E+02  0.69749454061E+01  0.34941422353E+02  0.47000000000E+01 0. -1.
         -5    1    4    4    0  502 -0.33698206109E+02  0.37215191596E+02  0.33173147655E+03  0.33554195283E+03  0.47000000000E+01 0.  1.
<mgrwt>
<rscale>  0 0.10166829E+03</rscale>
<asrwt>0</asrwt>
<pdfrwt beam="1">  1        1 0.49150506E-02 0.10285205E+03</pdfrwt>
<pdfrwt beam="2">  1       -1 0.74265971E-01 0.10285205E+03</pdfrwt>
<totfact> 0.30701783E+03</totfact>
</mgrwt>
</event>
<event>
 8    1  0.9851635E-004  0.9444689E+02  0.7546771E-02  0.1292743E+00
         -3   -1    0    0    0  501 -0.00000000000E+00  0.00000000000E+00  0.25442806661E+03  0.25442806661E+03  0.00000000000E+00 0.  1.
          3   -1    0    0  501    0  0.00000000000E+00 -0.00000000000E+00 -0.10317847919E+03  0.10317847919E+03  0.00000000000E+00 0. -1.
         23    2    1    2    0    0 -0.14785545343E+02 -0.21256885575E+02 -0.69952624445E+02  0.11708495762E+03  0.90249931289E+02 0.  0.
         23    2    1    2    0    0  0.14785545343E+02  0.21256885575E+02  0.22120221187E+03  0.24052158819E+03  0.90828125122E+02 0.  0.
          5    1    3    3  502    0 -0.27858655260E+02 -0.37338469148E+02 -0.80677900547E+02  0.93280649590E+02  0.47000000000E+01 0. -1.
         -5    1    4    4    0  503 -0.66766013857E+01  0.49837125677E+02  0.78540167600E+02  0.93375393057E+02  0.47000000000E+01 0.  1.
          5    1    4    4  503    0  0.21462146728E+02 -0.28580240102E+02  0.14266204427E+03  0.14714619513E+03  0.47000000000E+01 0. -1.
         -5    1    3    3    0  502  0.13073109918E+02  0.16081583573E+02  0.10725276102E+02  0.23804308026E+02  0.47000000000E+01 0.  1.
<mgrwt>
<rscale>  0 0.94307610E+02</rscale>
<asrwt>0</asrwt>
<pdfrwt beam="1">  1        3 0.15873612E-01 0.94446894E+02</pdfrwt>
<pdfrwt beam="2">  1       -3 0.39142779E-01 0.94446894E+02</pdfrwt>
<totfact> 0.47824074E+02</totfact>
</mgrwt>
</event>
<event>
 8    1  0.7366917E-004  0.9428066E+02  0.7546771E-02  0.1295093E+00
         -1   -1    0    0    0  501 -0.00000000000E+00  0.00000000000E+00  0.40269719341E+02  0.40269719341E+02  0.00000000000E+00 0.  1.
          1   -1    0    0  501    0  0.00000000000E+00 -0.00000000000E+00 -0.36218561867E+03  0.36218561867E+03  0.00000000000E+00 0. -1.
         23    2    1    2    0    0 -0.16936093430E+02  0.68445547815E+01 -0.29231175618E+02  0.94960314012E+02  0.88483447144E+02 0.  0.
         23    2    1    2    0    0  0.16936093430E+02 -0.68445547815E+01 -0.29268472371E+03  0.30749502400E+03  0.92494124672E+02 0.  0.
          5    1    3    3  502    0 -0.30549089686E+02 -0.31077492474E+02 -0.32048786788E+02  0.54297994012E+02  0.47000000000E+01 0. -1.
         -5    1    3    3    0  502  0.13612996256E+02  0.37922047256E+02  0.28176111699E+01  0.40662320001E+02  0.47000000000E+01 0.  1.
          5    1    4    4  503    0  0.79998480838E+01 -0.33340630616E+02 -0.26701017895E+03  0.26924360881E+03  0.47000000000E+01 0. -1.
         -5    1    4    4    0  503  0.89362453460E+01  0.26496075834E+02 -0.25674544757E+02  0.38251415190E+02  0.47000000000E+01 0.  1.
<mgrwt>
<rscale>  0 0.93282069E+02</rscale>
<asrwt>0</asrwt>
<pdfrwt beam="1">  1        1 0.55720865E-01 0.94280657E+02</pdfrwt>
<pdfrwt beam="2">  1       -1 0.61953413E-02 0.94280657E+02</pdfrwt>
<totfact> 0.81165475E+03</totfact>
</mgrwt>
</event>
<event>
 8    1  0.7366917E-004  0.1056547E+03  0.7546771E-02  0.1271026E+00
          1   -1    0    0  501    0  0.00000000000E+00  0.00000000000E+00  0.10742023193E+03  0.10742023193E+03  0.00000000000E+00 0. -1.
         -1   -1    0    0    0  501 -0.00000000000E+00 -0.00000000000E+00 -0.99891038153E+02  0.99891038153E+02  0.00000000000E+00 0.  1.
         23    2    1    2    0    0  0.32592153770E+02  0.41780743544E+02 -0.13824266690E+01  0.10128142667E+03  0.86302591306E+02 0.  0.
         23    2    1    2    0    0 -0.32592153770E+02 -0.41780743544E+02  0.89116204452E+01  0.10602984341E+03  0.91405862488E+02 0.  0.
          5    1    4    4  502    0 -0.29475725327E+01 -0.58571212860E+02 -0.18905534255E+02  0.61796313686E+02  0.47000000000E+01 0. -1.
         -5    1    4    4    0  502 -0.29644581237E+02  0.16790469316E+02  0.27817154700E+02  0.44233529728E+02  0.47000000000E+01 0.  1.
          5    1    3    3  503    0 -0.24425455210E+02 -0.55095807539E+01  0.74213003221E+01  0.26535335701E+02  0.47000000000E+01 0. -1.
         -5    1    3    3    0  503  0.57017608980E+02  0.47290324298E+02 -0.88037269910E+01  0.74746090967E+02  0.47000000000E+01 0.  1.
<mgrwt>
<rscale>  0 0.10454154E+03</rscale>
<asrwt>0</asrwt>
<pdfrwt beam="1">  1        1 0.16526190E-01 0.10565468E+03</pdfrwt>
<pdfrwt beam="2">  1       -1 0.15367852E-01 0.10565468E+03</pdfrwt>
<totfact> 0.93397204E+03</totfact>
</mgrwt>
</event>
<event>
 8    1  0.7366917E-004  0.1063556E+03  0.7546771E-02  0.1267676E+00
         -1   -1    0    0    0  501 -0.00000000000E+00  0.00000000000E+00  0.85466263263E+02  0.85466263263E+02  0.00000000000E+00 0.  1.
          1   -1    0    0  501    0  0.00000000000E+00 -0.00000000000E+00 -0.16369578462E+03  0.16369578462E+03  0.00000000000E+00 0. -1.
         23    2    1    2    0    0  0.43957992317E+02  0.31367401945E+02  0.15916105389E+02  0.10712361193E+03  0.91136857688E+02 0.  0.
         23    2    1    2    0    0 -0.43957992317E+02 -0.31367401945E+02 -0.94145626747E+02  0.14203843595E+03  0.91625865663E+02 0.  0.
          5    1    4    4  502    0 -0.67508786484E+02 -0.42932042543E+01 -0.46560245098E+02  0.82254569957E+02  0.47000000000E+01 0. -1.
         -5    1    4    4    0  502  0.23550794167E+02 -0.27074197691E+02 -0.47585381649E+02  0.59783865994E+02  0.47000000000E+01 0.  1.
          5    1    3    3  503    0 -0.54918673785E+01  0.42741437118E+02  0.31783636913E+02  0.53752029074E+02  0.47000000000E+01 0. -1.
         -5    1    3    3    0  503  0.49449859696E+02 -0.11374035173E+02 -0.15867531524E+02  0.53371582858E+02  0.47000000000E+01 0.  1.
<mgrwt>
<rscale>  0 0.10625022E+03</rscale>
<asrwt>0</asrwt>
<pdfrwt beam="1">  1        1 0.25183967E-01 0.10635562E+03</pdfrwt>
<pdfrwt beam="2">  1       -1 0.13148656E-01 0.10635562E+03</pdfrwt>
<totfact> 0.69985458E+03</totfact>
</mgrwt>
</event>
<event>
 8    1  0.7366917E-004  0.1160206E+03  0.7546771E-02  0.1250999E+00
          3   -1    0    0  501    0  0.00000000000E+00  0.00000000000E+00  0.35093141518E+02  0.35093141518E+02  0.00000000000E+00 0. -1.
         -3   -1    0    0    0  501 -0.00000000000E+00 -0.00000000000E+00 -0.41564346304E+03  0.41564346304E+03  0.00000000000E+00 0.  1.
         23    2    1    2    0    0 -0.33524679167E+02 -0.59832693868E+02 -0.25903193303E+03  0.28272621350E+03  0.90181561890E+02 0.  0.
         23    2    1    2    0    0  0.33524679167E+02  0.59832693868E+02 -0.12151838849E+03  0.16801039105E+03  0.93578402375E+02 0.  0.
          5    1    4    4  502    0  0.20002949683E+02  0.39595331086E+02 -0.63744067736E+00  0.44613950401E+02  0.47000000000E+01 0. -1.
         -5    1    4    4    0  502  0.13521729484E+02  0.20237362782E+02 -0.12088094782E+03  0.12339644065E+03  0.47000000000E+01 0.  1.
          5    1    3    3  503    0 -0.25012826564E+02  0.11348416574E+02 -0.23407299379E+02  0.36392577756E+02  0.47000000000E+01 0. -1.
         -5    1    3    3    0  503 -0.85118526030E+01 -0.71181110442E+02 -0.23562463365E+03  0.24633363575E+03  0.47000000000E+01 0.  1.
<mgrwt>
<rscale>  0 0.11533400E+03</rscale>
<asrwt>0</asrwt>
<pdfrwt beam="1">  1        3 0.53989451E-02 0.11602057E+03</pdfrwt>
<pdfrwt beam="2">  1       -3 0.63945145E-01 0.11602057E+03</pdfrwt>
<totfact> 0.10911851E+03</totfact>
</mgrwt>
</event>
<event>
 8    1  0.7366917E-004  0.1194538E+03  0.7546771E-02  0.1244719E+00
          2   -1    0    0  501    0  0.00000000000E+00  0.00000000000E+00  0.52633387411E+03  0.52633387411E+03  0.00000000000E+00 0. -1.
         -2   -1    0    0    0  501 -0.00000000000E+00 -0.00000000000E+00 -0.36056438641E+02  0.36056438641E+02  0.00000000000E+00 0.  1.
         23    2    1    2    0    0  0.59752908040E+02  0.47723540131E+02  0.10075353925E+03  0.15496171199E+03  0.89520445755E+02 0.  0.
         23    2    1    2    0    0 -0.59752908040E+02 -0.47723540131E+02  0.38952389621E+03  0.40742860076E+03  0.91767383614E+02 0.  0.
          5    1    4    4  502    0 -0.61954565422E+02 -0.71007479940E+02  0.28482251315E+03  0.30004397075E+03  0.47000000000E+01 0. -1.
         -5    1    3    3    0  503  0.13593712227E+02  0.50775849244E+02  0.11042785050E+02  0.53916685546E+02  0.47000000000E+01 0.  1.
          5    1    3    3  503    0  0.46159195813E+02 -0.30523091125E+01  0.89710754204E+02  0.10104502644E+03  0.47000000000E+01 0. -1.
         -5    1    4    4    0  502  0.22016573814E+01  0.23283939808E+02  0.10470138306E+03  0.10738463001E+03  0.47000000000E+01 0.  1.
<mgrwt>
<rscale>  0 0.11902208E+03</rscale>
<asrwt>0</asrwt>
<pdfrwt beam="1">  1        2 0.80974436E-01 0.11945375E+03</pdfrwt>
<pdfrwt beam="2">  1       -2 0.55471448E-02 0.11945375E+03</pdfrwt>
<totfact> 0.92754648E+03</totfact>
</mgrwt>
</event>
<event>
 8    1  0.7366917E-004  0.1519979E+03  0.7546771E-02  0.1198394E+00
         -1   -1    0    0    0  501 -0.00000000000E+00  0.00000000000E+00  0.89613150256E+03  0.89613150256E+03  0.00000000000E+00 0.  1.
          1   -1    0    0  501    0  0.00000000000E+00 -0.00000000000E+00 -0.34566639022E+02  0.34566639022E+02  0.00000000000E+00 0. -1.
         23    2    1    2    0    0  0.11834157219E+03  0.23402436648E+02  0.66924720493E+03  0.68629088142E+03  0.92471351523E+02 0.  0.
         23    2    1    2    0    0 -0.11834157219E+03 -0.23402436648E+02  0.19231765861E+03  0.24440726017E+03  0.90534111039E+02 0.  0.
          5    1    3    3  502    0  0.76042306314E+02  0.56858283969E+02  0.35996071694E+03  0.37230243694E+03  0.47000000000E+01 0. -1.
         -5    1    3    3    0  502  0.42299265878E+02 -0.33455847321E+02  0.30928648799E+03  0.31398844448E+03  0.47000000000E+01 0.  1.
          5    1    4    4  503    0 -0.92919443632E+02  0.12648973709E+02  0.78973101803E+02  0.12269009882E+03  0.47000000000E+01 0. -1.
         -5    1    4    4    0  503 -0.25422128560E+02 -0.36051410358E+02  0.11334455680E+03  0.12171716134E+03  0.47000000000E+01 0.  1.
<mgrwt>
<rscale>  0 0.15170434E+03</rscale>
<asrwt>0</asrwt>
<pdfrwt beam="1">  1        1 0.53179452E-02 0.15199787E+03</pdfrwt>
<pdfrwt beam="2">  1       -1 0.13786637E+00 0.15199787E+03</pdfrwt>
<totfact> 0.71179963E+02</totfact>
</mgrwt>
</event>
<event>
 8    1  0.7366917E-004  0.2656185E+03  0.7546771E-02  0.1104025E+00
         -1   -1    0    0    0  501 -0.00000000000E+00  0.00000000000E+00  0.32433053578E+03  0.32433053578E+03  0.00000000000E+00 0.  1.
          1   -1    0    0  501    0  0.00000000000E+00 -0.00000000000E+00 -0.24971717268E+03  0.24971717268E+03  0.00000000000E+00 0. -1.
         23    2    1    2    0    0 -0.15129944448E+03 -0.19779536571E+03  0.14212753212E+03  0.29998317651E+03  0.88176766804E+02 0.  0.
         23    2    1    2    0    0  0.15129944448E+03  0.19779536571E+03 -0.67514169014E+02  0.27406453195E+03  0.92404956893E+02 0.  0.
          5    1    3    3  502    0  0.68386479699E+01 -0.39540760097E+02  0.21271788508E+02  0.45659805097E+02  0.47000000000E+01 0. -1.
         -5    1    4    4    0  503  0.22485857428E+02  0.77270458858E+02  0.10173106184E+02  0.81252198037E+02  0.47000000000E+01 0.  1.
          5    1    4    4  503    0  0.12881358705E+03  0.12052490685E+03 -0.77687275199E+02  0.19281233391E+03  0.47000000000E+01 0. -1.
         -5    1    3    3    0  502 -0.15813809245E+03 -0.15825460561E+03  0.12085574361E+03  0.25432337141E+03  0.47000000000E+01 0.  1.
<mgrwt>
<rscale>  0 0.26525750E+03</rscale>
<asrwt>0</asrwt>
<pdfrwt beam="1">  1        1 0.38418027E-01 0.26561853E+03</pdfrwt>
<pdfrwt beam="2">  1       -1 0.49897006E-01 0.26561853E+03</pdfrwt>
<totfact> 0.45833609E+02</totfact>
</mgrwt>
</event>
<event>
 8    1  0.7366917E-004  0.9787249E+02  0.7546771E-02  0.1285658E+00
         -4   -1    0    0    0  501 -0.00000000000E+00  0.00000000000E+00  0.10434087342E+02  0.10434087342E+02  0.00000000000E+00 0.  1.
          4   -1    0    0  501    0  0.00000000000E+00 -0.00000000000E+00 -0.93444774473E+03  0.93444774473E+03  0.00000000000E+00 0. -1.
         23    2    1    2    0    0  0.36377498021E+02  0.30168470198E+01 -0.37318615879E+03  0.38542677779E+03  0.89182219051E+02 0.  0.
         23    2    1    2    0    0 -0.36377498021E+02 -0.30168470198E+01 -0.55082749860E+03  0.55945505429E+03  0.90810796853E+02 0.  0.
          5    1    4    4  502    0 -0.63490637655E+02 -0.10965890835E+01 -0.27614231952E+03  0.28338830993E+03  0.47000000000E+01 0. -1.
         -5    1    3    3    0  503  0.61867036768E+02 -0.13503487407E+02 -0.28651580483E+03  0.29346766573E+03  0.47000000000E+01 0.  1.
          5    1    3    3  503    0 -0.25489538747E+02  0.16520334426E+02 -0.86670353960E+02  0.91959112059E+02  0.47000000000E+01 0. -1.
         -5    1    4    4    0  502  0.27113139634E+02 -0.19202579363E+01 -0.27468517908E+03  0.27606674435E+03  0.47000000000E+01 0.  1.
<mgrwt>
<rscale>  0 0.97493000E+02</rscale>
<asrwt>0</asrwt>
<pdfrwt beam="1">  1        4 0.14376120E+00 0.97872491E+02</pdfrwt>
<pdfrwt beam="2">  1       -4 0.16052441E-02 0.97872491E+02</pdfrwt>
<totfact> 0.78406766E+02</totfact>
</mgrwt>
</event>
<event>
 8    1  0.7366917E-004  0.9181778E+02  0.7546771E-02  0.1299000E+00
         -1   -1    0    0    0  501 -0.00000000000E+00  0.00000000000E+00  0.12972620957E+03  0.12972620957E+03  0.00000000000E+00 0.  1.
          1   -1    0    0  501    0  0.00000000000E+00 -0.00000000000E+00 -0.23183003304E+03  0.23183003304E+03  0.00000000000E+00 0. -1.
         23    2    1    2    0    0  0.19167819486E+01  0.13128410252E+02  0.10264237184E+03  0.13716482381E+03  0.90015016454E+02 0.  0.
         23    2    1    2    0    0 -0.19167819486E+01 -0.13128410252E+02 -0.20474619530E+03  0.22439141880E+03  0.90854142066E+02 0.  0.
          5    1    3    3  502    0 -0.43735593900E+02  0.86684807438E+01  0.52740137681E+02  0.69221072332E+02  0.47000000000E+01 0. -1.
         -5    1    4    4    0  503  0.21792886734E+02 -0.27112994633E+01 -0.51159318931E+01  0.23033536769E+02  0.47000000000E+01 0.  1.
          5    1    4    4  503    0 -0.23709668683E+02 -0.10417110789E+02 -0.19963026341E+03  0.20135788203E+03  0.47000000000E+01 0. -1.
         -5    1    3    3    0  502  0.45652375849E+02  0.44599295087E+01  0.49902234155E+02  0.67943751483E+02  0.47000000000E+01 0.  1.
<mgrwt>
<rscale>  0 0.91609511E+02</rscale>
<asrwt>0</asrwt>
<pdfrwt beam="1">  1        1 0.35666158E-01 0.91817778E+02</pdfrwt>
<pdfrwt beam="2">  1       -1 0.19957879E-01 0.91817778E+02</pdfrwt>
<totfact> 0.23514932E+03</totfact>
</mgrwt>
</event>
<event>
 8    1  0.7366917E-004  0.3009447E+03  0.7546771E-02  0.1084774E+00
          3   -1    0    0  501    0  0.00000000000E+00  0.00000000000E+00  0.46816491087E+03  0.46816491087E+03  0.00000000000E+00 0. -1.
         -3   -1    0    0    0  501 -0.00000000000E+00 -0.00000000000E+00 -0.19409028452E+03  0.19409028452E+03  0.00000000000E+00 0.  1.
         23    2    1    2    0    0  0.12934151512E+02 -0.28678466934E+03  0.11767134849E+03  0.32309491743E+03  0.90172282693E+02 0.  0.
         23    2    1    2    0    0 -0.12934151512E+02  0.28678466934E+03  0.15640327787E+03  0.33916027796E+03  0.90304872382E+02 0.  0.
          5    1    3    3  502    0 -0.27477562113E+02 -0.13050476380E+03  0.21588014517E+02  0.13518373483E+03  0.47000000000E+01 0.  1.
         -5    1    3    3    0  502  0.40411713625E+02 -0.15627990555E+03  0.96083333970E+02  0.18791118259E+03  0.47000000000E+01 0. -1.
          5    1    4    4  503    0 -0.32164230418E+02  0.27667979247E+03  0.14211686701E+03  0.31273877145E+03  0.47000000000E+01 0. -1.
         -5    1    4    4    0  503  0.19230078906E+02  0.10104876874E+02  0.14286410858E+02  0.26421506516E+02  0.47000000000E+01 0.  1.
<mgrwt>
<rscale>  0 0.30093475E+03</rscale>
<asrwt>0</asrwt>
<pdfrwt beam="1">  1        3 0.72025371E-01 0.30094469E+03</pdfrwt>
<pdfrwt beam="2">  1       -3 0.29860044E-01 0.30094469E+03</pdfrwt>
<totfact> 0.50951755E+01</totfact>
</mgrwt>
</event>
<event>
 8    1  0.7366917E-004  0.1371880E+03  0.7546771E-02  0.1218882E+00
          3   -1    0    0  501    0  0.00000000000E+00  0.00000000000E+00  0.28907201788E+03  0.28907201788E+03  0.00000000000E+00 0. -1.
         -3   -1    0    0    0  501 -0.00000000000E+00 -0.00000000000E+00 -0.64260821096E+02  0.64260821096E+02  0.00000000000E+00 0.  1.
         23    2    1    2    0    0  0.74782616000E+02 -0.61686008818E+02  0.87872245307E+02  0.16291741761E+03  0.97071881236E+02 0.  0.
         23    2    1    2    0    0 -0.74782616000E+02  0.61686008818E+02  0.13693895147E+03  0.19041542136E+03  0.90045282613E+02 0.  0.
          5    1    3    3  502    0  0.34723145532E+02  0.17853242239E+02  0.24132253821E+01  0.39399857244E+02  0.47000000000E+01 0. -1.
         -5    1    3    3    0  502  0.40059470468E+02 -0.79539251057E+02  0.85459019925E+02  0.12351756037E+03  0.47000000000E+01 0.  1.
          5    1    4    4  503    0 -0.67963458010E+02  0.31202790450E+02  0.13988498491E+03  0.15869009030E+03  0.47000000000E+01 0. -1.
         -5    1    4    4    0  503 -0.68191579900E+01  0.30483218368E+02 -0.29460334354E+01  0.31725331058E+02  0.47000000000E+01 0.  1.
<mgrwt>
<rscale>  0 0.13595174E+03</rscale>
<asrwt>0</asrwt>
<pdfrwt beam="1">  1        3 0.44472617E-01 0.13718802E+03</pdfrwt>
<pdfrwt beam="2">  1       -3 0.98862804E-02 0.13718802E+03</pdfrwt>
<totfact> 0.87783345E+02</totfact>
</mgrwt>
</event>
<event>
 8    1  0.7366917E-004  0.9540681E+02  0.7546771E-02  0.1290700E+00
         -1   -1    0    0    0  501 -0.00000000000E+00  0.00000000000E+00  0.11624092399E+02  0.11624092399E+02  0.00000000000E+00 0.  1.
          1   -1    0    0  501    0  0.00000000000E+00 -0.00000000000E+00 -0.77732668009E+03  0.77732668009E+03  0.00000000000E+00 0. -1.
         23    2    1    2    0    0 -0.12938119512E+02 -0.22600096660E+02 -0.37319361611E+03  0.38519597016E+03  0.91783991061E+02 0.  0.
         23    2    1    2    0    0  0.12938119512E+02  0.22600096660E+02 -0.39250897158E+03  0.40375480233E+03  0.90975207217E+02 0.  0.
          5    1    4    4  502    0  0.41526000705E+02  0.11672003043E+02 -0.34029331152E+03  0.34304849840E+03  0.47000000000E+01 0. -1.
         -5    1    3    3    0  503 -0.18959035907E+02 -0.55789196020E+02 -0.19440894801E+03  0.20319647758E+03  0.47000000000E+01 0.  1.
          5    1    3    3  503    0  0.60209163955E+01  0.33189099360E+02 -0.17878466810E+03  0.18199949258E+03  0.47000000000E+01 0. -1.
         -5    1    4    4    0  502 -0.28587881194E+02  0.10928093616E+02 -0.52215660057E+02  0.60706303926E+02  0.47000000000E+01 0.  1.
<mgrwt>
<rscale>  0 0.95211764E+02</rscale>
<asrwt>0</asrwt>
<pdfrwt beam="1">  1        1 0.11958875E+00 0.95406815E+02</pdfrwt>
<pdfrwt beam="2">  1       -1 0.17883214E-02 0.95406815E+02</pdfrwt>
<totfact> 0.17942837E+04</totfact>
</mgrwt>
</event>
<event>
 8    1  0.7366917E-004  0.1479896E+03  0.7546771E-02  0.1203191E+00
         -1   -1    0    0    0  501 -0.00000000000E+00  0.00000000000E+00  0.59807645459E+02  0.59807645459E+02  0.00000000000E+00 0.  1.
          1   -1    0    0  501    0  0.00000000000E+00 -0.00000000000E+00 -0.36478923323E+03  0.36478923323E+03  0.00000000000E+00 0. -1.
         23    2    1    2    0    0  0.11377229004E+03  0.21638645248E+02 -0.15968955876E+03  0.21771923137E+03  0.92133292462E+02 0.  0.
         23    2    1    2    0    0 -0.11377229004E+03 -0.21638645248E+02 -0.14529202901E+03  0.20687764732E+03  0.90973745221E+02 0.  0.
          5    1    4    4  502    0  0.12133482018E+01  0.22349052895E+02 -0.13916465422E+02  0.26771447271E+02  0.47000000000E+01 0. -1.
         -5    1    3    3    0  503  0.64934030110E+02 -0.44448332564E+01 -0.21385780689E+02  0.68670418847E+02  0.47000000000E+01 0.  1.
          5    1    3    3  503    0  0.48838259929E+02  0.26083478504E+02 -0.13830377807E+03  0.14904881252E+03  0.47000000000E+01 0. -1.
         -5    1    4    4    0  502 -0.11498563824E+03 -0.43987698142E+02 -0.13137556358E+03  0.18010620005E+03  0.47000000000E+01 0.  1.
<mgrwt>
<rscale>  0 0.14780945E+03</rscale>
<asrwt>0</asrwt>
<pdfrwt beam="1">  1        1 0.56121421E-01 0.14798956E+03</pdfrwt>
<pdfrwt beam="2">  1       -1 0.92011762E-02 0.14798956E+03</pdfrwt>
<totfact> 0.45770644E+03</totfact>
</mgrwt>
</event>
<event>
 8    1  0.7366917E-004  0.9950322E+02  0.7546771E-02  0.1281529E+00
         -1   -1    0    0    0  501 -0.00000000000E+00  0.00000000000E+00  0.40010020661E+02  0.40010020661E+02  0.00000000000E+00 0.  1.
          1   -1    0    0  501    0  0.00000000000E+00 -0.00000000000E+00 -0.35596697118E+03  0.35596697118E+03  0.00000000000E+00 0. -1.
         23    2    1    2    0    0  0.55261490102E+01 -0.40681699588E+02 -0.26791564334E+03  0.28579657558E+03  0.90638577120E+02 0.  0.
         23    2    1    2    0    0 -0.55261490102E+01  0.40681699588E+02 -0.48041307184E+02  0.11018041627E+03  0.90256401039E+02 0.  0.
          5    1    4    4  502    0 -0.47472567686E+02  0.23647919927E+02 -0.30779700419E+02  0.61500802901E+02  0.47000000000E+01 0. -1.
         -5    1    4    4    0  502  0.41946418676E+02  0.17033779661E+02 -0.17261606765E+02  0.48679613365E+02  0.47000000000E+01 0.  1.
          5    1    3    3  503    0 -0.25111400095E+02 -0.49025301065E+02 -0.22783783662E+03  0.23444878407E+03  0.47000000000E+01 0. -1.
         -5    1    3    3    0  503  0.30637549105E+02  0.83436014772E+01 -0.40077806721E+02  0.51347791504E+02  0.47000000000E+01 0.  1.
<mgrwt>
<rscale>  0 0.99416104E+02</rscale>
<asrwt>0</asrwt>
<pdfrwt beam="1">  1        1 0.54764151E-01 0.99503219E+02</pdfrwt>
<pdfrwt beam="2">  1       -1 0.61553876E-02 0.99503219E+02</pdfrwt>
<totfact> 0.84067474E+03</totfact>
</mgrwt>
</event>
<event>
 8    1  0.7366917E-004  0.9990167E+02  0.7546771E-02  0.1283956E+00
          1   -1    0    0  501    0  0.00000000000E+00  0.00000000000E+00  0.64341618320E+03  0.64341618320E+03  0.00000000000E+00 0. -1.
         -1   -1    0    0    0  501 -0.00000000000E+00 -0.00000000000E+00 -0.15800768785E+02  0.15800768785E+02  0.00000000000E+00 0.  1.
         23    2    1    2    0    0 -0.21941802951E+02  0.12882213635E+02  0.21143268147E+03  0.23121180024E+03  0.90042898837E+02 0.  0.
         23    2    1    2    0    0  0.21941802951E+02 -0.12882213635E+02  0.41618273295E+03  0.42800515175E+03  0.96607186974E+02 0.  0.
          5    1    4    4  502    0  0.43405853103E+02  0.20925448832E+02  0.32105612764E+03  0.32468610932E+03  0.47000000000E+01 0. -1.
         -5    1    4    4    0  502 -0.21464050152E+02 -0.33807662467E+02  0.95126605310E+02  0.10331904243E+03  0.47000000000E+01 0.  1.
          5    1    3    3  503    0  0.32823423374E+01 -0.23941011466E+02  0.13143297792E+02  0.27906667269E+02  0.47000000000E+01 0. -1.
         -5    1    3    3    0  503 -0.25224145288E+02  0.36823225100E+02  0.19828938368E+03  0.20330513297E+03  0.47000000000E+01 0.  1.
<mgrwt>
<rscale>  0 0.98279354E+02</rscale>
<asrwt>0</asrwt>
<pdfrwt beam="1">  1        1 0.98987085E-01 0.99901665E+02</pdfrwt>
<pdfrwt beam="2">  1       -1 0.24308880E-02 0.99901665E+02</pdfrwt>
<totfact> 0.15178230E+04</totfact>
</mgrwt>
</event>
<event>
 8    1  0.7366917E-004  0.9992095E+02  0.7546771E-02  0.1282859E+00
          1   -1    0    0  501    0  0.00000000000E+00  0.00000000000E+00  0.82425752081E+03  0.82425752081E+03  0.00000000000E+00 0. -1.
         -1   -1    0    0    0  501 -0.00000000000E+00 -0.00000000000E+00 -0.12031401736E+02  0.12031401736E+02  0.00000000000E+00 0.  1.
         23    2    1    2    0    0  0.16490175962E+02  0.30984015642E+02  0.49595941085E+03  0.50592482902E+03  0.93553515598E+02 0.  0.
         23    2    1    2    0    0 -0.16490175962E+02 -0.30984015642E+02  0.31626670822E+03  0.33036409352E+03  0.88791150633E+02 0.  0.
          5    1    4    4  502    0  0.15169823067E+02  0.25522629067E+02  0.85335328219E+02  0.90475059373E+02  0.47000000000E+01 0. -1.
         -5    1    3    3    0  503 -0.12944062309E+02 -0.21644353588E+02  0.53299539435E+02  0.59151988092E+02  0.47000000000E+01 0.  1.
          5    1    3    3  503    0  0.29434238271E+02  0.52628369230E+02  0.44265987142E+03  0.44677284093E+03  0.47000000000E+01 0. -1.
         -5    1    4    4    0  502 -0.31659999029E+02 -0.56506644709E+02  0.23093138000E+03  0.23988903414E+03  0.47000000000E+01 0.  1.
<mgrwt>
<rscale>  0 0.98790861E+02</rscale>
<asrwt>0</asrwt>
<pdfrwt beam="1">  1        1 0.12680881E+00 0.99920946E+02</pdfrwt>
<pdfrwt beam="2">  1       -1 0.18509855E-02 0.99920946E+02</pdfrwt>
<totfact> 0.15717793E+04</totfact>
</mgrwt>
</event>
<event>
 8    1  0.7366917E-004  0.2339902E+03  0.7546771E-02  0.1123980E+00
          1   -1    0    0  501    0  0.00000000000E+00  0.00000000000E+00  0.30714273586E+03  0.30714273586E+03  0.00000000000E+00 0. -1.
         -1   -1    0    0    0  501 -0.00000000000E+00 -0.00000000000E+00 -0.56424332443E+03  0.56424332443E+03  0.00000000000E+00 0.  1.
         23    2    1    2    0    0  0.16997845574E+03 -0.13168924087E+03 -0.48908903558E+03  0.54188632985E+03  0.90542687049E+02 0.  0.
         23    2    1    2    0    0 -0.16997845574E+03  0.13168924087E+03  0.23198844701E+03  0.32949973043E+03  0.92285975264E+02 0.  0.
          5    1    4    4  502    0 -0.10306244639E+03  0.11178774471E+03  0.20321438961E+03  0.25384354604E+03  0.47000000000E+01 0. -1.
         -5    1    3    3    0  503  0.35166467374E+02 -0.31028133625E+02 -0.21610399920E+03  0.22118420824E+03  0.47000000000E+01 0.  1.
          5    1    3    3  503    0  0.13481198837E+03 -0.10066110724E+03 -0.27298503638E+03  0.32070212161E+03  0.47000000000E+01 0. -1.
         -5    1    4    4    0  502 -0.66916009354E+02  0.19901496162E+02  0.28774057403E+02  0.75656184392E+02  0.47000000000E+01 0.  1.
<mgrwt>
<rscale>  0 0.23381954E+03</rscale>
<asrwt>0</asrwt>
<pdfrwt beam="1">  1        1 0.47252729E-01 0.23399024E+03</pdfrwt>
<pdfrwt beam="2">  1       -1 0.86806664E-01 0.23399024E+03</pdfrwt>
<totfact> 0.11860315E+02</totfact>
</mgrwt>
</event>
<event>
 8    1  0.7366917E-004  0.1045888E+03  0.7546771E-02  0.1275098E+00
         -1   -1    0    0    0  501 -0.00000000000E+00  0.00000000000E+00  0.33455509209E+02  0.33455509209E+02  0.00000000000E+00 0.  1.
          1   -1    0    0  501    0  0.00000000000E+00 -0.00000000000E+00 -0.40455122124E+03  0.40455122124E+03  0.00000000000E+00 0. -1.
         23    2    1    2    0    0  0.11388437963E+02  0.45988494559E+02 -0.30116182954E+03  0.31880601177E+03  0.93242626620E+02 0.  0.
         23    2    1    2    0    0 -0.11388437963E+02 -0.45988494559E+02 -0.69933882491E+02  0.11920071868E+03  0.84103657837E+02 0.  0.
          5    1    3    3  502    0  0.30719743781E+02  0.63392376407E+02 -0.15565377175E+03  0.17091659575E+03  0.47000000000E+01 0. -1.
         -5    1    4    4    0  503  0.32951022458E+02 -0.37797944858E+02 -0.28975250156E+02  0.58104299653E+02  0.47000000000E+01 0.  1.
          5    1    4    4  503    0 -0.44339460420E+02 -0.81905497009E+01 -0.40958632335E+02  0.61096419023E+02  0.47000000000E+01 0. -1.
         -5    1    3    3    0  502 -0.19331305818E+02 -0.17403881848E+02 -0.14550805779E+03  0.14788941602E+03  0.47000000000E+01 0.  1.
<mgrwt>
<rscale>  0 0.10251318E+03</rscale>
<asrwt>0</asrwt>
<pdfrwt beam="1">  1        1 0.62238648E-01 0.10458884E+03</pdfrwt>
<pdfrwt beam="2">  1       -1 0.51470015E-02 0.10458884E+03</pdfrwt>
<totfact> 0.93727911E+03</totfact>
</mgrwt>
</event>
<event>
 7    1  0.7366917E-004  0.1621442E+03  0.7546771E-02  0.1195946E+00
         -1   -1    0    0    0  501 -0.00000000000E+00  0.00000000000E+00  0.23488651624E+02  0.23488651624E+02  0.00000000000E+00 0.  1.
          1   -1    0    0  501    0  0.00000000000E+00 -0.00000000000E+00 -0.94558533356E+03  0.94558533356E+03  0.00000000000E+00 0. -1.
         23    2    1    2    0    0  0.81185172131E+02  0.44132475292E+02 -0.32714396235E+03  0.35242214309E+03  0.92948842343E+02 0.  0.
          5    1    3    3  502    0  0.85637918137E+02 -0.52219677521E+00 -0.20556172091E+03  0.22273714737E+03  0.47000000000E+01 0. -1.
         -5    1    1    2    0  503 -0.23619468609E+02  0.47748704576E+02 -0.18454541916E+03  0.19213776260E+03  0.47000000000E+01 0.  1.
          5    1    1    2  503    0 -0.57565703522E+02 -0.91881179868E+02 -0.41040730044E+03  0.42451407949E+03  0.47000000000E+01 0. -1.
         -5    1    3    3    0  502 -0.44527460061E+01  0.44654672067E+02 -0.12158224144E+03  0.12968499573E+03  0.47000000000E+01 0.  1.
<mgrwt>
<rscale>  0 0.15374406E+03</rscale>
<asrwt>0</asrwt>
<pdfrwt beam="1">  1        1 0.14547464E+00 0.16214424E+03</pdfrwt>
<pdfrwt beam="2">  1       -1 0.36136394E-02 0.16214424E+03</pdfrwt>
<totfact> 0.49438562E+03</totfact>
</mgrwt>
</event>
<event>
 8    1  0.7366917E-004  0.9538473E+02  0.7546771E-02  0.1290519E+00
          2   -1    0    0  501    0  0.00000000000E+00  0.00000000000E+00  0.10833024407E+04  0.10833024407E+04  0.00000000000E+00 0. -1.
         -2   -1    0    0    0  501 -0.00000000000E+00 -0.00000000000E+00 -0.83754340045E+01  0.83754340045E+01  0.00000000000E+00 0.  1.
         23    2    1    2    0    0  0.26006966684E+02  0.48897124969E+01  0.55459576895E+03  0.56267613285E+03  0.91256188518E+02 0.  0.
         23    2    1    2    0    0 -0.26006966684E+02 -0.48897124969E+01  0.52033123778E+03  0.52900174189E+03  0.91640462146E+02 0.  0.
          5    1    3    3  502    0  0.50584530129E+02 -0.24368570122E+02  0.31267721397E+03  0.31771331737E+03  0.47000000000E+01 0. -1.
         -5    1    4    4    0  503 -0.58387580150E+02 -0.15793536869E+02  0.31384276665E+03  0.31965280775E+03  0.47000000000E+01 0.  1.
          5    1    4    4  503    0  0.32380613466E+02  0.10903824372E+02  0.20648847113E+03  0.20934893414E+03  0.47000000000E+01 0. -1.
         -5    1    3    3    0  502 -0.24577563446E+02  0.29258282619E+02  0.24191855498E+03  0.24496281548E+03  0.47000000000E+01 0.  1.
<mgrwt>
<rscale>  0 0.95292309E+02</rscale>
<asrwt>0</asrwt>
<pdfrwt beam="1">  1        2 0.16666180E+00 0.95384726E+02</pdfrwt>
<pdfrwt beam="2">  1       -2 0.12885292E-02 0.95384726E+02</pdfrwt>
<totfact> 0.31654308E+04</totfact>
</mgrwt>
</event>
<event>
 8    1  0.7366917E-004  0.9856401E+02  0.7546771E-02  0.1285662E+00
         -1   -1    0    0    0  501 -0.00000000000E+00  0.00000000000E+00  0.49962419477E+03  0.49962419477E+03  0.00000000000E+00 0.  1.
          1   -1    0    0  501    0  0.00000000000E+00 -0.00000000000E+00 -0.18680117754E+02  0.18680117754E+02  0.00000000000E+00 0. -1.
         23    2    1    2    0    0 -0.30974447774E+02 -0.43995244740E+01  0.26035551939E+03  0.27838796624E+03  0.93467058575E+02 0.  0.
         23    2    1    2    0    0  0.30974447774E+02  0.43995244740E+01  0.22058855763E+03  0.23991634629E+03  0.89004321410E+02 0.  0.
          5    1    3    3  502    0  0.62068685704E+01 -0.27419128832E+02  0.21992929263E+02  0.36001566368E+02  0.47000000000E+01 0. -1.
         -5    1    3    3    0  502 -0.37181316344E+02  0.23019604358E+02  0.23836259013E+03  0.24238639987E+03  0.47000000000E+01 0.  1.
          5    1    4    4  503    0  0.44635289226E+02  0.37274182686E+02  0.13135117807E+03  0.14372506991E+03  0.47000000000E+01 0. -1.
         -5    1    4    4    0  503 -0.13660841452E+02 -0.32874658212E+02  0.89237379558E+02  0.96191276382E+02  0.47000000000E+01 0.  1.
<mgrwt>
<rscale>  0 0.97491289E+02</rscale>
<asrwt>0</asrwt>
<pdfrwt beam="1">  1        1 0.28738646E-02 0.98564006E+02</pdfrwt>
<pdfrwt beam="2">  1       -1 0.76865251E-01 0.98564006E+02</pdfrwt>
<totfact> 0.59463572E+03</totfact>
</mgrwt>
</event>
<event>
 8    1  0.7366917E-004  0.9276150E+02  0.7546771E-02  0.1298137E+00
         -1   -1    0    0    0  501 -0.00000000000E+00  0.00000000000E+00  0.24493883557E+03  0.24493883557E+03  0.00000000000E+00 0.  1.
          1   -1    0    0  501    0  0.00000000000E+00 -0.00000000000E+00 -0.51435598053E+02  0.51435598053E+02  0.00000000000E+00 0. -1.
         23    2    1    2    0    0 -0.42868926045E+01 -0.11565478484E+02  0.11480878430E+02  0.93469281724E+02  0.91937795904E+02 0.  0.
         23    2    1    2    0    0  0.42868926045E+01  0.11565478484E+02  0.18202235909E+03  0.20290515190E+03  0.88804412722E+02 0.  0.
          5    1    3    3  502    0 -0.12764972318E+02  0.22438570551E+02 -0.29407872969E+02  0.39412522873E+02  0.47000000000E+01 0. -1.
         -5    1    4    4    0  503  0.20361105849E+02 -0.13195300851E+02  0.16813949310E+03  0.16994607890E+03  0.47000000000E+01 0.  1.
          5    1    4    4  503    0 -0.16074213244E+02  0.24760779335E+02  0.13882865992E+02  0.32959072998E+02  0.47000000000E+01 0. -1.
         -5    1    3    3    0  502  0.84780797139E+01 -0.34004049035E+02  0.40888751400E+02  0.54056758851E+02  0.47000000000E+01 0.  1.
<mgrwt>
<rscale>  0 0.91975417E+02</rscale>
<asrwt>0</asrwt>
<pdfrwt beam="1">  1        1 0.79131691E-02 0.92761501E+02</pdfrwt>
<pdfrwt beam="2">  1       -1 0.37682897E-01 0.92761501E+02</pdfrwt>
<totfact> 0.55999345E+03</totfact>
</mgrwt>
</event>
<event>
 8    1  0.7366917E-004  0.1284033E+03  0.7546771E-02  0.1230952E+00
          1   -1    0    0  501    0  0.00000000000E+00  0.00000000000E+00  0.22879420640E+03  0.22879420640E+03  0.00000000000E+00 0. -1.
         -1   -1    0    0    0  501 -0.00000000000E+00 -0.00000000000E+00 -0.96137466745E+02  0.96137466745E+02  0.00000000000E+00 0.  1.
         23    2    1    2    0    0 -0.32039023799E+02 -0.81516460659E+02 -0.18214935935E+02  0.12681637624E+03  0.89884242158E+02 0.  0.
         23    2    1    2    0    0  0.32039023799E+02  0.81516460659E+02  0.15087167559E+03  0.19811529690E+03  0.93893428770E+02 0.  0.
          5    1    3    3  502    0 -0.23409289525E+02 -0.14287423614E+02  0.31944557288E+02  0.42363546239E+02  0.47000000000E+01 0. -1.
         -5    1    3    3    0  502 -0.86297342739E+01 -0.67229037045E+02 -0.50159493223E+02  0.84452830006E+02  0.47000000000E+01 0.  1.
          5    1    4    4  503    0  0.20784746243E+02  0.35068593896E+01  0.10416004811E+03  0.10637532309E+03  0.47000000000E+01 0. -1.
         -5    1    4    4    0  503  0.11254277556E+02  0.78009601270E+02  0.46711627478E+02  0.91739973813E+02  0.47000000000E+01 0.  1.
<mgrwt>
<rscale>  0 0.12767161E+03</rscale>
<asrwt>0</asrwt>
<pdfrwt beam="1">  1        1 0.35199109E-01 0.12840330E+03</pdfrwt>
<pdfrwt beam="2">  1       -1 0.14790380E-01 0.12840330E+03</pdfrwt>
<totfact> 0.38977855E+03</totfact>
</mgrwt>
</event>
<event>
 8    1  0.7366917E-004  0.1143764E+03  0.7546771E-02  0.1253157E+00
         -1   -1    0    0    0  501 -0.00000000000E+00  0.00000000000E+00  0.49385480342E+02  0.49385480342E+02  0.00000000000E+00 0.  1.
          1   -1    0    0  501    0  0.00000000000E+00 -0.00000000000E+00 -0.26656932309E+03  0.26656932309E+03  0.00000000000E+00 0. -1.
         23    2    1    2    0    0 -0.44020525082E+02  0.48391525077E+02 -0.12791647519E+03  0.17086647354E+03  0.92483408389E+02 0.  0.
         23    2    1    2    0    0  0.44020525082E+02 -0.48391525077E+02 -0.89267367563E+02  0.14508832990E+03  0.93821182219E+02 0.  0.
          5    1    4    4  502    0 -0.14050193476E+02 -0.33317347016E+02 -0.74770696189E+02  0.83187742832E+02  0.47000000000E+01 0. -1.
         -5    1    4    4    0  502  0.58070718558E+02 -0.15074178061E+02 -0.14496671373E+02  0.61900587064E+02  0.47000000000E+01 0.  1.
          5    1    3    3  503    0 -0.22946811021E+02  0.52089859880E+02 -0.13600848130E+03  0.14751375063E+03  0.47000000000E+01 0. -1.
         -5    1    3    3    0  503 -0.21073714060E+02 -0.36983348027E+01  0.80920061100E+01  0.23352722914E+02  0.47000000000E+01 0.  1.
<mgrwt>
<rscale>  0 0.11410172E+03</rscale>
<asrwt>0</asrwt>
<pdfrwt beam="1">  1        1 0.41010664E-01 0.11437640E+03</pdfrwt>
<pdfrwt beam="2">  1       -1 0.75977663E-02 0.11437640E+03</pdfrwt>
<totfact> 0.88667338E+03</totfact>
</mgrwt>
</event>
<event>
 8    1  0.7366917E-004  0.1026588E+03  0.7546771E-02  0.1280472E+00
          2   -1    0    0  501    0  0.00000000000E+00  0.00000000000E+00  0.63618311578E+03  0.63618311578E+03  0.00000000000E+00 0. -1.
         -2   -1    0    0    0  501 -0.00000000000E+00 -0.00000000000E+00 -0.14997421755E+02  0.14997421755E+02  0.00000000000E+00 0.  1.
         23    2    1    2    0    0 -0.15125840009E+01  0.12783797365E+02  0.30231026647E+03  0.31926529885E+03  0.10184851719E+03 0.  0.
         23    2    1    2    0    0  0.15125840009E+01 -0.12783797365E+02  0.31887542756E+03  0.33191523868E+03  0.91216632174E+02 0.  0.
          5    1    3    3  502    0  0.35697714982E+02 -0.67485955570E+01  0.42818682058E+02  0.56350687042E+02  0.47000000000E+01 0. -1.
         -5    1    4    4    0  503 -0.26366908054E+02 -0.42953107615E+02  0.18503230991E+03  0.19183125137E+03  0.47000000000E+01 0.  1.
          5    1    4    4  503    0  0.27879492055E+02  0.30169310251E+02  0.13384311765E+03  0.14008398731E+03  0.47000000000E+01 0. -1.
         -5    1    3    3    0  502 -0.37210298983E+02  0.19532392922E+02  0.25949158441E+03  0.26291461181E+03  0.47000000000E+01 0.  1.
<mgrwt>
<rscale>  0 0.99916287E+02</rscale>
<asrwt>0</asrwt>
<pdfrwt beam="1">  1        2 0.97874305E-01 0.10265882E+03</pdfrwt>
<pdfrwt beam="2">  1       -2 0.23072961E-02 0.10265882E+03</pdfrwt>
<totfact> 0.26959234E+04</totfact>
</mgrwt>
</event>
<event>
 8    1  0.7366917E-004  0.9618813E+02  0.7546771E-02  0.1288963E+00
         -1   -1    0    0    0  501 -0.00000000000E+00  0.00000000000E+00  0.24718311186E+02  0.24718311186E+02  0.00000000000E+00 0.  1.
          1   -1    0    0  501    0  0.00000000000E+00 -0.00000000000E+00 -0.41526603971E+03  0.41526603971E+03  0.00000000000E+00 0. -1.
         23    2    1    2    0    0  0.30167113146E+02  0.32693651889E+00 -0.12291245246E+03  0.15558885775E+03  0.90500055722E+02 0.  0.
         23    2    1    2    0    0 -0.30167113146E+02 -0.32693651889E+00 -0.26763527607E+03  0.28439549314E+03  0.91334516586E+02 0.  0.
          5    1    4    4  502    0  0.22190644147E+02 -0.85388916481E+01 -0.18179379643E+03  0.18340232217E+03  0.47000000000E+01 0. -1.
         -5    1    4    4    0  502 -0.52357757292E+02  0.82119551292E+01 -0.85841479640E+02  0.10099317097E+03  0.47000000000E+01 0.  1.
          5    1    3    3  503    0  0.28186912082E+01 -0.40423063781E+02 -0.30807125827E+02  0.51118862540E+02  0.47000000000E+01 0. -1.
         -5    1    3    3    0  503  0.27348421938E+02  0.40750000300E+02 -0.92105326628E+02  0.10446999521E+03  0.47000000000E+01 0.  1.
<mgrwt>
<rscale>  0 0.95989513E+02</rscale>
<asrwt>0</asrwt>
<pdfrwt beam="1">  1        1 0.63887077E-01 0.96188126E+02</pdfrwt>
<pdfrwt beam="2">  1       -1 0.38028175E-02 0.96188126E+02</pdfrwt>
<totfact> 0.14017387E+04</totfact>
</mgrwt>
</event>
<event>
 8    1  0.7366917E-004  0.1001445E+03  0.7546771E-02  0.1280117E+00
          1   -1    0    0  501    0  0.00000000000E+00  0.00000000000E+00  0.33524782059E+03  0.33524782059E+03  0.00000000000E+00 0. -1.
         -1   -1    0    0    0  501 -0.00000000000E+00 -0.00000000000E+00 -0.30131562669E+02  0.30131562669E+02  0.00000000000E+00 0.  1.
         23    2    1    2    0    0 -0.35141549623E+02 -0.19748004774E+02  0.17057309875E+03  0.19779816160E+03  0.91673434071E+02 0.  0.
         23    2    1    2    0    0  0.35141549623E+02  0.19748004774E+02  0.13454315918E+03  0.16758122166E+03  0.91414943908E+02 0.  0.
          5    1    4    4  502    0  0.51490831674E+02 -0.12777167147E+02  0.11324528264E+03  0.12514449962E+03  0.47000000000E+01 0. -1.
         -5    1    4    4    0  502 -0.16349282051E+02  0.32525171921E+02  0.21297876539E+02  0.42436722036E+02  0.47000000000E+01 0.  1.
          5    1    3    3  503    0 -0.63599960357E+02 -0.22879495933E+02  0.14065246410E+03  0.15612056862E+03  0.47000000000E+01 0. -1.
         -5    1    3    3    0  503  0.28458410734E+02  0.31314911589E+01  0.29920634653E+02  0.41677592978E+02  0.47000000000E+01 0.  1.
<mgrwt>
<rscale>  0 0.10008535E+03</rscale>
<asrwt>0</asrwt>
<pdfrwt beam="1">  1        1 0.51576585E-01 0.10014455E+03</pdfrwt>
<pdfrwt beam="2">  1       -1 0.46356253E-02 0.10014455E+03</pdfrwt>
<totfact> 0.13743890E+04</totfact>
</mgrwt>
</event>
<event>
 8    1  0.7366917E-004  0.1006528E+03  0.7546771E-02  0.1278931E+00
         -2   -1    0    0    0  501 -0.00000000000E+00  0.00000000000E+00  0.10726039273E+02  0.10726039273E+02  0.00000000000E+00 0.  1.
          2   -1    0    0  501    0  0.00000000000E+00 -0.00000000000E+00 -0.11274647144E+04  0.11274647144E+04  0.00000000000E+00 0. -1.
         23    2    1    2    0    0 -0.35415270747E+02 -0.19409169016E+02 -0.78763011404E+03  0.79403537475E+03  0.92195566888E+02 0.  0.
         23    2    1    2    0    0  0.35415270747E+02  0.19409169016E+02 -0.32910856112E+03  0.34415537896E+03  0.92192855605E+02 0.  0.
          5    1    3    3  502    0 -0.23432772223E+02 -0.56410078185E+02 -0.50524133662E+03  0.50894212831E+03  0.47000000000E+01 0. -1.
         -5    1    3    3    0  502 -0.11982498524E+02  0.37000909170E+02 -0.28238877742E+03  0.28509324644E+03  0.47000000000E+01 0.  1.
          5    1    4    4  503    0  0.25848833789E+02 -0.33067856489E+02 -0.19948100181E+03  0.20390293138E+03  0.47000000000E+01 0. -1.
         -5    1    4    4    0  503  0.95664369576E+01  0.52477025504E+02 -0.12962755931E+03  0.14025244758E+03  0.47000000000E+01 0.  1.
<mgrwt>
<rscale>  0 0.10065215E+03</rscale>
<asrwt>0</asrwt>
<pdfrwt beam="1">  1        2 0.17345609E+00 0.10065277E+03</pdfrwt>
<pdfrwt beam="2">  1       -2 0.16501601E-02 0.10065277E+03</pdfrwt>
<totfact> 0.21092123E+04</totfact>
</mgrwt>
</event>
<event>
 8    1  0.7366917E-004  0.9432809E+02  0.7546771E-02  0.1293474E+00
          2   -1    0    0  501    0  0.00000000000E+00  0.00000000000E+00  0.50419550997E+02  0.50419550997E+02  0.00000000000E+00 0. -1.
         -2   -1    0    0    0  501 -0.00000000000E+00 -0.00000000000E+00 -0.22725897184E+03  0.22725897184E+03  0.00000000000E+00 0.  1.
         23    2    1    2    0    0 -0.37648048399E+01  0.17291387765E+02 -0.21665223688E+02  0.96784144186E+02  0.92653239566E+02 0.  0.
         23    2    1    2    0    0  0.37648048399E+01 -0.17291387765E+02 -0.15517419716E+03  0.18089437865E+03  0.91272005118E+02 0.  0.
          5    1    4    4  502    0 -0.14871732175E+02 -0.31842564808E+02 -0.14728033033E+02  0.38394300468E+02  0.47000000000E+01 0. -1.
         -5    1    4    4    0  502  0.18636537015E+02  0.14551177042E+02 -0.14044616412E+03  0.14250007818E+03  0.47000000000E+01 0.  1.
          5    1    3    3  503    0 -0.38965792492E+02 -0.12416439211E+02 -0.28378482804E+02  0.49999292329E+02  0.47000000000E+01 0. -1.
         -5    1    3    3    0  503  0.35200987652E+02  0.29707826976E+02  0.67132591158E+01  0.46784851857E+02  0.47000000000E+01 0.  1.
<mgrwt>
<rscale>  0 0.93987159E+02</rscale>
<asrwt>0</asrwt>
<pdfrwt beam="1">  1        2 0.77568539E-02 0.94328090E+02</pdfrwt>
<pdfrwt beam="2">  1       -2 0.34962919E-01 0.94328090E+02</pdfrwt>
<totfact> 0.62473505E+03</totfact>
</mgrwt>
</event>
<event>
 8    1  0.7366917E-004  0.1016572E+03  0.7546771E-02  0.1280498E+00
         -1   -1    0    0    0  501 -0.00000000000E+00  0.00000000000E+00  0.70884367360E+02  0.70884367360E+02  0.00000000000E+00 0.  1.
          1   -1    0    0  501    0  0.00000000000E+00 -0.00000000000E+00 -0.16915568692E+03  0.16915568692E+03  0.00000000000E+00 0. -1.
         23    2    1    2    0    0  0.29323795235E+02 -0.24017975339E+02  0.24751180512E+01  0.10168728415E+03  0.94326186403E+02 0.  0.
         23    2    1    2    0    0 -0.29323795235E+02  0.24017975339E+02 -0.10074643762E+03  0.13835277014E+03  0.86918905919E+02 0.  0.
          5    1    4    4  502    0 -0.48073799493E+02 -0.11396572906E+02 -0.33320186502E+02  0.59777059983E+02  0.47000000000E+01 0.  1.
         -5    1    3    3    0  503  0.52254260048E+02 -0.23584821647E+02  0.30550273325E+02  0.65131871657E+02  0.47000000000E+01 0.  1.
          5    1    3    3  503    0 -0.22930464813E+02 -0.43315369150E+00 -0.28075155274E+02  0.36555412490E+02  0.47000000000E+01 0. -1.
         -5    1    4    4    0  502  0.18750004258E+02  0.35414548245E+02 -0.67426251113E+02  0.78575710154E+02  0.47000000000E+01 0. -1.
<mgrwt>
<rscale>  0 0.99904111E+02</rscale>
<asrwt>0</asrwt>
<pdfrwt beam="1">  1        1 0.26023952E-01 0.10165716E+03</pdfrwt>
<pdfrwt beam="2">  1       -1 0.10905287E-01 0.10165716E+03</pdfrwt>
<totfact> 0.89156452E+03</totfact>
</mgrwt>
</event>
<event>
 8    1  0.7366917E-004  0.9788711E+02  0.7546771E-02  0.1285526E+00
         -1   -1    0    0    0  501 -0.00000000000E+00  0.00000000000E+00  0.52840377594E+02  0.52840377594E+02  0.00000000000E+00 0.  1.
          1   -1    0    0  501    0  0.00000000000E+00 -0.00000000000E+00 -0.28205705959E+03  0.28205705959E+03  0.00000000000E+00 0. -1.
         23    2    1    2    0    0  0.86893148596E+01 -0.30641127084E+02 -0.12840469212E+02  0.97409435579E+02  0.91155568280E+02 0.  0.
         23    2    1    2    0    0 -0.86893148596E+01  0.30641127084E+02 -0.21637621278E+03  0.23748800160E+03  0.92560804804E+02 0.  0.
          5    1    4    4  502    0 -0.35669597637E+02  0.51943240772E+02 -0.14081024235E+03  0.15433740573E+03  0.47000000000E+01 0. -1.
         -5    1    3    3    0  503  0.46819685395E+02 -0.54120053525E+01  0.59839691186E+01  0.47741707435E+02  0.47000000000E+01 0.  1.
          5    1    3    3  503    0 -0.38130370535E+02 -0.25229121731E+02 -0.18824438330E+02  0.49667728144E+02  0.47000000000E+01 0. -1.
         -5    1    4    4    0  502  0.26980282778E+02 -0.21302113688E+02 -0.75565970432E+02  0.83150595871E+02  0.47000000000E+01 0.  1.
<mgrwt>
<rscale>  0 0.97553481E+02</rscale>
<asrwt>0</asrwt>
<pdfrwt beam="1">  1        1 0.43393394E-01 0.97887106E+02</pdfrwt>
<pdfrwt beam="2">  1       -1 0.81292889E-02 0.97887106E+02</pdfrwt>
<totfact> 0.73874816E+03</totfact>
</mgrwt>
</event>
<event>
 8    1  0.7366917E-004  0.1023459E+03  0.7546771E-02  0.1277940E+00
          1   -1    0    0  501    0  0.00000000000E+00  0.00000000000E+00  0.77106930936E+02  0.77106930936E+02  0.00000000000E+00 0. -1.
         -1   -1    0    0    0  501 -0.00000000000E+00 -0.00000000000E+00 -0.13080365797E+03  0.13080365797E+03  0.00000000000E+00 0.  1.
         23    2    1    2    0    0  0.39897373131E+02  0.23108219457E+02 -0.17398884176E+02  0.10381430432E+03  0.91372306643E+02 0.  0.
         23    2    1    2    0    0 -0.39897373131E+02 -0.23108219457E+02 -0.36297842855E+02  0.10409628459E+03  0.85980886709E+02 0.  0.
          5    1    3    3  502    0 -0.24473421806E+02  0.27506081289E+02 -0.12501924734E+01  0.37137391723E+02  0.47000000000E+01 0. -1.
         -5    1    3    3    0  502  0.64370794937E+02 -0.43978618314E+01 -0.16148691702E+02  0.66676912595E+02  0.47000000000E+01 0.  1.
          5    1    4    4  503    0 -0.36536371306E+02 -0.12663171585E+01 -0.60590516406E+02  0.70921158097E+02  0.47000000000E+01 0. -1.
         -5    1    4    4    0  503 -0.33610018250E+01 -0.21841902299E+02  0.24292673551E+02  0.33175126489E+02  0.47000000000E+01 0.  1.
<mgrwt>
<rscale>  0 0.10112860E+03</rscale>
<asrwt>0</asrwt>
<pdfrwt beam="1">  1        1 0.11862605E-01 0.10234593E+03</pdfrwt>
<pdfrwt beam="2">  1       -1 0.20123640E-01 0.10234593E+03</pdfrwt>
<totfact> 0.93369562E+03</totfact>
</mgrwt>
</event>
<event>
 8    1  0.7366917E-004  0.9738054E+02  0.7546771E-02  0.1287431E+00
          2   -1    0    0  501    0  0.00000000000E+00  0.00000000000E+00  0.26197046004E+03  0.26197046004E+03  0.00000000000E+00 0. -1.
         -2   -1    0    0    0  501 -0.00000000000E+00 -0.00000000000E+00 -0.54277200683E+02  0.54277200683E+02  0.00000000000E+00 0.  1.
         23    2    1    2    0    0 -0.22474414248E+02 -0.20283445315E+02  0.90895000569E+01  0.95054479523E+02  0.89644953100E+02 0.  0.
         23    2    1    2    0    0  0.22474414248E+02  0.20283445315E+02  0.19860375930E+03  0.22119318120E+03  0.92555133578E+02 0.  0.
          5    1    3    3  502    0 -0.45334309675E+01  0.20582169485E+02  0.36542969213E+02  0.42445922018E+02  0.47000000000E+01 0.  1.
         -5    1    3    3    0  502 -0.17940983281E+02 -0.40865614799E+02 -0.27453469156E+02  0.52608557505E+02  0.47000000000E+01 0. -1.
          5    1    4    4  503    0  0.44459003175E+02 -0.12977720123E+02  0.15537027351E+03  0.16219443909E+03  0.47000000000E+01 0. -1.
         -5    1    4    4    0  503 -0.21984588927E+02  0.33261165437E+02  0.43233485796E+02  0.58998742110E+02  0.47000000000E+01 0.  1.
<mgrwt>
<rscale>  0 0.96682665E+02</rscale>
<asrwt>0</asrwt>
<pdfrwt beam="1">  1        2 0.40303147E-01 0.97380543E+02</pdfrwt>
<pdfrwt beam="2">  1       -2 0.83503387E-02 0.97380543E+02</pdfrwt>
<totfact> 0.10291224E+04</totfact>
</mgrwt>
</event>
<event>
 8    1  0.7366917E-004  0.1016918E+03  0.7546771E-02  0.1277428E+00
          1   -1    0    0  501    0  0.00000000000E+00  0.00000000000E+00  0.64030380862E+03  0.64030380862E+03  0.00000000000E+00 0. -1.
         -1   -1    0    0    0  501 -0.00000000000E+00 -0.00000000000E+00 -0.26127903193E+02  0.26127903193E+02  0.00000000000E+00 0.  1.
         23    2    1    2    0    0 -0.24057275201E+02  0.33690732683E+02  0.10030152007E+03  0.14283420759E+03  0.92883787456E+02 0.  0.
         23    2    1    2    0    0  0.24057275201E+02 -0.33690732683E+02  0.51387438536E+03  0.52359750422E+03  0.91507620104E+02 0.  0.
          5    1    3    3  502    0  0.26428400623E+02 -0.12926890420E+02  0.47399296803E+02  0.55985249779E+02  0.47000000000E+01 0. -1.
         -5    1    4    4    0  503 -0.19467969664E+02  0.21334330306E+02  0.12162851975E+03  0.12509893009E+03  0.47000000000E+01 0.  1.
          5    1    4    4  503    0  0.43525244864E+02 -0.55025062989E+02  0.39224586560E+03  0.39849857413E+03  0.47000000000E+01 0. -1.
         -5    1    3    3    0  502 -0.50485675824E+02  0.46617623103E+02  0.52902223265E+02  0.86848957815E+02  0.47000000000E+01 0.  1.
<mgrwt>
<rscale>  0 0.10137645E+03</rscale>
<asrwt>0</asrwt>
<pdfrwt beam="1">  1        1 0.98508266E-01 0.10169177E+03</pdfrwt>
<pdfrwt beam="2">  1       -1 0.40196779E-02 0.10169177E+03</pdfrwt>
<totfact> 0.73922021E+03</totfact>
</mgrwt>
</event>
<event>
 8    1  0.7366917E-004  0.9343347E+02  0.7546771E-02  0.1295227E+00
          1   -1    0    0  501    0  0.00000000000E+00  0.00000000000E+00  0.27716528989E+02  0.27716528989E+02  0.00000000000E+00 0. -1.
         -1   -1    0    0    0  501 -0.00000000000E+00 -0.00000000000E+00 -0.34671874199E+03  0.34671874199E+03  0.00000000000E+00 0.  1.
         23    2    1    2    0    0 -0.18489650941E+01 -0.12714968763E+02 -0.21925038570E+03  0.23832865094E+03  0.92545800161E+02 0.  0.
         23    2    1    2    0    0  0.18489650941E+01  0.12714968763E+02 -0.99751827305E+02  0.13610662004E+03  0.91703303461E+02 0.  0.
          5    1    3    3  502    0  0.31166169185E+02  0.21803599635E+02 -0.53784579230E+02  0.66042395638E+02  0.47000000000E+01 0. -1.
         -5    1    3    3    0  502 -0.33015134279E+02 -0.34518568398E+02 -0.16546580647E+03  0.17228625530E+03  0.47000000000E+01 0.  1.
          5    1    4    4  503    0 -0.74766856407E+01  0.43420079226E+02 -0.17408102055E+02  0.47606051352E+02  0.47000000000E+01 0. -1.
         -5    1    4    4    0  503  0.93256507348E+01 -0.30705110463E+02 -0.82343725250E+02  0.88500568689E+02  0.47000000000E+01 0.  1.
<mgrwt>
<rscale>  0 0.93224168E+02</rscale>
<asrwt>0</asrwt>
<pdfrwt beam="1">  1        1 0.42640813E-02 0.93433475E+02</pdfrwt>
<pdfrwt beam="2">  1       -1 0.53341346E-01 0.93433475E+02</pdfrwt>
<totfact> 0.69474695E+03</totfact>
</mgrwt>
</event>
<event>
 8    1  0.7366917E-004  0.9417709E+02  0.7546771E-02  0.1293919E+00
         -1   -1    0    0    0  501 -0.00000000000E+00  0.00000000000E+00  0.69700145408E+02  0.69700145408E+02  0.00000000000E+00 0.  1.
          1   -1    0    0  501    0  0.00000000000E+00 -0.00000000000E+00 -0.27204129732E+03  0.27204129732E+03  0.00000000000E+00 0. -1.
         23    2    1    2    0    0  0.10667923448E+02 -0.21508354790E+02  0.23987257584E+02  0.97183911700E+02  0.91065417423E+02 0.  0.
         23    2    1    2    0    0 -0.10667923448E+02  0.21508354790E+02 -0.22632840949E+03  0.24455753102E+03  0.89484205987E+02 0.  0.
          5    1    4    4  502    0 -0.36839319291E+01  0.55529798030E+02 -0.16115283045E+03  0.17055630914E+03  0.47000000000E+01 0. -1.
         -5    1    4    4    0  502 -0.69839915187E+01 -0.34021443240E+02 -0.65175579039E+02  0.74001221887E+02  0.47000000000E+01 0.  1.
          5    1    3    3  503    0 -0.38692913976E+02 -0.48607176995E+01  0.21597151559E+02  0.44825161728E+02  0.47000000000E+01 0. -1.
         -5    1    3    3    0  503  0.49360837423E+02 -0.16647637091E+02  0.23901060247E+01  0.52358749972E+02  0.47000000000E+01 0.  1.
<mgrwt>
<rscale>  0 0.93792720E+02</rscale>
<asrwt>0</asrwt>
<pdfrwt beam="1">  1        1 0.41852508E-01 0.94177089E+02</pdfrwt>
<pdfrwt beam="2">  1       -1 0.10723099E-01 0.94177089E+02</pdfrwt>
<totfact> 0.50731775E+03</totfact>
</mgrwt>
</event>
<event>
 8    1  0.7366917E-004  0.2547552E+03  0.7546771E-02  0.1111141E+00
          1   -1    0    0  501    0  0.00000000000E+00  0.00000000000E+00  0.28665904848E+03  0.28665904848E+03  0.00000000000E+00 0. -1.
         -1   -1    0    0    0  501 -0.00000000000E+00 -0.00000000000E+00 -0.25489849323E+03  0.25489849323E+03  0.00000000000E+00 0.  1.
         23    2    1    2    0    0 -0.20939175351E+03  0.11031819451E+03 -0.81776899577E+02  0.26264719492E+03  0.79253247350E+02 0.  0.
         23    2    1    2    0    0  0.20939175351E+03 -0.11031819451E+03  0.11353745483E+03  0.27891034680E+03  0.94261431255E+02 0.  0.
          5    1    3    3  502    0 -0.15115352513E+03  0.92837815727E+02 -0.24777593734E+02  0.17917105609E+03  0.47000000000E+01 0. -1.
         -5    1    4    4    0  503  0.18757574332E+03 -0.55922384917E+02  0.82998098807E+02  0.21265640602E+03  0.47000000000E+01 0.  1.
          5    1    4    4  503    0  0.21816010193E+02 -0.54395809592E+02  0.30539356021E+02  0.66253940774E+02  0.47000000000E+01 0. -1.
         -5    1    3    3    0  502 -0.58238228378E+02  0.17480378781E+02 -0.56999305843E+02  0.83476138827E+02  0.47000000000E+01 0.  1.
<mgrwt>
<rscale>  0 0.25345446E+03</rscale>
<asrwt>0</asrwt>
<pdfrwt beam="1">  1        1 0.44101392E-01 0.25475523E+03</pdfrwt>
<pdfrwt beam="2">  1       -1 0.39215153E-01 0.25475523E+03</pdfrwt>
<totfact> 0.59621587E+02</totfact>
</mgrwt>
</event>
<event>
 8    1  0.7366917E-004  0.1180690E+03  0.7546771E-02  0.1246813E+00
         -1   -1    0    0    0  501 -0.00000000000E+00  0.00000000000E+00  0.11765973971E+03  0.11765973971E+03  0.00000000000E+00 0.  1.
          1   -1    0    0  501    0  0.00000000000E+00 -0.00000000000E+00 -0.15014953055E+03  0.15014953055E+03  0.00000000000E+00 0. -1.
         23    2    1    2    0    0  0.49621851940E+02 -0.52293554745E+02 -0.78931529790E+02  0.14202279653E+03  0.93505851589E+02 0.  0.
         23    2    1    2    0    0 -0.49621851940E+02  0.52293554745E+02  0.46441738954E+02  0.12578647373E+03  0.92024223975E+02 0.  0.
          5    1    4    4  502    0  0.22403227983E+02 -0.27257756818E+01 -0.15819430283E+01  0.23106860905E+02  0.47000000000E+01 0. -1.
         -5    1    4    4    0  502 -0.72025079923E+02  0.55019330427E+02  0.48023681982E+02  0.10267961282E+03  0.47000000000E+01 0.  1.
          5    1    3    3  503    0  0.74621669352E+02 -0.29319133471E+02 -0.70158435423E+02  0.10664099205E+03  0.47000000000E+01 0. -1.
         -5    1    3    3    0  503 -0.24999817412E+02 -0.22974421274E+02 -0.87730943675E+01  0.35381804480E+02  0.47000000000E+01 0.  1.
<mgrwt>
<rscale>  0 0.11777543E+03</rscale>
<asrwt>0</asrwt>
<pdfrwt beam="1">  1        1 0.23099928E-01 0.11806900E+03</pdfrwt>
<pdfrwt beam="2">  1       -1 0.18101498E-01 0.11806900E+03</pdfrwt>
<totfact> 0.47653706E+03</totfact>
</mgrwt>
</event>
<event>
 8    1  0.7366917E-004  0.1133625E+03  0.7546771E-02  0.1258633E+00
          2   -1    0    0  501    0  0.00000000000E+00  0.00000000000E+00  0.25723005193E+03  0.25723005193E+03  0.00000000000E+00 0. -1.
         -2   -1    0    0    0  501 -0.00000000000E+00 -0.00000000000E+00 -0.64615919480E+02  0.64615919480E+02  0.00000000000E+00 0.  1.
         23    2    1    2    0    0 -0.18959037305E+02  0.22661138658E+02  0.73631875676E+01  0.10466180383E+03  0.10013443139E+03 0.  0.
         23    2    1    2    0    0  0.18959037305E+02 -0.22661138658E+02  0.18525094489E+03  0.21718416758E+03  0.10944440491E+03 0.  0.
          5    1    3    3  502    0 -0.17981028172E+02 -0.36786804449E+02  0.16364446557E+02  0.44344914780E+02  0.47000000000E+01 0. -1.
         -5    1    3    3    0  502 -0.97800913339E+00  0.59447943106E+02 -0.90012589896E+01  0.60316889052E+02  0.47000000000E+01 0.  1.
          5    1    4    4  503    0  0.18936902588E+02 -0.66385480690E+02  0.11936725199E+03  0.13797198692E+03  0.47000000000E+01 0. -1.
         -5    1    4    4    0  503  0.22134716915E-01  0.43724342033E+02  0.65883692899E+02  0.79212180668E+02  0.47000000000E+01 0.  1.
<mgrwt>
<rscale>  0 0.11105284E+03</rscale>
<asrwt>0</asrwt>
<pdfrwt beam="1">  1        2 0.39573854E-01 0.11336247E+03</pdfrwt>
<pdfrwt beam="2">  1       -2 0.99409108E-02 0.11336247E+03</pdfrwt>
<totfact> 0.81064600E+03</totfact>
</mgrwt>
</event>
<event>
 8    1  0.7366917E-004  0.1198352E+03  0.7546771E-02  0.1243991E+00
         -2   -1    0    0    0  501 -0.00000000000E+00  0.00000000000E+00  0.12945623980E+03  0.12945623980E+03  0.00000000000E+00 0.  1.
          2   -1    0    0  501    0  0.00000000000E+00 -0.00000000000E+00 -0.21448993377E+03  0.21448993377E+03  0.00000000000E+00 0. -1.
         23    2    1    2    0    0 -0.79070111854E+02 -0.27072227733E+00 -0.16294181879E+03  0.20226344265E+03  0.90046143976E+02 0.  0.
         23    2    1    2    0    0  0.79070111854E+02  0.27072227733E+00  0.77908124821E+02  0.14168273091E+03  0.88046376677E+02 0.  0.
          5    1    3    3  502    0 -0.62968749751E+02 -0.40388513936E+02 -0.87766541695E+02  0.11541815864E+03  0.47000000000E+01 0. -1.
         -5    1    3    3    0  502 -0.16101362103E+02  0.40117791658E+02 -0.75175277092E+02  0.86845284011E+02  0.47000000000E+01 0.  1.
          5    1    4    4  503    0 -0.96607071434E+01  0.22159900883E+02  0.28566867381E+02  0.37716659206E+02  0.47000000000E+01 0. -1.
         -5    1    4    4    0  503  0.88730818998E+02 -0.21889178605E+02  0.49341257440E+02  0.10396607170E+03  0.47000000000E+01 0.  1.
<mgrwt>
<rscale>  0 0.11945957E+03</rscale>
<asrwt>0</asrwt>
<pdfrwt beam="1">  1        2 0.32998451E-01 0.11983515E+03</pdfrwt>
<pdfrwt beam="2">  1       -2 0.19916345E-01 0.11983515E+03</pdfrwt>
<totfact> 0.32038574E+03</totfact>
</mgrwt>
</event>
<event>
 8    1  0.7366917E-004  0.1369031E+03  0.7546771E-02  0.1218411E+00
         -4   -1    0    0    0  501 -0.00000000000E+00  0.00000000000E+00  0.59032299952E+02  0.59032299952E+02  0.00000000000E+00 0.  1.
          4   -1    0    0  501    0  0.00000000000E+00 -0.00000000000E+00 -0.59543376080E+03  0.59543376080E+03  0.00000000000E+00 0. -1.
         23    2    1    2    0    0 -0.90412558571E+02  0.42054077972E+02 -0.43644238907E+02  0.14369162971E+03  0.93805589586E+02 0.  0.
         23    2    1    2    0    0  0.90412558571E+02 -0.42054077972E+02 -0.49275722194E+03  0.51077443104E+03  0.90210107023E+02 0.  0.
          5    1    4    4  502    0  0.85941884065E+02  0.43309937962E+01 -0.35344845819E+03  0.36380306148E+03  0.47000000000E+01 0. -1.
         -5    1    3    3    0  503 -0.53395054286E+02  0.71402953240E+02 -0.31640820778E+02  0.94724047069E+02  0.47000000000E+01 0.  1.
          5    1    3    3  503    0 -0.37017504285E+02 -0.29348875268E+02 -0.12003418129E+02  0.48967582642E+02  0.47000000000E+01 0. -1.
         -5    1    4    4    0  502  0.44706745061E+01 -0.46385071768E+02 -0.13930876375E+03  0.14697136956E+03  0.47000000000E+01 0.  1.
<mgrwt>
<rscale>  0 0.13628948E+03</rscale>
<asrwt>0</asrwt>
<pdfrwt beam="1">  1        4 0.91605197E-01 0.13690312E+03</pdfrwt>
<pdfrwt beam="2">  1       -4 0.90818920E-02 0.13690312E+03</pdfrwt>
<totfact> 0.15671610E+02</totfact>
</mgrwt>
</event>
<event>
 8    1  0.7366917E-004  0.9920522E+02  0.7546771E-02  0.1282657E+00
         -3   -1    0    0    0  501 -0.00000000000E+00  0.00000000000E+00  0.55077474644E+03  0.55077474644E+03  0.00000000000E+00 0.  1.
          3   -1    0    0  501    0  0.00000000000E+00 -0.00000000000E+00 -0.23706119507E+02  0.23706119507E+02  0.00000000000E+00 0. -1.
         23    2    1    2    0    0 -0.85882339104E+01 -0.36533798409E+02  0.11950434299E+03  0.15531569178E+03  0.91832455772E+02 0.  0.
         23    2    1    2    0    0  0.85882339104E+01  0.36533798409E+02  0.40756428395E+03  0.41916517417E+03  0.90456185510E+02 0.  0.
          5    1    3    3  502    0 -0.42986462006E+02 -0.18557812227E+02  0.25535809716E+02  0.53538732599E+02  0.47000000000E+01 0. -1.
         -5    1    4    4    0  503  0.14578811157E+02  0.61776998561E+02  0.35142831320E+03  0.35714547261E+03  0.47000000000E+01 0.  1.
          5    1    4    4  503    0 -0.59905772462E+01 -0.25243200152E+02  0.56135970745E+02  0.62019701557E+02  0.47000000000E+01 0. -1.
         -5    1    3    3    0  502  0.34398228096E+02 -0.17975986182E+02  0.93968533273E+02  0.10177695918E+03  0.47000000000E+01 0.  1.
<mgrwt>
<rscale>  0 0.98885529E+02</rscale>
<asrwt>0</asrwt>
<pdfrwt beam="1">  1        3 0.36470957E-02 0.99205222E+02</pdfrwt>
<pdfrwt beam="2">  1       -3 0.84734567E-01 0.99205222E+02</pdfrwt>
<totfact> 0.10775964E+03</totfact>
</mgrwt>
</event>
<event>
 8    1  0.7366917E-004  0.9575539E+02  0.7546771E-02  0.1291154E+00
         -1   -1    0    0    0  501 -0.00000000000E+00  0.00000000000E+00  0.49008354881E+02  0.49008354881E+02  0.00000000000E+00 0.  1.
          1   -1    0    0  501    0  0.00000000000E+00 -0.00000000000E+00 -0.49173384204E+03  0.49173384204E+03  0.00000000000E+00 0. -1.
         23    2    1    2    0    0  0.16374455864E+02 -0.11034264390E+02 -0.43487227141E+03  0.44466531246E+03  0.90683349463E+02 0.  0.
         23    2    1    2    0    0 -0.16374455864E+02  0.11034264390E+02 -0.78532157494E+01  0.96076884461E+02  0.93697475604E+02 0.  0.
          5    1    3    3  502    0 -0.30276104104E+02 -0.24529450107E+02 -0.26621508957E+03  0.26909273553E+03  0.47000000000E+01 0. -1.
         -5    1    3    3    0  502  0.46650559969E+02  0.13495185717E+02 -0.16865718185E+03  0.17557257693E+03  0.47000000000E+01 0.  1.
          5    1    4    4  503    0  0.65264497389E+01 -0.37945327960E+02 -0.14475819500E+02  0.41401471114E+02  0.47000000000E+01 0. -1.
         -5    1    4    4    0  503 -0.22900905603E+02  0.48979592350E+02  0.66226037505E+01  0.54675413347E+02  0.47000000000E+01 0.  1.
<mgrwt>
<rscale>  0 0.95009913E+02</rscale>
<asrwt>0</asrwt>
<pdfrwt beam="1">  1        1 0.75651363E-01 0.95755390E+02</pdfrwt>
<pdfrwt beam="2">  1       -1 0.75397466E-02 0.95755390E+02</pdfrwt>
<totfact> 0.41369627E+03</totfact>
</mgrwt>
</event>
<event>
 8    1  0.7366917E-004  0.9765536E+02  0.7546771E-02  0.1286210E+00
          1   -1    0    0  501    0  0.00000000000E+00  0.00000000000E+00  0.82210797447E+02  0.82210797447E+02  0.00000000000E+00 0. -1.
         -1   -1    0    0    0  501 -0.00000000000E+00 -0.00000000000E+00 -0.14382619594E+03  0.14382619594E+03  0.00000000000E+00 0.  1.
         23    2    1    2    0    0  0.32861451929E+02  0.14438254924E+01  0.20825932977E+02  0.98235808417E+02  0.90191989201E+02 0.  0.
         23    2    1    2    0    0 -0.32861451929E+02 -0.14438254924E+01 -0.82441331474E+02  0.12780118497E+03  0.91948953721E+02 0.  0.
          5    1    3    3  502    0  0.40844815952E+02  0.26487483078E+02  0.41756102629E+02  0.64308225420E+02  0.47000000000E+01 0. -1.
         -5    1    3    3    0  502 -0.79833640229E+01 -0.25043657586E+02 -0.20930169651E+02  0.33927582997E+02  0.47000000000E+01 0.  1.
          5    1    4    4  503    0  0.13438525996E+02  0.35069680629E+02 -0.39491884891E+02  0.54700781097E+02  0.47000000000E+01 0. -1.
         -5    1    4    4    0  503 -0.46299977925E+02 -0.36513506121E+02 -0.42949446583E+02  0.73100403876E+02  0.47000000000E+01 0.  1.
<mgrwt>
<rscale>  0 0.97239596E+02</rscale>
<asrwt>0</asrwt>
<pdfrwt beam="1">  1        1 0.12647815E-01 0.97655362E+02</pdfrwt>
<pdfrwt beam="2">  1       -1 0.22127107E-01 0.97655362E+02</pdfrwt>
<totfact> 0.73502830E+03</totfact>
</mgrwt>
</event>
<event>
 8    1  0.8505572E-004  0.9281147E+02  0.7546771E-02  0.1296526E+00
          2   -1    0    0  501    0  0.00000000000E+00  0.00000000000E+00  0.11233315026E+03  0.11233315026E+03  0.00000000000E+00 0. -1.
         -2   -1    0    0    0  501 -0.00000000000E+00 -0.00000000000E+00 -0.26346772816E+03  0.26346772816E+03  0.00000000000E+00 0.  1.
         23    2    1    2    0    0 -0.63616482014E+01  0.14038852826E+02  0.82918601385E+02  0.12401751920E+03  0.90924642728E+02 0.  0.
         23    2    1    2    0    0  0.63616482014E+01 -0.14038852826E+02 -0.23405317929E+03  0.25178335922E+03  0.91522725529E+02 0.  0.
          5    1    4    4  502    0 -0.30844494951E+02 -0.33071599445E+01 -0.27943030611E+02  0.42014558613E+02  0.47000000000E+01 0. -1.
         -5    1    4    4    0  502  0.37206143152E+02 -0.10731692882E+02 -0.20611014868E+03  0.20976880061E+03  0.47000000000E+01 0.  1.
          5    1    3    3  503    0 -0.26349821214E+02  0.23510818795E+02  0.92752614175E+02  0.99358991111E+02  0.47000000000E+01 0. -1.
         -5    1    3    3    0  503  0.19988173013E+02 -0.94719659683E+01 -0.98340127901E+01  0.24658528084E+02  0.47000000000E+01 0.  1.
<mgrwt>
<rscale>  0 0.92663688E+02</rscale>
<asrwt>0</asrwt>
<pdfrwt beam="1">  1        2 0.17282024E-01 0.92811472E+02</pdfrwt>
<pdfrwt beam="2">  1       -2 0.40533496E-01 0.92811472E+02</pdfrwt>
<totfact> 0.18241910E+03</totfact>
</mgrwt>
</event>
<event>
 8    1  0.7366917E-004  0.1011582E+03  0.7546771E-02  0.1280603E+00
         -1   -1    0    0    0  501 -0.00000000000E+00  0.00000000000E+00  0.44255204837E+03  0.44255204837E+03  0.00000000000E+00 0.  1.
          1   -1    0    0  501    0  0.00000000000E+00 -0.00000000000E+00 -0.24025823390E+02  0.24025823390E+02  0.00000000000E+00 0. -1.
         23    2    1    2    0    0 -0.27719163451E+02 -0.30024251913E+02  0.14597100798E+03  0.17759649625E+03  0.92537411818E+02 0.  0.
         23    2    1    2    0    0  0.27719163451E+02  0.30024251913E+02  0.27255521700E+03  0.28898137551E+03  0.86914218342E+02 0.  0.
          5    1    4    4  502    0  0.24389267196E+02 -0.28172730858E+02  0.10735029003E+03  0.11373088362E+03  0.47000000000E+01 0. -1.
         -5    1    3    3    0  503  0.30493066872E+02  0.65627048411E+01  0.55892926480E+02  0.64179478438E+02  0.47000000000E+01 0.  1.
          5    1    3    3  503    0 -0.58212230323E+02 -0.36586956754E+02  0.90078081497E+02  0.11341701781E+03  0.47000000000E+01 0. -1.
         -5    1    4    4    0  502  0.33298962549E+01  0.58196982771E+02  0.16520492697E+03  0.17525049189E+03  0.47000000000E+01 0.  1.
<mgrwt>
<rscale>  0 0.99853907E+02</rscale>
<asrwt>0</asrwt>
<pdfrwt beam="1">  1        1 0.36962808E-02 0.10115819E+03</pdfrwt>
<pdfrwt beam="2">  1       -1 0.68084925E-01 0.10115819E+03</pdfrwt>
<totfact> 0.53632762E+03</totfact>
</mgrwt>
</event>
<event>
 8    1  0.7366917E-004  0.1077589E+03  0.7546771E-02  0.1266536E+00
         -1   -1    0    0    0  501 -0.00000000000E+00  0.00000000000E+00  0.32110977727E+02  0.32110977727E+02  0.00000000000E+00 0.  1.
          1   -1    0    0  501    0  0.00000000000E+00 -0.00000000000E+00 -0.38702940952E+03  0.38702940952E+03  0.00000000000E+00 0. -1.
         23    2    1    2    0    0  0.36746620934E+02 -0.35200510939E+02 -0.11499168026E+03  0.15759148703E+03  0.94987368287E+02 0.  0.
         23    2    1    2    0    0 -0.36746620934E+02  0.35200510939E+02 -0.23992675153E+03  0.26154890022E+03  0.90849276194E+02 0.  0.
          5    1    4    4  502    0  0.32537002497E+01  0.25275903252E+02 -0.20692676073E+03  0.20854311821E+03  0.47000000000E+01 0. -1.
         -5    1    4    4    0  502 -0.40000321184E+02  0.99246076877E+01 -0.32999990802E+02  0.53005782001E+02  0.47000000000E+01 0.  1.
          5    1    3    3  503    0  0.58076238086E+02 -0.69162262461E+01 -0.31104561161E+02  0.66409843703E+02  0.47000000000E+01 0. -1.
         -5    1    3    3    0  503 -0.21329617152E+02 -0.28284284693E+02 -0.83887119103E+02  0.91181643327E+02  0.47000000000E+01 0.  1.
<mgrwt>
<rscale>  0 0.10683993E+03</rscale>
<asrwt>0</asrwt>
<pdfrwt beam="1">  1        1 0.59542983E-01 0.10775895E+03</pdfrwt>
<pdfrwt beam="2">  1       -1 0.49401506E-02 0.10775895E+03</pdfrwt>
<totfact> 0.10546494E+04</totfact>
</mgrwt>
</event>
<event>
 8    1  0.7366917E-004  0.1106352E+03  0.7546771E-02  0.1259442E+00
         -1   -1    0    0    0  501 -0.00000000000E+00  0.00000000000E+00  0.13676529883E+03  0.13676529883E+03  0.00000000000E+00 0.  1.
          1   -1    0    0  501    0  0.00000000000E+00 -0.00000000000E+00 -0.10284586648E+03  0.10284586648E+03  0.00000000000E+00 0. -1.
         23    2    1    2    0    0 -0.32068381079E+02 -0.53295626107E+02  0.60239916243E+02  0.12588818263E+03  0.91379331305E+02 0.  0.
         23    2    1    2    0    0  0.32068381079E+02  0.53295626107E+02 -0.26320483885E+02  0.11372298268E+03  0.91495049543E+02 0.  0.
          5    1    4    4  502    0  0.32748541328E+02  0.77433279532E+02 -0.28809623059E+02  0.88996989382E+02  0.47000000000E+01 0. -1.
         -5    1    4    4    0  502 -0.68016024977E+00 -0.24137653425E+02  0.24891391745E+01  0.24725993300E+02  0.47000000000E+01 0.  1.
          5    1    3    3  503    0 -0.48560894610E+02 -0.10011550278E+02  0.61718288791E+02  0.79307179975E+02  0.47000000000E+01 0. -1.
         -5    1    3    3    0  503  0.16492513531E+02 -0.43284075828E+02 -0.14783725479E+01  0.46581002654E+02  0.47000000000E+01 0.  1.
<mgrwt>
<rscale>  0 0.11061128E+03</rscale>
<asrwt>0</asrwt>
<pdfrwt beam="1">  1        1 0.15822441E-01 0.11063521E+03</pdfrwt>
<pdfrwt beam="2">  1       -1 0.21040815E-01 0.11063521E+03</pdfrwt>
<totfact> 0.60311537E+03</totfact>
</mgrwt>
</event>
<event>
 8    1  0.7366917E-004  0.1226608E+03  0.7546771E-02  0.1239224E+00
         -1   -1    0    0    0  501 -0.00000000000E+00  0.00000000000E+00  0.42458425815E+03  0.42458425815E+03  0.00000000000E+00 0.  1.
          1   -1    0    0  501    0  0.00000000000E+00 -0.00000000000E+00 -0.40894363012E+02  0.40894363012E+02  0.00000000000E+00 0. -1.
         23    2    1    2    0    0 -0.37261010744E+01  0.83071384750E+02  0.27860062671E+03  0.30395643104E+03  0.88636696564E+02 0.  0.
         23    2    1    2    0    0  0.37261010744E+01 -0.83071384750E+02  0.10508926843E+03  0.16152219012E+03  0.90171640597E+02 0.  0.
          5    1    4    4  502    0 -0.40017253709E+02 -0.40722731464E+02  0.29776726192E+02  0.64563649796E+02  0.47000000000E+01 0. -1.
         -5    1    3    3    0  503  0.18523497408E+02  0.79216388136E+02  0.12896077254E+03  0.15254942465E+03  0.47000000000E+01 0.  1.
          5    1    3    3  503    0 -0.22249598482E+02  0.38549966139E+01  0.14963985416E+03  0.15140700639E+03  0.47000000000E+01 0. -1.
         -5    1    4    4    0  502  0.43743354784E+02 -0.42348653286E+02  0.75312542242E+02  0.96958540324E+02  0.47000000000E+01 0.  1.
<mgrwt>
<rscale>  0 0.12237881E+03</rscale>
<asrwt>0</asrwt>
<pdfrwt beam="1">  1        1 0.62914408E-02 0.12266077E+03</pdfrwt>
<pdfrwt beam="2">  1       -1 0.65320652E-01 0.12266077E+03</pdfrwt>
<totfact> 0.28569959E+03</totfact>
</mgrwt>
</event>
<event>
 8    1  0.7366917E-004  0.1127730E+03  0.7546771E-02  0.1255710E+00
         -1   -1    0    0    0  501 -0.00000000000E+00  0.00000000000E+00  0.17451866617E+02  0.17451866617E+02  0.00000000000E+00 0.  1.
          1   -1    0    0  501    0  0.00000000000E+00 -0.00000000000E+00 -0.73542967664E+03  0.73542967664E+03  0.00000000000E+00 0. -1.
         23    2    1    2    0    0 -0.61786785396E+02  0.21109344112E+02 -0.40097810781E+03  0.41641970930E+03  0.91426036202E+02 0.  0.
         23    2    1    2    0    0  0.61786785396E+02 -0.21109344112E+02 -0.31699970222E+03  0.33646183396E+03  0.91948590234E+02 0.  0.
          5    1    4    4  502    0 -0.59382834374E+01  0.27802356853E+02 -0.71152028663E+02  0.76765457334E+02  0.47000000000E+01 0. -1.
         -5    1    3    3    0  503 -0.64527792861E+02 -0.19813043975E+02 -0.19672765227E+03  0.20803906347E+03  0.47000000000E+01 0.  1.
          5    1    3    3  503    0  0.27410074652E+01  0.40922388087E+02 -0.20425045554E+03  0.20838064583E+03  0.47000000000E+01 0. -1.
         -5    1    4    4    0  502  0.67725068833E+02 -0.48911700965E+02 -0.24584767355E+03  0.25969637662E+03  0.47000000000E+01 0.  1.
<mgrwt>
<rscale>  0 0.11266646E+03</rscale>
<asrwt>0</asrwt>
<pdfrwt beam="1">  1        1 0.11314303E+00 0.11277302E+03</pdfrwt>
<pdfrwt beam="2">  1       -1 0.26849025E-02 0.11277302E+03</pdfrwt>
<totfact> 0.11002286E+04</totfact>
</mgrwt>
</event>
<event>
 8    1  0.7366917E-004  0.1218926E+03  0.7546771E-02  0.1245356E+00
          1   -1    0    0  501    0  0.00000000000E+00  0.00000000000E+00  0.15716497212E+03  0.15716497212E+03  0.00000000000E+00 0. -1.
         -1   -1    0    0    0  501 -0.00000000000E+00 -0.00000000000E+00 -0.15839487233E+03  0.15839487233E+03  0.00000000000E+00 0.  1.
         23    2    1    2    0    0  0.43865679577E+02 -0.43560480964E+02  0.10665276372E+03  0.15278245711E+03  0.90254938059E+02 0.  0.
         23    2    1    2    0    0 -0.43865679577E+02  0.43560480964E+02 -0.10788266394E+03  0.16277738734E+03  0.10505282151E+03 0.  0.
          5    1    3    3  502    0  0.56985148984E+02 -0.62499617620E+02  0.92088373753E+02  0.12512341103E+03  0.47000000000E+01 0. -1.
         -5    1    3    3    0  502 -0.13119469407E+02  0.18939136656E+02  0.14564389968E+02  0.27659046078E+02  0.47000000000E+01 0.  1.
          5    1    4    4  503    0 -0.69899837354E+02 -0.10730249513E-01 -0.52788086261E+02  0.87719207865E+02  0.47000000000E+01 0. -1.
         -5    1    4    4    0  503  0.26034157777E+02  0.43571211213E+02 -0.55094577675E+02  0.75058179480E+02  0.47000000000E+01 0.  1.
<mgrwt>
<rscale>  0 0.11864084E+03</rscale>
<asrwt>0</asrwt>
<pdfrwt beam="1">  1        1 0.24179226E-01 0.12189261E+03</pdfrwt>
<pdfrwt beam="2">  1       -1 0.24368442E-01 0.12189261E+03</pdfrwt>
<totfact> 0.27946985E+03</totfact>
</mgrwt>
</event>
<event>
 8    1  0.7366917E-004  0.9976941E+02  0.7546771E-02  0.1286627E+00
          3   -1    0    0  501    0  0.00000000000E+00  0.00000000000E+00  0.34537661922E+02  0.34537661922E+02  0.00000000000E+00 0. -1.
         -3   -1    0    0    0  501 -0.00000000000E+00 -0.00000000000E+00 -0.34096916602E+03  0.34096916602E+03  0.00000000000E+00 0.  1.
         23    2    1    2    0    0 -0.28965009826E+02 -0.43531201169E+01 -0.23884100948E+03  0.25499786881E+03  0.84385803530E+02 0.  0.
         23    2    1    2    0    0  0.28965009826E+02  0.43531201169E+01 -0.67590494615E+02  0.12050895913E+03  0.95373019350E+02 0.  0.
          5    1    4    4  502    0  0.33956797240E+02 -0.41246652999E+02 -0.35007357131E+02  0.64046510566E+02  0.47000000000E+01 0. -1.
         -5    1    4    4    0  502 -0.49917874137E+01  0.45599773116E+02 -0.32583137484E+02  0.56462448566E+02  0.47000000000E+01 0.  1.
          5    1    3    3  503    0 -0.28254690113E+01  0.38414081107E+02 -0.96040914189E+02  0.10358364784E+03  0.47000000000E+01 0. -1.
         -5    1    3    3    0  503 -0.26139540815E+02 -0.42767201224E+02 -0.14280009530E+03  0.15141422097E+03  0.47000000000E+01 0.  1.
<mgrwt>
<rscale>  0 0.97048944E+02</rscale>
<asrwt>0</asrwt>
<pdfrwt beam="1">  1        3 0.53134861E-02 0.99769405E+02</pdfrwt>
<pdfrwt beam="2">  1       -3 0.52456798E-01 0.99769405E+02</pdfrwt>
<totfact> 0.16296560E+03</totfact>
</mgrwt>
</event>
<event>
 8    1  0.7366917E-004  0.9474585E+02  0.7546771E-02  0.1291982E+00
         -1   -1    0    0    0  501 -0.00000000000E+00  0.00000000000E+00  0.27880631084E+03  0.27880631084E+03  0.00000000000E+00 0.  1.
          1   -1    0    0  501    0  0.00000000000E+00 -0.00000000000E+00 -0.34528846333E+02  0.34528846333E+02  0.00000000000E+00 0. -1.
         23    2    1    2    0    0  0.18918938807E+02  0.10538381134E+02  0.16380156843E+03  0.18902447258E+03  0.91816739706E+02 0.  0.
         23    2    1    2    0    0 -0.18918938807E+02 -0.10538381134E+02  0.80475896072E+02  0.12431068459E+03  0.92237696918E+02 0.  0.
          5    1    4    4  502    0 -0.16380851108E+02 -0.50911612577E+02  0.50879093894E+02  0.73966862673E+02  0.47000000000E+01 0. -1.
         -5    1    4    4    0  502 -0.25380876986E+01  0.40373231443E+02  0.29596802179E+02  0.50343821920E+02  0.47000000000E+01 0.  1.
          5    1    3    3  503    0  0.40007423269E+02 -0.19698998478E+02  0.41131057102E+02  0.60848157869E+02  0.47000000000E+01 0. -1.
         -5    1    3    3    0  503 -0.21088484462E+02  0.30237379612E+02  0.12267051133E+03  0.12817631471E+03  0.47000000000E+01 0.  1.
<mgrwt>
<rscale>  0 0.94643244E+02</rscale>
<asrwt>0</asrwt>
<pdfrwt beam="1">  1        1 0.53121304E-02 0.94745852E+02</pdfrwt>
<pdfrwt beam="2">  1       -1 0.42893277E-01 0.94745852E+02</pdfrwt>
<totfact> 0.76364348E+03</totfact>
</mgrwt>
</event>
<event>
 8    1  0.7366917E-004  0.9385128E+02  0.7546771E-02  0.1294541E+00
          1   -1    0    0  501    0  0.00000000000E+00  0.00000000000E+00  0.49381298559E+03  0.49381298559E+03  0.00000000000E+00 0. -1.
         -1   -1    0    0    0  501 -0.00000000000E+00 -0.00000000000E+00 -0.18182652774E+02  0.18182652774E+02  0.00000000000E+00 0.  1.
         23    2    1    2    0    0  0.20191938999E+02 -0.17866964123E+02  0.28571233647E+03  0.30073177608E+03  0.89895045027E+02 0.  0.
         23    2    1    2    0    0 -0.20191938999E+02  0.17866964123E+02  0.18991799634E+03  0.21126386229E+03  0.88524750026E+02 0.  0.
          5    1    3    3  502    0  0.17362923286E+01 -0.53303588938E+02  0.16934274353E+03  0.17760445403E+03  0.47000000000E+01 0. -1.
         -5    1    4    4    0  503  0.25359145663E+02  0.34094794332E+01  0.15338928237E+02  0.30200720823E+02  0.47000000000E+01 0.  1.
          5    1    4    4  503    0 -0.45551084662E+02  0.14457484690E+02  0.17457906810E+03  0.18106314146E+03  0.47000000000E+01 0. -1.
         -5    1    3    3    0  502  0.18455646671E+02  0.35436624815E+02  0.11636959294E+03  0.12312732204E+03  0.47000000000E+01 0.  1.
<mgrwt>
<rscale>  0 0.93521619E+02</rscale>
<asrwt>0</asrwt>
<pdfrwt beam="1">  1        1 0.75971219E-01 0.93851276E+02</pdfrwt>
<pdfrwt beam="2">  1       -1 0.27973316E-02 0.93851276E+02</pdfrwt>
<totfact> 0.17507770E+04</totfact>
</mgrwt>
</event>
<event>
 8    1  0.7366917E-004  0.9791532E+02  0.7546771E-02  0.1285191E+00
          2   -1    0    0  501    0  0.00000000000E+00  0.00000000000E+00  0.34855547548E+03  0.34855547548E+03  0.00000000000E+00 0. -1.
         -2   -1    0    0    0  501 -0.00000000000E+00 -0.00000000000E+00 -0.40898875299E+02  0.40898875299E+02  0.00000000000E+00 0.  1.
         23    2    1    2    0    0  0.11254424552E+01  0.37063414612E+02  0.26578334046E+03  0.28296124896E+03  0.89729153692E+02 0.  0.
         23    2    1    2    0    0 -0.11254424552E+01 -0.37063414612E+02  0.41873259717E+02  0.10649310182E+03  0.90622555317E+02 0.  0.
          5    1    3    3  502    0  0.39707518725E+02 -0.13276218508E+01  0.14461136361E+03  0.15004328079E+03  0.47000000000E+01 0. -1.
         -5    1    4    4    0  503 -0.19294234833E+02 -0.52822523926E+02  0.54907535025E+02  0.78736357131E+02  0.47000000000E+01 0.  1.
          5    1    4    4  503    0  0.18168792377E+02  0.15759109314E+02 -0.13034275308E+02  0.27756744687E+02  0.47000000000E+01 0. -1.
         -5    1    3    3    0  502 -0.38582076270E+02  0.38391036463E+02  0.12117197685E+03  0.13291796818E+03  0.47000000000E+01 0.  1.
<mgrwt>
<rscale>  0 0.97708100E+02</rscale>
<asrwt>0</asrwt>
<pdfrwt beam="1">  1        2 0.53623917E-01 0.97915325E+02</pdfrwt>
<pdfrwt beam="2">  1       -2 0.62921349E-02 0.97915325E+02</pdfrwt>
<totfact> 0.11739134E+04</totfact>
</mgrwt>
</event>
<event>
 8    1  0.7366917E-004  0.1178539E+03  0.7546771E-02  0.1247315E+00
          3   -1    0    0  501    0  0.00000000000E+00  0.00000000000E+00  0.10600576301E+03  0.10600576301E+03  0.00000000000E+00 0. -1.
         -3   -1    0    0    0  501 -0.00000000000E+00 -0.00000000000E+00 -0.22737278328E+03  0.22737278328E+03  0.00000000000E+00 0.  1.
         23    2    1    2    0    0  0.41062504865E+02  0.60983081027E+02  0.48529324387E+02  0.12745447426E+03  0.92111249081E+02 0.  0.
         23    2    1    2    0    0 -0.41062504865E+02 -0.60983081027E+02 -0.16989634466E+03  0.20592407202E+03  0.90193625226E+02 0.  0.
          5    1    3    3  502    0  0.68556590298E+02  0.47438050223E+02  0.48262597699E+02  0.96445544319E+02  0.47000000000E+01 0. -1.
         -5    1    4    4    0  503 -0.67596146274E+02 -0.52429113515E+02 -0.14413638275E+03  0.16767658682E+03  0.47000000000E+01 0.  1.
          5    1    4    4  503    0  0.26533641409E+02 -0.85539675111E+01 -0.25759961912E+02  0.38247485203E+02  0.47000000000E+01 0. -1.
         -5    1    3    3    0  502 -0.27494085433E+02  0.13545030803E+02  0.26672668839E+00  0.31008929946E+02  0.47000000000E+01 0.  1.
<mgrwt>
<rscale>  0 0.11747899E+03</rscale>
<asrwt>0</asrwt>
<pdfrwt beam="1">  1        3 0.16308579E-01 0.11785393E+03</pdfrwt>
<pdfrwt beam="2">  1       -3 0.34980428E-01 0.11785393E+03</pdfrwt>
<totfact> 0.58519918E+02</totfact>
</mgrwt>
</event>
<event>
 8    1  0.7366917E-004  0.9583422E+02  0.7546771E-02  0.1292090E+00
          2   -1    0    0  501    0  0.00000000000E+00  0.00000000000E+00  0.58320749193E+03  0.58320749193E+03  0.00000000000E+00 0.  1.
         -2   -1    0    0    0  501 -0.00000000000E+00 -0.00000000000E+00 -0.16528614201E+02  0.16528614201E+02  0.00000000000E+00 0. -1.
         23    2    1    2    0    0  0.10635920792E+02  0.22902920494E+02  0.36904220357E+03  0.38008990891E+03  0.87398651371E+02 0.  0.
         23    2    1    2    0    0 -0.10635920792E+02 -0.22902920494E+02  0.19763667416E+03  0.21964619723E+03  0.92447446708E+02 0.  0.
          5    1    3    3  502    0 -0.91425019852E+01 -0.29948231650E+02  0.17944684955E+03  0.18221894450E+03  0.47000000000E+01 0. -1.
         -5    1    4    4    0  503  0.11689830788E+02 -0.54293376046E+02  0.13373249881E+03  0.14488234559E+03  0.47000000000E+01 0.  1.
          5    1    4    4  503    0 -0.22325751579E+02  0.31390455552E+02  0.63904175353E+02  0.74763851632E+02  0.47000000000E+01 0. -1.
         -5    1    3    3    0  502  0.19778422777E+02  0.52851152144E+02  0.18959535401E+03  0.19787096440E+03  0.47000000000E+01 0.  1.
<mgrwt>
<rscale>  0 0.94595235E+02</rscale>
<asrwt>0</asrwt>
<pdfrwt beam="1">  1        2 0.89724214E-01 0.95834216E+02</pdfrwt>
<pdfrwt beam="2">  1       -2 0.25428642E-02 0.95834216E+02</pdfrwt>
<totfact> 0.25654357E+04</totfact>
</mgrwt>
</event>
<event>
 8    1  0.7366917E-004  0.1294215E+03  0.7546771E-02  0.1228611E+00
          1   -1    0    0  501    0  0.00000000000E+00  0.00000000000E+00  0.73221360380E+03  0.73221360380E+03  0.00000000000E+00 0. -1.
         -1   -1    0    0    0  501 -0.00000000000E+00 -0.00000000000E+00 -0.22864663123E+02  0.22864663123E+02  0.00000000000E+00 0.  1.
         23    2    1    2    0    0  0.66054504913E+02 -0.64023315667E+02  0.38181382311E+03  0.40290049223E+03  0.89915674670E+02 0.  0.
         23    2    1    2    0    0 -0.66054504913E+02  0.64023315667E+02  0.32753511757E+03  0.35217777469E+03  0.91037075863E+02 0.  0.
          5    1    3    3  502    0  0.82404921886E+02 -0.44223184961E+02  0.34684169842E+03  0.35925967628E+03  0.47000000000E+01 0. -1.
         -5    1    4    4    0  503 -0.84845858721E+02  0.33081500123E+02  0.20604212160E+03  0.22531899891E+03  0.47000000000E+01 0.  1.
          5    1    4    4  503    0  0.18791353808E+02  0.30941815544E+02  0.12149299596E+03  0.12685877579E+03  0.47000000000E+01 0. -1.
         -5    1    3    3    0  502 -0.16350416973E+02 -0.19800130705E+02  0.34972124693E+02  0.43640815949E+02  0.47000000000E+01 0.  1.
<mgrwt>
<rscale>  0 0.12922449E+03</rscale>
<asrwt>0</asrwt>
<pdfrwt beam="1">  1        1 0.11264823E+00 0.12942153E+03</pdfrwt>
<pdfrwt beam="2">  1       -1 0.35176410E-02 0.12942153E+03</pdfrwt>
<totfact> 0.75450860E+03</totfact>
</mgrwt>
</event>
<event>
 8    1  0.7366917E-004  0.9469300E+02  0.7546771E-02  0.1293669E+00
          2   -1    0    0  501    0  0.00000000000E+00  0.00000000000E+00  0.60258947599E+03  0.60258947599E+03  0.00000000000E+00 0. -1.
         -2   -1    0    0    0  501 -0.00000000000E+00 -0.00000000000E+00 -0.14520548711E+02  0.14520548711E+02  0.00000000000E+00 0.  1.
         23    2    1    2    0    0 -0.11625147449E+02 -0.44192968547E+01  0.27003202219E+03  0.28615390486E+03  0.93872733093E+02 0.  0.
         23    2    1    2    0    0  0.11625147449E+02  0.44192968547E+01  0.31803690509E+03  0.33095611984E+03  0.90718278345E+02 0.  0.
          5    1    4    4  502    0  0.43860847340E+02  0.21598353952E+02  0.23562235030E+03  0.24068702662E+03  0.47000000000E+01 0. -1.
         -5    1    3    3    0  503 -0.14644902824E+02 -0.40181808693E+02  0.22133503308E+03  0.22547802065E+03  0.47000000000E+01 0.  1.
          5    1    3    3  503    0  0.30197553751E+01  0.35762511839E+02  0.48696989108E+02  0.60675884202E+02  0.47000000000E+01 0. -1.
         -5    1    4    4    0  502 -0.32235699892E+02 -0.17179057097E+02  0.82414554787E+02  0.90269093221E+02  0.47000000000E+01 0.  1.
<mgrwt>
<rscale>  0 0.93901586E+02</rscale>
<asrwt>0</asrwt>
<pdfrwt beam="1">  1        2 0.92706054E-01 0.94693000E+02</pdfrwt>
<pdfrwt beam="2">  1       -2 0.22339310E-02 0.94693000E+02</pdfrwt>
<totfact> 0.29788683E+04</totfact>
</mgrwt>
</event>
<event>
 8    1  0.7366917E-004  0.9630498E+02  0.7546771E-02  0.1288555E+00
         -3   -1    0    0    0  501 -0.00000000000E+00  0.00000000000E+00  0.14984174193E+03  0.14984174193E+03  0.00000000000E+00 0.  1.
          3   -1    0    0  501    0  0.00000000000E+00 -0.00000000000E+00 -0.13256551207E+03  0.13256551207E+03  0.00000000000E+00 0. -1.
         23    2    1    2    0    0 -0.19482187275E+02 -0.28061193591E+02  0.11199176560E+03  0.14770512842E+03  0.90042563239E+02 0.  0.
         23    2    1    2    0    0  0.19482187275E+02  0.28061193591E+02 -0.94715535726E+02  0.13470212558E+03  0.89479850916E+02 0.  0.
          5    1    3    3  502    0  0.29558529157E+02  0.41373428985E+01  0.67410425881E+02  0.73872049989E+02  0.47000000000E+01 0. -1.
         -5    1    4    4    0  503 -0.13321648081E+02  0.51625654454E+02 -0.41490086515E+02  0.67721427808E+02  0.47000000000E+01 0.  1.
          5    1    4    4  503    0  0.32803835356E+02 -0.23564460862E+02 -0.53225449211E+02  0.66980697768E+02  0.47000000000E+01 0. -1.
         -5    1    3    3    0  502 -0.49040716433E+02 -0.32198536490E+02  0.44581339715E+02  0.73833078435E+02  0.47000000000E+01 0.  1.
<mgrwt>
<rscale>  0 0.96173233E+02</rscale>
<asrwt>0</asrwt>
<pdfrwt beam="1">  1        3 0.20394694E-01 0.96304981E+02</pdfrwt>
<pdfrwt beam="2">  1       -3 0.23052576E-01 0.96304981E+02</pdfrwt>
<totfact> 0.82284429E+02</totfact>
</mgrwt>
</event>
<event>
 8    1  0.7366917E-004  0.1091971E+03  0.7546771E-02  0.1262449E+00
         -1   -1    0    0    0  501 -0.00000000000E+00  0.00000000000E+00  0.41002756162E+03  0.41002756162E+03  0.00000000000E+00 0.  1.
          1   -1    0    0  501    0  0.00000000000E+00 -0.00000000000E+00 -0.28871924904E+02  0.28871924904E+02  0.00000000000E+00 0. -1.
         23    2    1    2    0    0  0.36122955715E+02  0.40893402281E+02  0.19518598229E+03  0.22365503768E+03  0.94587895214E+02 0.  0.
         23    2    1    2    0    0 -0.36122955715E+02 -0.40893402281E+02  0.18596965443E+03  0.21524444884E+03  0.93639319240E+02 0.  0.
          5    1    4    4  502    0  0.49613880850E+00  0.28214814554E+02  0.66274026430E+02  0.72184891032E+02  0.47000000000E+01 0. -1.
         -5    1    3    3    0  503 -0.31183725027E+02  0.21750321720E+02  0.56795505837E+02  0.68507814771E+02  0.47000000000E+01 0.  1.
          5    1    3    3  503    0  0.67306680742E+02  0.19143080561E+02  0.13839047645E+03  0.15514722291E+03  0.47000000000E+01 0. -1.
         -5    1    4    4    0  502 -0.36619094523E+02 -0.69108216835E+02  0.11969562800E+03  0.14305955781E+03  0.47000000000E+01 0.  1.
<mgrwt>
<rscale>  0 0.10899137E+03</rscale>
<asrwt>0</asrwt>
<pdfrwt beam="1">  1        1 0.44418349E-02 0.10919711E+03</pdfrwt>
<pdfrwt beam="2">  1       -1 0.63081159E-01 0.10919711E+03</pdfrwt>
<totfact> 0.48642641E+03</totfact>
</mgrwt>
</event>
<event>
 8    1  0.7366917E-004  0.1005146E+03  0.7546771E-02  0.1279710E+00
          2   -1    0    0  501    0  0.00000000000E+00  0.00000000000E+00  0.37367562454E+03  0.37367562454E+03  0.00000000000E+00 0. -1.
         -2   -1    0    0    0  501 -0.00000000000E+00 -0.00000000000E+00 -0.37954248055E+02  0.37954248055E+02  0.00000000000E+00 0.  1.
         23    2    1    2    0    0  0.41043894814E+02 -0.28610882925E+01  0.55656688311E+02  0.11407412998E+03  0.90677742851E+02 0.  0.
         23    2    1    2    0    0 -0.41043894814E+02  0.28610882925E+01  0.28006468817E+03  0.29755574261E+03  0.91708250859E+02 0.  0.
          5    1    3    3  502    0 -0.20027578417E+02  0.72906629908E+01  0.46430989379E+02  0.51304818865E+02  0.47000000000E+01 0. -1.
         -5    1    3    3    0  502  0.61071473230E+02 -0.10151751283E+02  0.92256989320E+01  0.62769311111E+02  0.47000000000E+01 0.  1.
          5    1    4    4  503    0 -0.14941112661E+01 -0.23536180993E+02  0.21753335970E+03  0.21885848571E+03  0.47000000000E+01 0. -1.
         -5    1    4    4    0  503 -0.39549783547E+02  0.26397269285E+02  0.62531328469E+02  0.78697256906E+02  0.47000000000E+01 0.  1.
<mgrwt>
<rscale>  0 0.10027897E+03</rscale>
<asrwt>0</asrwt>
<pdfrwt beam="1">  1        2 0.57488555E-01 0.10051463E+03</pdfrwt>
<pdfrwt beam="2">  1       -2 0.58391154E-02 0.10051463E+03</pdfrwt>
<totfact> 0.12236469E+04</totfact>
</mgrwt>
</event>
<event>
 8    1  0.7366917E-004  0.1313155E+03  0.7546771E-02  0.1226466E+00
          1   -1    0    0  501    0  0.00000000000E+00  0.00000000000E+00  0.39698518084E+03  0.39698518084E+03  0.00000000000E+00 0. -1.
         -1   -1    0    0    0  501 -0.00000000000E+00 -0.00000000000E+00 -0.53735113889E+02  0.53735113889E+02  0.00000000000E+00 0.  1.
         23    2    1    2    0    0 -0.86059415681E+02 -0.32146955617E+02  0.70347561862E+02  0.14897165011E+03  0.93830289847E+02 0.  0.
         23    2    1    2    0    0  0.86059415681E+02  0.32146955617E+02  0.27290250509E+03  0.30174864462E+03  0.90204309567E+02 0.  0.
          5    1    4    4  502    0 -0.54047715468E+01  0.26028871606E+02  0.12338897637E+03  0.12630773215E+03  0.47000000000E+01 0. -1.
         -5    1    4    4    0  502  0.91464187228E+02  0.61180840115E+01  0.14951352872E+03  0.17544091247E+03  0.47000000000E+01 0.  1.
          5    1    3    3  503    0  0.15642876614E+02 -0.23219173120E+02  0.21977628812E+02  0.35901751452E+02  0.47000000000E+01 0. -1.
         -5    1    3    3    0  503 -0.10170229230E+03 -0.89277824976E+01  0.48369933050E+02  0.11306989865E+03  0.47000000000E+01 0.  1.
<mgrwt>
<rscale>  0 0.13066931E+03</rscale>
<asrwt>0</asrwt>
<pdfrwt beam="1">  1        1 0.61074641E-01 0.13131555E+03</pdfrwt>
<pdfrwt beam="2">  1       -1 0.82669409E-02 0.13131555E+03</pdfrwt>
<totfact> 0.48108375E+03</totfact>
</mgrwt>
</event>
<event>
 8    1  0.7366917E-004  0.1177682E+03  0.7546771E-02  0.1247309E+00
         -3   -1    0    0    0  501 -0.00000000000E+00  0.00000000000E+00  0.41114461898E+02  0.41114461898E+02  0.00000000000E+00 0.  1.
          3   -1    0    0  501    0  0.00000000000E+00 -0.00000000000E+00 -0.36645925899E+03  0.36645925899E+03  0.00000000000E+00 0. -1.
         23    2    1    2    0    0  0.71511236748E+02  0.13862090467E+02 -0.22252857160E+03  0.25123903743E+03  0.91082787716E+02 0.  0.
         23    2    1    2    0    0 -0.71511236748E+02 -0.13862090467E+02 -0.10281622549E+03  0.15633468345E+03  0.92538329862E+02 0.  0.
          5    1    4    4  502    0 -0.32241542568E+02  0.28202125896E+02 -0.86009720179E+02  0.96201033973E+02  0.47000000000E+01 0. -1.
         -5    1    3    3    0  503  0.64802801779E+02 -0.30106197476E+02 -0.14552227652E+03  0.16218695758E+03  0.47000000000E+01 0.  1.
          5    1    3    3  503    0  0.67084349683E+01  0.43968287943E+02 -0.77006295079E+02  0.89052079853E+02  0.47000000000E+01 0. -1.
         -5    1    4    4    0  502 -0.39269694180E+02 -0.42064216363E+02 -0.16806505310E+02  0.60133649481E+02  0.47000000000E+01 0.  1.
<mgrwt>
<rscale>  0 0.11748213E+03</rscale>
<asrwt>0</asrwt>
<pdfrwt beam="1">  1        3 0.56378349E-01 0.11776823E+03</pdfrwt>
<pdfrwt beam="2">  1       -3 0.63253017E-02 0.11776823E+03</pdfrwt>
<totfact> 0.11020947E+03</totfact>
</mgrwt>
</event>
<event>
 7    1  0.7366917E-004  0.1869184E+03  0.7546771E-02  0.1190005E+00
          1   -1    0    0  501    0  0.00000000000E+00  0.00000000000E+00  0.59170890851E+03  0.59170890851E+03  0.00000000000E+00 0. -1.
         -1   -1    0    0    0  501 -0.00000000000E+00 -0.00000000000E+00 -0.57492097231E+03  0.57492097231E+03  0.00000000000E+00 0.  1.
         23    2    1    2    0    0 -0.28488674884E+02 -0.26261160958E+01  0.57228423367E+03  0.58052868344E+03  0.93197677631E+02 0.  0.
          5    1    1    2  502    0 -0.15679248401E+02 -0.60965218538E+02 -0.69234532308E+02  0.93691553332E+02  0.47000000000E+01 0. -1.
         -5    1    3    3    0  503 -0.81746293601E+01  0.42815194690E+02  0.19020526738E+03  0.19519246707E+03  0.47000000000E+01 0.  1.
          5    1    3    3  503    0 -0.20314045524E+02 -0.45441310786E+02  0.38207896628E+03  0.38533621637E+03  0.47000000000E+01 0. -1.
         -5    1    1    2    0  502  0.44167923286E+02  0.63591334634E+02 -0.48626176516E+03  0.49240964404E+03  0.47000000000E+01 0.  1.
<mgrwt>
<rscale>  0 0.15884701E+03</rscale>
<asrwt>0</asrwt>
<pdfrwt beam="1">  1        1 0.91032140E-01 0.18691837E+03</pdfrwt>
<pdfrwt beam="2">  1       -1 0.88449381E-01 0.18691837E+03</pdfrwt>
<totfact> 0.49233819E+01</totfact>
</mgrwt>
</event>
<event>
 8    1  0.7366917E-004  0.1170083E+03  0.7546771E-02  0.1249190E+00
         -4   -1    0    0    0  501 -0.00000000000E+00  0.00000000000E+00  0.13251484120E+03  0.13251484120E+03  0.00000000000E+00 0.  1.
          4   -1    0    0  501    0  0.00000000000E+00 -0.00000000000E+00 -0.17001707587E+03  0.17001707587E+03  0.00000000000E+00 0. -1.
         23    2    1    2    0    0 -0.41912446746E+02 -0.55601115427E+02  0.77411749529E+02  0.14029798887E+03  0.94036213700E+02 0.  0.
         23    2    1    2    0    0  0.41912446746E+02  0.55601115427E+02 -0.11491398420E+03  0.16223392820E+03  0.90920220335E+02 0.  0.
          5    1    3    3  502    0 -0.30646187264E+02 -0.34610563997E+02 -0.11716477471E+02  0.47921245584E+02  0.47000000000E+01 0. -1.
         -5    1    3    3    0  502 -0.11266259482E+02 -0.20990551430E+02  0.89128227000E+02  0.92376743287E+02  0.47000000000E+01 0.  1.
          5    1    4    4  503    0  0.13436872637E+02  0.28445416619E+02 -0.11826171610E+03  0.12246474909E+03  0.47000000000E+01 0. -1.
         -5    1    4    4    0  503  0.28475574109E+02  0.27155698808E+02  0.33477319037E+01  0.39769179115E+02  0.47000000000E+01 0.  1.
<mgrwt>
<rscale>  0 0.11638099E+03</rscale>
<asrwt>0</asrwt>
<pdfrwt beam="1">  1        4 0.26156473E-01 0.11700832E+03</pdfrwt>
<pdfrwt beam="2">  1       -4 0.20386899E-01 0.11700832E+03</pdfrwt>
<totfact> 0.48313692E+02</totfact>
</mgrwt>
</event>
<event>
 8    1  0.7366917E-004  0.2698629E+03  0.7546771E-02  0.1101365E+00
         -2   -1    0    0    0  501 -0.00000000000E+00  0.00000000000E+00  0.29597723509E+03  0.29597723509E+03  0.00000000000E+00 0.  1.
          2   -1    0    0  501    0  0.00000000000E+00 -0.00000000000E+00 -0.33040540947E+03  0.33040540947E+03  0.00000000000E+00 0. -1.
         23    2    1    2    0    0  0.22353884119E+03 -0.12042600796E+03 -0.17550116349E+03  0.32191089573E+03  0.91399833092E+02 0.  0.
         23    2    1    2    0    0 -0.22353884119E+03  0.12042600796E+03  0.14107298911E+03  0.30447174883E+03  0.91265659849E+02 0.  0.
          5    1    3    3  502    0  0.70949819091E+02 -0.24015148382E+02 -0.10276839131E+03  0.12725579136E+03  0.47000000000E+01 0. -1.
         -5    1    4    4    0  503 -0.20605155491E+03  0.73096787620E+02  0.10743773292E+03  0.24365003611E+03  0.47000000000E+01 0.  1.
          5    1    4    4  503    0 -0.17487286277E+02  0.47329220341E+02  0.33635256188E+02  0.60821712721E+02  0.47000000000E+01 0. -1.
         -5    1    3    3    0  502  0.15258902210E+03 -0.96410859579E+02 -0.72732772177E+02  0.19465510437E+03  0.47000000000E+01 0.  1.
<mgrwt>
<rscale>  0 0.26985151E+03</rscale>
<asrwt>0</asrwt>
<pdfrwt beam="1">  1        2 0.50831602E-01 0.26986287E+03</pdfrwt>
<pdfrwt beam="2">  1       -2 0.45534959E-01 0.26986287E+03</pdfrwt>
<totfact> 0.45770229E+02</totfact>
</mgrwt>
</event>
<event>
 7    1  0.7366917E-004  0.2101361E+03  0.7546771E-02  0.1155225E+00
         -1   -1    0    0    0  501 -0.00000000000E+00  0.00000000000E+00  0.27676104166E+03  0.27676104166E+03  0.00000000000E+00 0.  1.
          1   -1    0    0  501    0  0.00000000000E+00 -0.00000000000E+00 -0.16480687724E+03  0.16480687724E+03  0.00000000000E+00 0. -1.
         23    2    1    2    0    0  0.21685011734E+02  0.11512998658E+03 -0.66907106685E+02  0.16561769979E+03  0.96059918882E+02 0.  0.
          5    1    1    2  502    0 -0.27194712608E+02  0.37119239287E+02  0.85496587857E+02  0.97206722269E+02  0.47000000000E+01 0. -1.
         -5    1    3    3    0  503 -0.35999098478E+02  0.53763666755E+02 -0.43395897736E+02  0.78049733468E+02  0.47000000000E+01 0.  1.
          5    1    3    3  503    0  0.57684110212E+02  0.61366319827E+02 -0.23511208949E+02  0.87567966325E+02  0.47000000000E+01 0. -1.
         -5    1    1    2    0  502  0.55097008737E+01 -0.15224922587E+03  0.93364683252E+02  0.17874349683E+03  0.47000000000E+01 0.  1.
<mgrwt>
<rscale>  0 0.19363310E+03</rscale>
<asrwt>0</asrwt>
<pdfrwt beam="1">  1        1 0.25354904E-01 0.21013607E+03</pdfrwt>
<pdfrwt beam="2">  1       -1 0.42578622E-01 0.21013607E+03</pdfrwt>
<totfact> 0.10335684E+03</totfact>
</mgrwt>
</event>
<event>
 7    1  0.7366917E-004  0.1928762E+03  0.7546771E-02  0.1174496E+00
         -2   -1    0    0    0  501 -0.00000000000E+00  0.00000000000E+00  0.17902212896E+03  0.17902212896E+03  0.00000000000E+00 0.  1.
          2   -1    0    0  501    0  0.00000000000E+00 -0.00000000000E+00 -0.20862024517E+03  0.20862024517E+03  0.00000000000E+00 0. -1.
         23    2    1    2    0    0  0.70095801667E+02  0.14743697572E+02  0.95488808086E+02  0.15775548378E+03  0.10314010938E+03 0.  0.
          5    1    3    3  502    0 -0.21778068087E+02 -0.11260236576E+02  0.40199784814E+02  0.47320078999E+02  0.47000000000E+01 0. -1.
         -5    1    1    2    0  503 -0.66900223751E+01  0.77458941332E+02 -0.71491571358E+02  0.10572501486E+03  0.47000000000E+01 0.  1.
          5    1    1    2  503    0 -0.63405779292E+02 -0.92202638904E+02 -0.53595352943E+02  0.12416187549E+03  0.47000000000E+01 0. -1.
         -5    1    3    3    0  502  0.91873869754E+02  0.26003934149E+02  0.55289023272E+02  0.11043540478E+03  0.47000000000E+01 0.  1.
<mgrwt>
<rscale>  0 0.17325408E+03</rscale>
<asrwt>0</asrwt>
<pdfrwt beam="1">  1        2 0.32095422E-01 0.19287624E+03</pdfrwt>
<pdfrwt beam="2">  1       -2 0.27541866E-01 0.19287624E+03</pdfrwt>
<totfact> 0.19199297E+03</totfact>
</mgrwt>
</event>
<event>
 7    1  0.7366917E-004  0.1357969E+03  0.7546771E-02  0.1234464E+00
          1   -1    0    0  501    0  0.00000000000E+00  0.00000000000E+00  0.47079455321E+03  0.47079455321E+03  0.00000000000E+00 0. -1.
         -1   -1    0    0    0  501 -0.00000000000E+00 -0.00000000000E+00 -0.30071106157E+02  0.30071106157E+02  0.00000000000E+00 0.  1.
         23    2    1    2    0    0 -0.29004374436E+00  0.37475146941E+02  0.14446884785E+03  0.17497062682E+03  0.91318133409E+02 0.  0.
          5    1    3    3  502    0  0.40818413813E+02  0.16558548102E+02  0.36256658178E+02  0.57244769924E+02  0.47000000000E+01 0. -1.
         -5    1    1    2    0  503 -0.47189513926E+02 -0.59675960807E+02  0.12188043220E+03  0.14375326179E+03  0.47000000000E+01 0.  1.
          5    1    1    2  503    0  0.47479557670E+02  0.22200813865E+02  0.17437416701E+03  0.18214177075E+03  0.47000000000E+01 0. -1.
         -5    1    3    3    0  502 -0.41108457557E+02  0.20916598839E+02  0.10821218967E+03  0.11772585690E+03  0.47000000000E+01 0.  1.
<mgrwt>
<rscale>  0 0.12538815E+03</rscale>
<asrwt>0</asrwt>
<pdfrwt beam="1">  1        1 0.72429926E-01 0.13579685E+03</pdfrwt>
<pdfrwt beam="2">  1       -1 0.46263244E-02 0.13579685E+03</pdfrwt>
<totfact> 0.92221157E+03</totfact>
</mgrwt>
</event>
<event>
 8    1  0.7366917E-004  0.9731333E+02  0.7546771E-02  0.1289091E+00
         -1   -1    0    0    0  501 -0.00000000000E+00  0.00000000000E+00  0.59354661756E+02  0.59354661756E+02  0.00000000000E+00 0.  1.
          1   -1    0    0  501    0  0.00000000000E+00 -0.00000000000E+00 -0.25628710298E+03  0.25628710298E+03  0.00000000000E+00 0. -1.
         23    2    1    2    0    0 -0.13135385799E+02 -0.15710627448E+01 -0.19803563540E+03  0.21832218308E+03  0.90947546081E+02 0.  0.
         23    2    1    2    0    0  0.13135385799E+02  0.15710627448E+01  0.11031941747E+01  0.97319581658E+02  0.96409944189E+02 0.  0.
          5    1    3    3  502    0  0.34652795858E+02  0.17824554235E+02 -0.70827443439E+02  0.80976217117E+02  0.47000000000E+01 0. -1.
         -5    1    4    4    0  503 -0.38678162561E+02 -0.15681591259E+02 -0.44089965033E+01  0.42230815925E+02  0.47000000000E+01 0.  1.
          5    1    4    4  503    0  0.51813548361E+02  0.17252654004E+02  0.55121906779E+01  0.55088765733E+02  0.47000000000E+01 0. -1.
         -5    1    3    3    0  502 -0.47788181658E+02 -0.19395616980E+02 -0.12720819196E+03  0.13734596596E+03  0.47000000000E+01 0.  1.
<mgrwt>
<rscale>  0 0.95932023E+02</rscale>
<asrwt>0</asrwt>
<pdfrwt beam="1">  1        1 0.39428786E-01 0.97313329E+02</pdfrwt>
<pdfrwt beam="2">  1       -1 0.91314863E-02 0.97313329E+02</pdfrwt>
<totfact> 0.69722947E+03</totfact>
</mgrwt>
</event>
<event>
 8    1  0.7366917E-004  0.9969288E+02  0.7546771E-02  0.1281184E+00
         -1   -1    0    0    0  501 -0.00000000000E+00  0.00000000000E+00  0.18427954239E+02  0.18427954239E+02  0.00000000000E+00 0.  1.
          1   -1    0    0  501    0  0.00000000000E+00 -0.00000000000E+00 -0.75007668299E+03  0.75007668299E+03  0.00000000000E+00 0. -1.
         23    2    1    2    0    0 -0.14300277674E+02  0.34875463522E+02 -0.16155890284E+03  0.18984190887E+03  0.92292336523E+02 0.  0.
         23    2    1    2    0    0  0.14300277674E+02 -0.34875463522E+02 -0.57008982592E+03  0.57866272836E+03  0.91800586503E+02 0.  0.
          5    1    4    4  502    0 -0.15206381053E+02 -0.58571446269E+02 -0.32405993183E+03  0.32969497685E+03  0.47000000000E+01 0. -1.
         -5    1    4    4    0  502  0.29506658727E+02  0.23695982747E+02 -0.24602989409E+03  0.24896775151E+03  0.47000000000E+01 0.  1.
          5    1    3    3  503    0  0.61892760026E+01 -0.28161720655E+02 -0.76604986625E+02  0.81986606366E+02  0.47000000000E+01 0. -1.
         -5    1    3    3    0  503 -0.20489553677E+02  0.63037184177E+02 -0.84953916212E+02  0.10785530251E+03  0.47000000000E+01 0.  1.
<mgrwt>
<rscale>  0 0.99578922E+02</rscale>
<asrwt>0</asrwt>
<pdfrwt beam="1">  1        1 0.11539643E+00 0.99692885E+02</pdfrwt>
<pdfrwt beam="2">  1       -1 0.28350695E-02 0.99692885E+02</pdfrwt>
<totfact> 0.97982632E+03</totfact>
</mgrwt>
</event>
<event>
 8    1  0.7366917E-004  0.1440697E+03  0.7546771E-02  0.1208042E+00
          2   -1    0    0  501    0  0.00000000000E+00  0.00000000000E+00  0.10669620705E+04  0.10669620705E+04  0.00000000000E+00 0. -1.
         -2   -1    0    0    0  501 -0.00000000000E+00 -0.00000000000E+00 -0.21164701185E+02  0.21164701185E+02  0.00000000000E+00 0.  1.
         23    2    1    2    0    0  0.10872239724E+03 -0.14335916541E+01  0.36613500423E+03  0.39336278314E+03  0.94110695380E+02 0.  0.
         23    2    1    2    0    0 -0.10872239724E+03  0.14335916541E+01  0.67966236510E+03  0.69476398857E+03  0.94516953134E+02 0.  0.
          5    1    4    4  502    0 -0.10920413532E+03 -0.28934515783E+02  0.51636793303E+03  0.52860257438E+03  0.47000000000E+01 0. -1.
         -5    1    3    3    0  503  0.79011130727E+02  0.38816067031E+02  0.17801590869E+03  0.19864843212E+03  0.47000000000E+01 0.  1.
          5    1    3    3  503    0  0.29711266512E+02 -0.40249658685E+02  0.18811909554E+03  0.19471435101E+03  0.47000000000E+01 0. -1.
         -5    1    4    4    0  502  0.48173808428E+00  0.30368107437E+02  0.16329443207E+03  0.16616141419E+03  0.47000000000E+01 0.  1.
<mgrwt>
<rscale>  0 0.14400307E+03</rscale>
<asrwt>0</asrwt>
<pdfrwt beam="1">  1        2 0.16414797E+00 0.14406967E+03</pdfrwt>
<pdfrwt beam="2">  1       -2 0.32561087E-02 0.14406967E+03</pdfrwt>
<totfact> 0.86977733E+03</totfact>
</mgrwt>
</event>
<event>
 8    1  0.7366917E-004  0.1045591E+03  0.7546771E-02  0.1276624E+00
          1   -1    0    0  501    0  0.00000000000E+00  0.00000000000E+00  0.48698791364E+03  0.48698791364E+03  0.00000000000E+00 0. -1.
         -1   -1    0    0    0  501 -0.00000000000E+00 -0.00000000000E+00 -0.59996787124E+02  0.59996787124E+02  0.00000000000E+00 0.  1.
         23    2    1    2    0    0 -0.54341035738E+01 -0.85643955284E+01 -0.13012792817E+02  0.94728073949E+02  0.93280206179E+02 0.  0.
         23    2    1    2    0    0  0.54341035738E+01  0.85643955284E+01  0.44000391933E+03  0.45225662682E+03  0.10406598444E+03 0.  0.
          5    1    3    3  502    0  0.17882007792E+02 -0.23586956437E+02  0.30598401519E+02  0.42830630304E+02  0.47000000000E+01 0. -1.
         -5    1    3    3    0  502 -0.23316111366E+02  0.15022560909E+02 -0.43611194336E+02  0.51897443645E+02  0.47000000000E+01 0.  1.
          5    1    4    4  503    0  0.30710245844E+02  0.47763726080E+02  0.26715206347E+03  0.27316077271E+03  0.47000000000E+01 0. -1.
         -5    1    4    4    0  503 -0.25276142270E+02 -0.39199330552E+02  0.17285185586E+03  0.17909585411E+03  0.47000000000E+01 0.  1.
<mgrwt>
<rscale>  0 0.10176698E+03</rscale>
<asrwt>0</asrwt>
<pdfrwt beam="1">  1        1 0.74921215E-01 0.10455911E+03</pdfrwt>
<pdfrwt beam="2">  1       -1 0.92302752E-02 0.10455911E+03</pdfrwt>
<totfact> 0.31065466E+03</totfact>
</mgrwt>
</event>
<event>
 8    1  0.7366917E-004  0.1464010E+03  0.7546771E-02  0.1206648E+00
          3   -1    0    0  501    0  0.00000000000E+00  0.00000000000E+00  0.19597142439E+02  0.19597142439E+02  0.00000000000E+00 0. -1.
         -3   -1    0    0    0  501 -0.00000000000E+00 -0.00000000000E+00 -0.14199201245E+04  0.14199201245E+04  0.00000000000E+00 0.  1.
         23    2    1    2    0    0 -0.10551965808E+02 -0.10969188199E+03 -0.32600564464E+03  0.35527052419E+03  0.88282569414E+02 0.  0.
         23    2    1    2    0    0  0.10551965808E+02  0.10969188199E+03 -0.10743173374E+04  0.10842467427E+04  0.96382595568E+02 0.  0.
          5    1    4    4  502    0 -0.32764952047E+02  0.32231950410E+02 -0.19269613949E+03  0.19815734375E+03  0.47000000000E+01 0. -1.
         -5    1    3    3    0  503  0.27419225221E+02 -0.26661280156E+02 -0.17122190775E+03  0.17550404401E+03  0.47000000000E+01 0.  1.
          5    1    3    3  503    0 -0.37971191030E+02 -0.83030601830E+02 -0.15478373689E+03  0.17976648018E+03  0.47000000000E+01 0. -1.
         -5    1    4    4    0  502  0.43316917855E+02  0.77459931577E+02 -0.88162119792E+03  0.88608939899E+03  0.47000000000E+01 0.  1.
<mgrwt>
<rscale>  0 0.14508310E+03</rscale>
<asrwt>0</asrwt>
<pdfrwt beam="1">  1        3 0.30149438E-02 0.14640102E+03</pdfrwt>
<pdfrwt beam="2">  1       -3 0.21844934E+00 0.14640102E+03</pdfrwt>
<totfact> 0.14951857E+02</totfact>
</mgrwt>
</event>
<event>
 8    1  0.7366917E-004  0.1081863E+03  0.7546771E-02  0.1265495E+00
          1   -1    0    0  501    0  0.00000000000E+00  0.00000000000E+00  0.64830683843E+03  0.64830683843E+03  0.00000000000E+00 0. -1.
         -1   -1    0    0    0  501 -0.00000000000E+00 -0.00000000000E+00 -0.18588647402E+02  0.18588647402E+02  0.00000000000E+00 0.  1.
         23    2    1    2    0    0  0.26572209266E+02  0.47896065031E+02  0.23960935586E+03  0.26290098073E+03  0.93296124799E+02 0.  0.
         23    2    1    2    0    0 -0.26572209266E+02 -0.47896065031E+02  0.39010883517E+03  0.40399450510E+03  0.89590967882E+02 0.  0.
          5    1    3    3  502    0  0.23221380065E+02 -0.25353231829E+02  0.75226140842E+02  0.82843715044E+02  0.47000000000E+01 0. -1.
         -5    1    3    3    0  502  0.33508292007E+01  0.73249296860E+02  0.16438321502E+03  0.18005726569E+03  0.47000000000E+01 0.  1.
          5    1    4    4  503    0 -0.94915862085E+01 -0.59678595038E+02  0.36927704434E+03  0.37421818554E+03  0.47000000000E+01 0. -1.
         -5    1    4    4    0  503 -0.17080623057E+02  0.11782530007E+02  0.20831790827E+02  0.29776319558E+02  0.47000000000E+01 0.  1.
<mgrwt>
<rscale>  0 0.10738281E+03</rscale>
<asrwt>0</asrwt>
<pdfrwt beam="1">  1        1 0.99739496E-01 0.10818633E+03</pdfrwt>
<pdfrwt beam="2">  1       -1 0.28597924E-02 0.10818633E+03</pdfrwt>
<totfact> 0.11963144E+04</totfact>
</mgrwt>
</event>
<event>
 8    1  0.7366917E-004  0.1043688E+03  0.7546771E-02  0.1273626E+00
         -2   -1    0    0    0  501 -0.00000000000E+00  0.00000000000E+00  0.15986639137E+03  0.15986639137E+03  0.00000000000E+00 0.  1.
          2   -1    0    0  501    0  0.00000000000E+00 -0.00000000000E+00 -0.75779171784E+02  0.75779171784E+02  0.00000000000E+00 0. -1.
         23    2    1    2    0    0  0.41611502729E+02 -0.13078729901E+02  0.86702434882E+02  0.13568407489E+03  0.94817116753E+02 0.  0.
         23    2    1    2    0    0 -0.41611502729E+02  0.13078729901E+02 -0.26152152965E+01  0.99961488262E+02  0.89904891131E+02 0.  0.
          5    1    3    3  502    0 -0.28480930889E+02  0.42560973544E+01  0.11608697427E+02  0.31402701236E+02  0.47000000000E+01 0. -1.
         -5    1    4    4    0  503  0.16380025831E+02 -0.25013076790E+02 -0.30359684001E+01  0.30418191282E+02  0.47000000000E+01 0.  1.
          5    1    4    4  503    0 -0.57991528560E+02  0.38091806691E+02  0.42075310357E+00  0.69543296980E+02  0.47000000000E+01 0. -1.
         -5    1    3    3    0  502  0.70092433618E+02 -0.17334827255E+02  0.75093737454E+02  0.10428137365E+03  0.47000000000E+01 0.  1.
<mgrwt>
<rscale>  0 0.10324028E+03</rscale>
<asrwt>0</asrwt>
<pdfrwt beam="1">  1        2 0.11658334E-01 0.10436885E+03</pdfrwt>
<pdfrwt beam="2">  1       -2 0.24594829E-01 0.10436885E+03</pdfrwt>
<totfact> 0.71649463E+03</totfact>
</mgrwt>
</event>
<event>
 8    1  0.7366917E-004  0.9278098E+02  0.7546771E-02  0.1297029E+00
         -3   -1    0    0    0  501 -0.00000000000E+00  0.00000000000E+00  0.21641954967E+03  0.21641954967E+03  0.00000000000E+00 0.  1.
          3   -1    0    0  501    0  0.00000000000E+00 -0.00000000000E+00 -0.48527390948E+02  0.48527390948E+02  0.00000000000E+00 0. -1.
         23    2    1    2    0    0  0.74115425627E+01  0.13131448778E+02  0.25414208351E+02  0.94922598179E+02  0.90205608189E+02 0.  0.
         23    2    1    2    0    0 -0.74115425627E+01 -0.13131448778E+02  0.14247795037E+03  0.17002434244E+03  0.91547500074E+02 0.  0.
          5    1    4    4  502    0 -0.40992641870E+02  0.11545800086E+02  0.37349924211E+02  0.56840206066E+02  0.47000000000E+01 0. -1.
         -5    1    4    4    0  502  0.33581099307E+02 -0.24677248864E+02  0.10512802616E+03  0.11318413637E+03  0.47000000000E+01 0.  1.
          5    1    3    3  503    0 -0.32742522402E+02  0.25804553508E+02 -0.57258067160E+01  0.42341736118E+02  0.47000000000E+01 0. -1.
         -5    1    3    3    0  503  0.40154064965E+02 -0.12673104730E+02  0.31140015067E+02  0.52580862061E+02  0.47000000000E+01 0.  1.
<mgrwt>
<rscale>  0 0.92448249E+02</rscale>
<asrwt>0</asrwt>
<pdfrwt beam="1">  1        3 0.74657526E-02 0.92780982E+02</pdfrwt>
<pdfrwt beam="2">  1       -3 0.33295315E-01 0.92780982E+02</pdfrwt>
<totfact> 0.22454812E+03</totfact>
</mgrwt>
</event>
<event>
 8    1  0.7366917E-004  0.1027323E+03  0.7546771E-02  0.1276567E+00
         -2   -1    0    0    0  501 -0.00000000000E+00  0.00000000000E+00  0.50179061572E+02  0.50179061572E+02  0.00000000000E+00 0.  1.
          2   -1    0    0  501    0  0.00000000000E+00 -0.00000000000E+00 -0.41679608790E+03  0.41679608790E+03  0.00000000000E+00 0. -1.
         23    2    1    2    0    0 -0.49212986686E+02  0.82255455743E+01 -0.17662020064E+02  0.10423953443E+03  0.89801759043E+02 0.  0.
         23    2    1    2    0    0  0.49212986686E+02 -0.82255455743E+01 -0.34895500627E+03  0.36273561504E+03  0.85545031198E+02 0.  0.
          5    1    3    3  502    0 -0.73374989228E+02  0.12803130203E+02 -0.19032914858E+01  0.74656022568E+02  0.47000000000E+01 0. -1.
         -5    1    4    4    0  503  0.49681887145E+02 -0.35639492220E+02 -0.15325847741E+03  0.16507184561E+03  0.47000000000E+01 0.  1.
          5    1    4    4  503    0 -0.46890045842E+00  0.27413946646E+02 -0.19569652886E+03  0.19766376943E+03  0.47000000000E+01 0. -1.
         -5    1    3    3    0  502  0.24162002541E+02 -0.45775846291E+01 -0.15758728578E+02  0.29583511865E+02  0.47000000000E+01 0.  1.
<mgrwt>
<rscale>  0 0.10179474E+03</rscale>
<asrwt>0</asrwt>
<pdfrwt beam="1">  1        2 0.64122476E-01 0.10273234E+03</pdfrwt>
<pdfrwt beam="2">  1       -2 0.77198556E-02 0.10273234E+03</pdfrwt>
<totfact> 0.71538102E+03</totfact>
</mgrwt>
</event>
<event>
 8    1  0.7366917E-004  0.1031733E+03  0.7546771E-02  0.1279451E+00
          1   -1    0    0  501    0  0.00000000000E+00  0.00000000000E+00  0.21411187091E+02  0.21411187091E+02  0.00000000000E+00 0. -1.
         -1   -1    0    0    0  501 -0.00000000000E+00 -0.00000000000E+00 -0.77243363690E+03  0.77243363690E+03  0.00000000000E+00 0.  1.
         23    2    1    2    0    0  0.16874088853E+01 -0.56140556178E+01 -0.12999568170E+03  0.16596267850E+03  0.10300664263E+03 0.  0.
         23    2    1    2    0    0 -0.16874088853E+01  0.56140556178E+01 -0.62102676811E+03  0.62788214548E+03  0.92343797532E+02 0.  0.
          5    1    4    4  502    0 -0.45077745114E+02  0.73920371757E+01 -0.23946160582E+03  0.24382492895E+03  0.47000000000E+01 0. -1.
         -5    1    3    3    0  503  0.41729766669E+01  0.47857562378E+02 -0.49151533133E+02  0.68889209753E+02  0.47000000000E+01 0.  1.
          5    1    3    3  503    0 -0.24855677816E+01 -0.53471617996E+02 -0.80844148564E+02  0.97073468751E+02  0.47000000000E+01 0. -1.
         -5    1    4    4    0  502  0.43390336229E+02 -0.17779815579E+01 -0.38156516229E+03  0.38405721653E+03  0.47000000000E+01 0.  1.
<mgrwt>
<rscale>  0 0.10040280E+03</rscale>
<asrwt>0</asrwt>
<pdfrwt beam="1">  1        1 0.32940288E-02 0.10317332E+03</pdfrwt>
<pdfrwt beam="2">  1       -1 0.11883594E+00 0.10317332E+03</pdfrwt>
<totfact> 0.19351805E+03</totfact>
</mgrwt>
</event>
<event>
 8    1  0.7366917E-004  0.9870164E+02  0.7546771E-02  0.1285824E+00
         -3   -1    0    0    0  501 -0.00000000000E+00  0.00000000000E+00  0.21723888421E+02  0.21723888421E+02  0.00000000000E+00 0.  1.
          3   -1    0    0  501    0  0.00000000000E+00 -0.00000000000E+00 -0.45548444390E+03  0.45548444390E+03  0.00000000000E+00 0. -1.
         23    2    1    2    0    0  0.84016176875E+01 -0.16542363506E+02 -0.16134264140E+03  0.18913873660E+03  0.96942131088E+02 0.  0.
         23    2    1    2    0    0 -0.84016176875E+01  0.16542363506E+02 -0.27241791408E+03  0.28806959572E+03  0.91805964381E+02 0.  0.
          5    1    4    4  502    0  0.54555513236E+01  0.36709313958E+02 -0.25485430555E+03  0.25758521663E+03  0.47000000000E+01 0. -1.
         -5    1    4    4    0  502 -0.13857169011E+02 -0.20166950452E+02 -0.17563608530E+02  0.30484379084E+02  0.47000000000E+01 0.  1.
          5    1    3    3  503    0  0.33119595650E+01  0.40087458841E+02 -0.81501025032E+02  0.91008134327E+02  0.47000000000E+01 0. -1.
         -5    1    3    3    0  503  0.50896581225E+01 -0.56629822347E+02 -0.79841616367E+02  0.98130602275E+02  0.47000000000E+01 0.  1.
<mgrwt>
<rscale>  0 0.97416864E+02</rscale>
<asrwt>0</asrwt>
<pdfrwt beam="1">  1        3 0.70074530E-01 0.98701640E+02</pdfrwt>
<pdfrwt beam="2">  1       -3 0.33421367E-02 0.98701640E+02</pdfrwt>
<totfact> 0.18519506E+03</totfact>
</mgrwt>
</event>
<event>
 8    1  0.7366917E-004  0.1095464E+03  0.7546771E-02  0.1261729E+00
         -2   -1    0    0    0  501 -0.00000000000E+00  0.00000000000E+00  0.25097462862E+02  0.25097462862E+02  0.00000000000E+00 0.  1.
          2   -1    0    0  501    0  0.00000000000E+00 -0.00000000000E+00 -0.57079817814E+03  0.57079817814E+03  0.00000000000E+00 0. -1.
         23    2    1    2    0    0  0.60149015464E+02 -0.15141083280E+02 -0.15161938359E+03  0.18705304356E+03  0.90295332989E+02 0.  0.
         23    2    1    2    0    0 -0.60149015464E+02  0.15141083280E+02 -0.39408133168E+03  0.40884259744E+03  0.89470760786E+02 0.  0.
          5    1    3    3  502    0  0.59095384900E+01  0.34341748161E+02 -0.60086887422E+02  0.69618979825E+02  0.47000000000E+01 0. -1.
         -5    1    4    4    0  503  0.16103210956E+02 -0.17393215456E+02 -0.62143044336E+02  0.66675972482E+02  0.47000000000E+01 0.  1.
          5    1    4    4  503    0 -0.76252226420E+02  0.32534298737E+02 -0.33193828735E+03  0.34216662496E+03  0.47000000000E+01 0. -1.
         -5    1    3    3    0  502  0.54239476974E+02 -0.49482831441E+02 -0.91532496171E+02  0.11743406373E+03  0.47000000000E+01 0.  1.
<mgrwt>
<rscale>  0 0.10937629E+03</rscale>
<asrwt>0</asrwt>
<pdfrwt beam="1">  1        2 0.87815099E-01 0.10954635E+03</pdfrwt>
<pdfrwt beam="2">  1       -2 0.38611484E-02 0.10954635E+03</pdfrwt>
<totfact> 0.14449692E+04</totfact>
</mgrwt>
</event>
<event>
 8    1  0.7366917E-004  0.2050708E+03  0.7546771E-02  0.1146551E+00
         -2   -1    0    0    0  501 -0.00000000000E+00  0.00000000000E+00  0.28724482036E+02  0.28724482036E+02  0.00000000000E+00 0.  1.
          2   -1    0    0  501    0  0.00000000000E+00 -0.00000000000E+00 -0.15543297634E+04  0.15543297634E+04  0.00000000000E+00 0. -1.
         23    2    1    2    0    0  0.17891025917E+03 -0.20753885222E+01 -0.52953661418E+03  0.56609464525E+03  0.89671252637E+02 0.  0.
         23    2    1    2    0    0 -0.17891025917E+03  0.20753885222E+01 -0.99606866715E+03  0.10169596002E+04  0.10020404479E+03 0.  0.
          5    1    3    3  502    0  0.10784323589E+03 -0.13312307099E+02 -0.42772609744E+03  0.44133783600E+03  0.47000000000E+01 0. -1.
         -5    1    3    3    0  502  0.71067023280E+02  0.11236918577E+02 -0.10181051674E+03  0.12475680926E+03  0.47000000000E+01 0.  1.
          5    1    4    4  503    0 -0.12207146871E+03 -0.45823348752E+02 -0.61728097099E+03  0.63091925784E+03  0.47000000000E+01 0. -1.
         -5    1    4    4    0  503 -0.56838790456E+02  0.47898737274E+02 -0.37878769616E+03  0.38604034232E+03  0.47000000000E+01 0.  1.
<mgrwt>
<rscale>  0 0.20382563E+03</rscale>
<asrwt>0</asrwt>
<pdfrwt beam="1">  1        2 0.23912776E+00 0.20507081E+03</pdfrwt>
<pdfrwt beam="2">  1       -2 0.44191492E-02 0.20507081E+03</pdfrwt>
<totfact> 0.30125624E+03</totfact>
</mgrwt>
</event>
<event>
 8    1  0.7366917E-004  0.1383211E+03  0.7546771E-02  0.1215775E+00
          2   -1    0    0  501    0  0.00000000000E+00  0.00000000000E+00  0.58204509420E+03  0.58204509420E+03  0.00000000000E+00 0. -1.
         -2   -1    0    0    0  501 -0.00000000000E+00 -0.00000000000E+00 -0.36650906020E+02  0.36650906020E+02  0.00000000000E+00 0.  1.
         23    2    1    2    0    0 -0.92028642370E+02  0.47416451509E+02  0.37312865828E+03  0.39777035986E+03  0.90987211535E+02 0.  0.
         23    2    1    2    0    0  0.92028642370E+02 -0.47416451509E+02  0.17226552990E+03  0.22092564036E+03  0.91734044317E+02 0.  0.
          5    1    4    4  502    0  0.47483543337E+02  0.14856883225E+02  0.11439720309E+03  0.12483678921E+03  0.47000000000E+01 0. -1.
         -5    1    3    3    0  503 -0.30400450617E+02  0.19373622809E+02  0.27613593258E+02  0.45652220002E+02  0.47000000000E+01 0.  1.
          5    1    3    3  503    0 -0.61628191753E+02  0.28042828701E+02  0.34551506502E+03  0.35211813986E+03  0.47000000000E+01 0. -1.
         -5    1    4    4    0  502  0.44545099034E+02 -0.62273334734E+02  0.57868326816E+02  0.96088851150E+02  0.47000000000E+01 0.  1.
<mgrwt>
<rscale>  0 0.13819739E+03</rscale>
<asrwt>0</asrwt>
<pdfrwt beam="1">  1        2 0.89545392E-01 0.13832110E+03</pdfrwt>
<pdfrwt beam="2">  1       -2 0.56386014E-02 0.13832110E+03</pdfrwt>
<totfact> 0.81664977E+03</totfact>
</mgrwt>
</event>
<event>
 8    1  0.1131601E-003  0.1519161E+03  0.7546771E-02  0.1198220E+00
          1   -1    0    0  501    0  0.00000000000E+00  0.00000000000E+00  0.52313962326E+03  0.52313962326E+03  0.00000000000E+00 0. -1.
         -1   -1    0    0    0  501 -0.00000000000E+00 -0.00000000000E+00 -0.16450057199E+03  0.16450057199E+03  0.00000000000E+00 0.  1.
         23    2    1    2    0    0 -0.73971531226E+02  0.94111303919E+02  0.47358566845E+03  0.49735489457E+03  0.93540263170E+02 0.  0.
         23    2    1    2    0    0  0.73971531226E+02 -0.94111303919E+02 -0.11494661717E+03  0.19028530069E+03  0.93096970414E+02 0.  0.
          5    1    4    4  502    0 -0.22089443767E+02 -0.17621308694E+02 -0.18890438615E+02  0.34313156618E+02  0.47000000000E+01 0. -1.
         -5    1    3    3    0  503 -0.14525329702E+02  0.17838446472E+02  0.13274390510E+02  0.26972111873E+02  0.47000000000E+01 0.  1.
          5    1    3    3  503    0 -0.59446201523E+02  0.76272857447E+02  0.46031127794E+03  0.47038278269E+03  0.47000000000E+01 0. -1.
         -5    1    4    4    0  502  0.96060974992E+02 -0.76489995225E+02 -0.96056178557E+02  0.15597214407E+03  0.47000000000E+01 0.  1.
<mgrwt>
<rscale>  0 0.15184793E+03</rscale>
<asrwt>0</asrwt>
<pdfrwt beam="1">  1        1 0.80483019E-01 0.15191611E+03</pdfrwt>
<pdfrwt beam="2">  1       -1 0.25307780E-01 0.15191611E+03</pdfrwt>
<totfact> 0.58482291E+02</totfact>
</mgrwt>
</event>
<event>
 8    1  0.7366917E-004  0.1634714E+03  0.7546771E-02  0.1185200E+00
         -2   -1    0    0    0  501 -0.00000000000E+00  0.00000000000E+00  0.41260527509E+02  0.41260527509E+02  0.00000000000E+00 0.  1.
          2   -1    0    0  501    0  0.00000000000E+00 -0.00000000000E+00 -0.64244738824E+03  0.64244738824E+03  0.00000000000E+00 0. -1.
         23    2    1    2    0    0  0.12355414567E+03  0.53436284734E+02 -0.29845810615E+03  0.34029417461E+03  0.92746001060E+02 0.  0.
         23    2    1    2    0    0 -0.12355414567E+03 -0.53436284734E+02 -0.30272875458E+03  0.34341374113E+03  0.90372757559E+02 0.  0.
          5    1    3    3  502    0  0.89317883485E+02  0.13946943993E+02 -0.25979488701E+03  0.27511393071E+03  0.47000000000E+01 0. -1.
         -5    1    3    3    0  502  0.34236262188E+02  0.39489340741E+02 -0.38663219136E+02  0.65180243899E+02  0.47000000000E+01 0.  1.
          5    1    4    4  503    0 -0.23116403051E+02  0.21930026283E+02 -0.34429602573E+02  0.47146385610E+02  0.47000000000E+01 0. -1.
         -5    1    4    4    0  503 -0.10043774262E+03 -0.75366311017E+02 -0.26829915201E+03  0.29626735552E+03  0.47000000000E+01 0.  1.
<mgrwt>
<rscale>  0 0.16313666E+03</rscale>
<asrwt>0</asrwt>
<pdfrwt beam="1">  1        2 0.98838046E-01 0.16347136E+03</pdfrwt>
<pdfrwt beam="2">  1       -2 0.63477743E-02 0.16347136E+03</pdfrwt>
<totfact> 0.61458639E+03</totfact>
</mgrwt>
</event>
<event>
 8    1  0.7366917E-004  0.1084589E+03  0.7546771E-02  0.1264775E+00
          3   -1    0    0  501    0  0.00000000000E+00  0.00000000000E+00  0.25592505108E+03  0.25592505108E+03  0.00000000000E+00 0. -1.
         -3   -1    0    0    0  501 -0.00000000000E+00 -0.00000000000E+00 -0.54054642120E+02  0.54054642120E+02  0.00000000000E+00 0.  1.
         23    2    1    2    0    0  0.70882754571E+01  0.53492787684E+02  0.35722306000E+02  0.11156465559E+03  0.90878310104E+02 0.  0.
         23    2    1    2    0    0 -0.70882754571E+01 -0.53492787684E+02  0.16614810296E+03  0.19841503761E+03  0.94083011484E+02 0.  0.
          5    1    4    4  502    0 -0.19424591819E+02 -0.76984243731E+02  0.13910847614E+03  0.16024090203E+03  0.47000000000E+01 0. -1.
         -5    1    3    3    0  503  0.28749664493E+02  0.28699427725E+02 -0.20879588820E+02  0.45915657346E+02  0.47000000000E+01 0.  1.
          5    1    3    3  503    0 -0.21661389036E+02  0.24793359958E+02  0.56601894820E+02  0.65648998242E+02  0.47000000000E+01 0. -1.
         -5    1    4    4    0  502  0.12336316362E+02  0.23491456047E+02  0.27039626820E+02  0.38174135579E+02  0.47000000000E+01 0.  1.
<mgrwt>
<rscale>  0 0.10776021E+03</rscale>
<asrwt>0</asrwt>
<pdfrwt beam="1">  1        3 0.39373084E-01 0.10845891E+03</pdfrwt>
<pdfrwt beam="2">  1       -3 0.83160990E-02 0.10845891E+03</pdfrwt>
<totfact> 0.14177837E+03</totfact>
</mgrwt>
</event>
<event>
 8    1  0.7366917E-004  0.1035561E+03  0.7546771E-02  0.1275911E+00
         -2   -1    0    0    0  501 -0.00000000000E+00  0.00000000000E+00  0.29237810354E+02  0.29237810354E+02  0.00000000000E+00 0.  1.
          2   -1    0    0  501    0  0.00000000000E+00 -0.00000000000E+00 -0.40947215973E+03  0.40947215973E+03  0.00000000000E+00 0. -1.
         23    2    1    2    0    0  0.35867718786E+02 -0.32888501570E+02 -0.10901984025E+03  0.15036354774E+03  0.91409650124E+02 0.  0.
         23    2    1    2    0    0 -0.35867718786E+02  0.32888501570E+02 -0.27121450913E+03  0.28834642234E+03  0.84960005464E+02 0.  0.
          5    1    3    3  502    0 -0.28842201099E+02 -0.11112959957E+02 -0.16704271464E+02  0.35447046822E+02  0.47000000000E+01 0. -1.
         -5    1    3    3    0  502  0.64709919885E+02 -0.21775541613E+02 -0.92315568785E+02  0.11491650092E+03  0.47000000000E+01 0.  1.
          5    1    4    4  503    0 -0.55282342424E+02  0.85242331084E-01 -0.19855361418E+03  0.20615957983E+03  0.47000000000E+01 0. -1.
         -5    1    4    4    0  503  0.19414623639E+02  0.32803259239E+02 -0.72660894946E+02  0.82186842512E+02  0.47000000000E+01 0.  1.
<mgrwt>
<rscale>  0 0.10211475E+03</rscale>
<asrwt>0</asrwt>
<pdfrwt beam="1">  1        2 0.62995715E-01 0.10355612E+03</pdfrwt>
<pdfrwt beam="2">  1       -2 0.44981248E-02 0.10355612E+03</pdfrwt>
<totfact> 0.16442567E+04</totfact>
</mgrwt>
</event>
<event>
 8    1  0.7366917E-004  0.1403543E+03  0.7546771E-02  0.1213422E+00
         -1   -1    0    0    0  501 -0.00000000000E+00  0.00000000000E+00  0.33102720737E+02  0.33102720737E+02  0.00000000000E+00 0.  1.
          1   -1    0    0  501    0  0.00000000000E+00 -0.00000000000E+00 -0.58807833960E+03  0.58807833960E+03  0.00000000000E+00 0. -1.
         23    2    1    2    0    0 -0.99246320687E+02 -0.32667908754E+02 -0.28002961384E+03  0.31248277239E+03  0.91169479444E+02 0.  0.
         23    2    1    2    0    0  0.99246320687E+02  0.32667908754E+02 -0.27494600503E+03  0.30869828795E+03  0.93713941704E+02 0.  0.
          5    1    3    3  502    0 -0.10695809027E+03 -0.24877570939E+01 -0.21196813087E+03  0.23748431635E+03  0.47000000000E+01 0. -1.
         -5    1    3    3    0  502  0.77117695786E+01 -0.30180151660E+02 -0.68061482972E+02  0.74998456042E+02  0.47000000000E+01 0.  1.
          5    1    4    4  503    0  0.91172508657E+01  0.47411190327E+02 -0.84470297669E+02  0.97407732855E+02  0.47000000000E+01 0. -1.
         -5    1    4    4    0  503  0.90129069822E+02 -0.14743281573E+02 -0.19047570736E+03  0.21129055509E+03  0.47000000000E+01 0.  1.
<mgrwt>
<rscale>  0 0.13993088E+03</rscale>
<asrwt>0</asrwt>
<pdfrwt beam="1">  1        1 0.90473590E-01 0.14035429E+03</pdfrwt>
<pdfrwt beam="2">  1       -1 0.50927263E-02 0.14035429E+03</pdfrwt>
<totfact> 0.59773320E+03</totfact>
</mgrwt>
</event>
<event>
 8    1  0.7366917E-004  0.1520671E+03  0.7546771E-02  0.1198180E+00
          1   -1    0    0  501    0  0.00000000000E+00  0.00000000000E+00  0.54190987739E+03  0.54190987739E+03  0.00000000000E+00 0. -1.
         -1   -1    0    0    0  501 -0.00000000000E+00 -0.00000000000E+00 -0.17742628476E+03  0.17742628476E+03  0.00000000000E+00 0.  1.
         23    2    1    2    0    0  0.10380570801E+03 -0.63189019434E+02 -0.13133981354E+03  0.20093416628E+03  0.91410696113E+02 0.  0.
         23    2    1    2    0    0 -0.10380570801E+03  0.63189019434E+02  0.49582340617E+03  0.51840199587E+03  0.90173732477E+02 0.  0.
          5    1    3    3  502    0  0.19426278156E+02  0.23541965463E+02 -0.23965416175E+02  0.39090095847E+02  0.47000000000E+01 0. -1.
         -5    1    3    3    0  502  0.84379429854E+02 -0.86730984897E+02 -0.10737439737E+03  0.16184407043E+03  0.47000000000E+01 0.  1.
          5    1    4    4  503    0 -0.41940834740E+02  0.53323171732E+02  0.38544347149E+03  0.39139641538E+03  0.47000000000E+01 0. -1.
         -5    1    4    4    0  503 -0.61864873270E+02  0.98658477021E+01  0.11037993468E+03  0.12700558049E+03  0.47000000000E+01 0.  1.
<mgrwt>
<rscale>  0 0.15188164E+03</rscale>
<asrwt>0</asrwt>
<pdfrwt beam="1">  1        1 0.83370750E-01 0.15206707E+03</pdfrwt>
<pdfrwt beam="2">  1       -1 0.27296352E-01 0.15206707E+03</pdfrwt>
<totfact> 0.49235960E+02</totfact>
</mgrwt>
</event>
<event>
 8    1  0.7366917E-004  0.1638847E+03  0.7546771E-02  0.1185373E+00
         -2   -1    0    0    0  501 -0.00000000000E+00  0.00000000000E+00  0.32209216777E+02  0.32209216777E+02  0.00000000000E+00 0.  1.
          2   -1    0    0  501    0  0.00000000000E+00 -0.00000000000E+00 -0.82007449816E+03  0.82007449816E+03  0.00000000000E+00 0. -1.
         23    2    1    2    0    0 -0.12452057634E+03 -0.45539272324E+02 -0.42935266282E+03  0.45956709427E+03  0.96327596309E+02 0.  0.
         23    2    1    2    0    0  0.12452057634E+03  0.45539272324E+02 -0.35851261857E+03  0.39271662067E+03  0.90087997091E+02 0.  0.
          5    1    4    4  502    0  0.79915439291E+02  0.34075459054E+02 -0.32259923050E+03  0.33412567676E+03  0.47000000000E+01 0. -1.
         -5    1    4    4    0  502  0.44605137053E+02  0.11463813271E+02 -0.35913388065E+02  0.58590943912E+02  0.47000000000E+01 0.  1.
          5    1    3    3  503    0 -0.41065200083E+02 -0.58400237404E+02 -0.12874846009E+03  0.14729288632E+03  0.47000000000E+01 0. -1.
         -5    1    3    3    0  503 -0.83455376261E+02  0.12860965079E+02 -0.30060420273E+03  0.31227420795E+03  0.47000000000E+01 0.  1.
<mgrwt>
<rscale>  0 0.16298027E+03</rscale>
<asrwt>0</asrwt>
<pdfrwt beam="1">  1        2 0.12616530E+00 0.16388473E+03</pdfrwt>
<pdfrwt beam="2">  1       -2 0.49552645E-02 0.16388473E+03</pdfrwt>
<totfact> 0.66578360E+03</totfact>
</mgrwt>
</event>
<event>
 8    1  0.7366917E-004  0.1046268E+03  0.7546771E-02  0.1271441E+00
         -4   -1    0    0    0  501 -0.00000000000E+00  0.00000000000E+00  0.42268800038E+02  0.42268800038E+02  0.00000000000E+00 0.  1.
          4   -1    0    0  501    0  0.00000000000E+00 -0.00000000000E+00 -0.31700658713E+03  0.31700658713E+03  0.00000000000E+00 0. -1.
         23    2    1    2    0    0  0.50781011688E+02 -0.95702359540E+01 -0.59245604581E+02  0.12023650975E+03  0.90975139740E+02 0.  0.
         23    2    1    2    0    0 -0.50781011688E+02  0.95702359540E+01 -0.21549218251E+03  0.23903887741E+03  0.89623677840E+02 0.  0.
          5    1    4    4  502    0 -0.70356704312E+02 -0.87510222356E+01 -0.11728959266E+03  0.13713345609E+03  0.47000000000E+01 0. -1.
         -5    1    4    4    0  502  0.19575692624E+02  0.18321258190E+02 -0.98202589846E+02  0.10190542133E+03  0.47000000000E+01 0.  1.
          5    1    3    3  503    0 -0.22053360712E+01  0.34002542346E+02 -0.10550511919E+02  0.35978322570E+02  0.47000000000E+01 0. -1.
         -5    1    3    3    0  503  0.52986347759E+02 -0.43572778300E+02 -0.48695092663E+02  0.84258187181E+02  0.47000000000E+01 0.  1.
<mgrwt>
<rscale>  0 0.10433236E+03</rscale>
<asrwt>0</asrwt>
<pdfrwt beam="1">  1        4 0.48770244E-01 0.10462684E+03</pdfrwt>
<pdfrwt beam="2">  1       -4 0.65028923E-02 0.10462684E+03</pdfrwt>
<totfact> 0.99017927E+02</totfact>
</mgrwt>
</event>
<event>
 8    1  0.7366917E-004  0.1338408E+03  0.7546771E-02  0.1222360E+00
          3   -1    0    0  501    0  0.00000000000E+00  0.00000000000E+00  0.37774218308E+02  0.37774218308E+02  0.00000000000E+00 0. -1.
         -3   -1    0    0    0  501 -0.00000000000E+00 -0.00000000000E+00 -0.62425618932E+03  0.62425618932E+03  0.00000000000E+00 0.  1.
         23    2    1    2    0    0 -0.96711268813E+02  0.17659321245E+02 -0.12949188510E+03  0.18622969543E+03  0.90820867702E+02 0.  0.
         23    2    1    2    0    0  0.96711268813E+02 -0.17659321245E+02 -0.45699008591E+03  0.47580071219E+03  0.88777575809E+02 0.  0.
          5    1    4    4  502    0  0.13431674520E+02  0.32206702450E+02 -0.11476713113E+03  0.12004693229E+03  0.47000000000E+01 0. -1.
         -5    1    3    3    0  503 -0.70865004732E+02 -0.19616269768E+02 -0.11814430750E+03  0.13923654093E+03  0.47000000000E+01 0.  1.
          5    1    3    3  503    0 -0.25846264080E+02  0.37275591014E+02 -0.11347577601E+02  0.46993154499E+02  0.47000000000E+01 0. -1.
         -5    1    4    4    0  502  0.83279594292E+02 -0.49866023696E+02 -0.34222295477E+03  0.35575377991E+03  0.47000000000E+01 0.  1.
<mgrwt>
<rscale>  0 0.13349492E+03</rscale>
<asrwt>0</asrwt>
<pdfrwt beam="1">  1        3 0.58114186E-02 0.13384077E+03</pdfrwt>
<pdfrwt beam="2">  1       -3 0.96039407E-01 0.13384077E+03</pdfrwt>
<totfact> 0.41247011E+02</totfact>
</mgrwt>
</event>
<event>
 8    1  0.7366917E-004  0.1048648E+03  0.7546771E-02  0.1270393E+00
         -2   -1    0    0    0  501 -0.00000000000E+00  0.00000000000E+00  0.32401188315E+03  0.32401188315E+03  0.00000000000E+00 0.  1.
          2   -1    0    0  501    0  0.00000000000E+00 -0.00000000000E+00 -0.89088187519E+02  0.89088187519E+02  0.00000000000E+00 0. -1.
         23    2    1    2    0    0 -0.15354365340E+02  0.53993437904E+02 -0.45058911378E+02  0.11412367628E+03  0.88559923907E+02 0.  0.
         23    2    1    2    0    0  0.15354365340E+02 -0.53993437904E+02  0.27998260701E+03  0.29897639439E+03  0.88575257837E+02 0.  0.
          5    1    4    4  502    0 -0.29667848781E+02 -0.49152996665E+02  0.12894835088E+03  0.14123018631E+03  0.47000000000E+01 0. -1.
         -5    1    3    3    0  503  0.21839189295E+02 -0.11198160186E+02  0.25491998523E+01  0.25118467320E+02  0.47000000000E+01 0.  1.
          5    1    3    3  503    0 -0.37193554634E+02  0.65191598090E+02 -0.47608111230E+02  0.89005208964E+02  0.47000000000E+01 0. -1.
         -5    1    4    4    0  502  0.45022214120E+02 -0.48404412382E+01  0.15103425613E+03  0.15774620807E+03  0.47000000000E+01 0.  1.
<mgrwt>
<rscale>  0 0.10486155E+03</rscale>
<asrwt>0</asrwt>
<pdfrwt beam="1">  1        2 0.13705875E-01 0.10486479E+03</pdfrwt>
<pdfrwt beam="2">  1       -2 0.49847981E-01 0.10486479E+03</pdfrwt>
<totfact> 0.16119446E+03</totfact>
</mgrwt>
</event>
<event>
 8    1  0.7366917E-004  0.1345734E+03  0.7546771E-02  0.1221853E+00
          1   -1    0    0  501    0  0.00000000000E+00  0.00000000000E+00  0.35804217772E+02  0.35804217772E+02  0.00000000000E+00 0. -1.
         -1   -1    0    0    0  501 -0.00000000000E+00 -0.00000000000E+00 -0.53082296862E+03  0.53082296862E+03  0.00000000000E+00 0.  1.
         23    2    1    2    0    0 -0.26941171534E+02 -0.89014404173E+02 -0.17647716393E+03  0.22193287912E+03  0.97265731736E+02 0.  0.
         23    2    1    2    0    0  0.26941171534E+02  0.89014404173E+02 -0.31854158691E+03  0.34469430727E+03  0.93252517386E+02 0.  0.
          5    1    3    3  502    0 -0.50956220511E+01 -0.10569803924E+03 -0.12951283856E+03  0.16731319797E+03  0.47000000000E+01 0. -1.
         -5    1    3    3    0  502 -0.21845549483E+02  0.16683635064E+02 -0.46964325373E+02  0.54619681150E+02  0.47000000000E+01 0.  1.
          5    1    4    4  503    0 -0.24331405670E+02  0.44481510835E+02 -0.67290453337E+02  0.84384342258E+02  0.47000000000E+01 0. -1.
         -5    1    4    4    0  503  0.51272577205E+02  0.44532893339E+02 -0.25125113357E+03  0.26030996501E+03  0.47000000000E+01 0.  1.
<mgrwt>
<rscale>  0 0.13384978E+03</rscale>
<asrwt>0</asrwt>
<pdfrwt beam="1">  1        1 0.55083416E-02 0.13457345E+03</pdfrwt>
<pdfrwt beam="2">  1       -1 0.81665066E-01 0.13457345E+03</pdfrwt>
<totfact> 0.22029429E+03</totfact>
</mgrwt>
</event>
<event>
 8    1  0.7366917E-004  0.1209304E+03  0.7546771E-02  0.1242361E+00
         -3   -1    0    0    0  501 -0.00000000000E+00  0.00000000000E+00  0.58995461256E+03  0.58995461256E+03  0.00000000000E+00 0.  1.
          3   -1    0    0  501    0  0.00000000000E+00 -0.00000000000E+00 -0.25585553991E+02  0.25585553991E+02  0.00000000000E+00 0. -1.
         23    2    1    2    0    0  0.74782220709E+02  0.25272897010E+02  0.21367876264E+03  0.24458485744E+03  0.89061995414E+02 0.  0.
         23    2    1    2    0    0 -0.74782220709E+02 -0.25272897010E+02  0.35069029593E+03  0.37095530911E+03  0.91613633502E+02 0.  0.
          5    1    4    4  502    0 -0.36401749627E+02 -0.57406879237E+02  0.23793010764E+03  0.24749437020E+03  0.47000000000E+01 0. -1.
         -5    1    3    3    0  503  0.42503373775E+02  0.13633170253E+02  0.20363712715E+03  0.20852474593E+03  0.47000000000E+01 0.  1.
          5    1    3    3  503    0  0.32278846934E+02  0.11639726757E+02  0.10041635492E+02  0.36060111505E+02  0.47000000000E+01 0. -1.
         -5    1    4    4    0  502 -0.38380471082E+02  0.32133982227E+02  0.11276018829E+03  0.12346093891E+03  0.47000000000E+01 0.  1.
<mgrwt>
<rscale>  0 0.12044715E+03</rscale>
<asrwt>0</asrwt>
<pdfrwt beam="1">  1        3 0.39362395E-02 0.12093038E+03</pdfrwt>
<pdfrwt beam="2">  1       -3 0.90762238E-01 0.12093038E+03</pdfrwt>
<totfact> 0.85152270E+02</totfact>
</mgrwt>
</event>
<event>
 8    1  0.7366917E-004  0.9975461E+02  0.7546771E-02  0.1280862E+00
         -3   -1    0    0    0  501 -0.00000000000E+00  0.00000000000E+00  0.27101997628E+02  0.27101997628E+02  0.00000000000E+00 0.  1.
          3   -1    0    0  501    0  0.00000000000E+00 -0.00000000000E+00 -0.36817354614E+03  0.36817354614E+03  0.00000000000E+00 0. -1.
         23    2    1    2    0    0  0.37114736687E+02 -0.13843031659E+02 -0.15848360835E+03  0.18721464507E+03  0.91450183205E+02 0.  0.
         23    2    1    2    0    0 -0.37114736687E+02  0.13843031659E+02 -0.18258794017E+03  0.20806089870E+03  0.91552435629E+02 0.  0.
          5    1    4    4  502    0 -0.35478662787E+02  0.41210567929E+02 -0.16801499953E+03  0.17665836094E+03  0.47000000000E+01 0. -1.
         -5    1    4    4    0  502 -0.16360739005E+01 -0.27367536270E+02 -0.14572940638E+02  0.31402537766E+02  0.47000000000E+01 0.  1.
          5    1    3    3  503    0  0.55848234992E+01  0.28291252845E+02 -0.11539743406E+03  0.11903882992E+03  0.47000000000E+01 0. -1.
         -5    1    3    3    0  503  0.31529913188E+02 -0.42134284504E+02 -0.43086174287E+02  0.68175815147E+02  0.47000000000E+01 0.  1.
<mgrwt>
<rscale>  0 0.99731140E+02</rscale>
<asrwt>0</asrwt>
<pdfrwt beam="1">  1        3 0.56642081E-01 0.99754607E+02</pdfrwt>
<pdfrwt beam="2">  1       -3 0.41695384E-02 0.99754607E+02</pdfrwt>
<totfact> 0.20428303E+03</totfact>
</mgrwt>
</event>
<event>
 8    1  0.7366917E-004  0.1349994E+03  0.7546771E-02  0.1225729E+00
         -2   -1    0    0    0  501 -0.00000000000E+00  0.00000000000E+00  0.20326356171E+02  0.20326356171E+02  0.00000000000E+00 0.  1.
          2   -1    0    0  501    0  0.00000000000E+00 -0.00000000000E+00 -0.81466327123E+03  0.81466327123E+03  0.00000000000E+00 0. -1.
         23    2    1    2    0    0 -0.50531524791E+02 -0.63483624405E+02 -0.36723045083E+03  0.39125826957E+03  0.10789450369E+03 0.  0.
         23    2    1    2    0    0  0.50531524791E+02  0.63483624405E+02 -0.42710646423E+03  0.44373135782E+03  0.88848075772E+02 0.  0.
          5    1    3    3  502    0 -0.27932987669E+00 -0.45455815837E+02 -0.30803098284E+03  0.31140244959E+03  0.47000000000E+01 0. -1.
         -5    1    3    3    0  502 -0.50252194914E+02 -0.18027808567E+02 -0.59199467992E+02  0.79855819988E+02  0.47000000000E+01 0.  1.
          5    1    4    4  503    0  0.31482939017E+02 -0.96068559101E+01 -0.23357220085E+03  0.23592695934E+03  0.47000000000E+01 0. -1.
         -5    1    4    4    0  503  0.19048585774E+02  0.73090480315E+02 -0.19353426337E+03  0.20780439849E+03  0.47000000000E+01 0.  1.
<mgrwt>
<rscale>  0 0.13117039E+03</rscale>
<asrwt>0</asrwt>
<pdfrwt beam="1">  1        2 0.12533280E+00 0.13499937E+03</pdfrwt>
<pdfrwt beam="2">  1       -2 0.31271319E-02 0.13499937E+03</pdfrwt>
<totfact> 0.13178831E+04</totfact>
</mgrwt>
</event>
<event>
 8    1  0.7366917E-004  0.1044809E+03  0.7546771E-02  0.1271585E+00
          1   -1    0    0  501    0  0.00000000000E+00  0.00000000000E+00  0.32990959724E+03  0.32990959724E+03  0.00000000000E+00 0. -1.
         -1   -1    0    0    0  501 -0.00000000000E+00 -0.00000000000E+00 -0.41541503678E+02  0.41541503678E+02  0.00000000000E+00 0.  1.
         23    2    1    2    0    0 -0.17758694220E+02 -0.46953206241E+02  0.22884895173E+03  0.25120642049E+03  0.90624765904E+02 0.  0.
         23    2    1    2    0    0  0.17758694220E+02  0.46953206241E+02  0.59519141839E+02  0.12024468042E+03  0.91631218090E+02 0.  0.
          5    1    4    4  502    0  0.41477795771E+02  0.60039234685E+02  0.56845459509E+02  0.92620804954E+02  0.47000000000E+01 0. -1.
         -5    1    4    4    0  502 -0.23719101551E+02 -0.13086028444E+02  0.26736823300E+01  0.27623875471E+02  0.47000000000E+01 0.  1.
          5    1    3    3  503    0  0.24458290053E+02 -0.13520029403E+02  0.16558732573E+03  0.16799479632E+03  0.47000000000E+01 0. -1.
         -5    1    3    3    0  503 -0.42216984272E+02 -0.33433176837E+02  0.63261625993E+02  0.83211624175E+02  0.47000000000E+01 0.  1.
<mgrwt>
<rscale>  0 0.10425980E+03</rscale>
<asrwt>0</asrwt>
<pdfrwt beam="1">  1        1 0.50755321E-01 0.10448088E+03</pdfrwt>
<pdfrwt beam="2">  1       -1 0.63910008E-02 0.10448088E+03</pdfrwt>
<totfact> 0.87671531E+03</totfact>
</mgrwt>
</event>
<event>
 8    1  0.7366917E-004  0.9997241E+02  0.7546771E-02  0.1281141E+00
          1   -1    0    0  501    0  0.00000000000E+00  0.00000000000E+00  0.26704659969E+03  0.26704659969E+03  0.00000000000E+00 0. -1.
         -1   -1    0    0    0  501 -0.00000000000E+00 -0.00000000000E+00 -0.38207897407E+02  0.38207897407E+02  0.00000000000E+00 0.  1.
         23    2    1    2    0    0  0.37063512932E+02  0.17265525113E+02  0.14378419693E+03  0.17512389485E+03  0.91228728542E+02 0.  0.
         23    2    1    2    0    0 -0.37063512932E+02 -0.17265525113E+02  0.85054505349E+02  0.13013060225E+03  0.89598562557E+02 0.  0.
          5    1    3    3  502    0 -0.14468097896E+02 -0.26494219351E+02  0.60290288201E+02  0.67589040289E+02  0.47000000000E+01 0. -1.
         -5    1    4    4    0  503  0.27916150706E+02 -0.12201656476E+02  0.41105292768E+02  0.51380219779E+02  0.47000000000E+01 0.  1.
          5    1    4    4  503    0 -0.64979663638E+02 -0.50638686373E+01  0.43949212580E+02  0.78750382466E+02  0.47000000000E+01 0. -1.
         -5    1    3    3    0  502  0.51531610828E+02  0.43759744464E+02  0.83493908729E+02  0.10753485456E+03  0.47000000000E+01 0.  1.
<mgrwt>
<rscale>  0 0.99598992E+02</rscale>
<asrwt>0</asrwt>
<pdfrwt beam="1">  1        1 0.41084091E-01 0.99972412E+02</pdfrwt>
<pdfrwt beam="2">  1       -1 0.58781382E-02 0.99972412E+02</pdfrwt>
<totfact> 0.12810158E+04</totfact>
</mgrwt>
</event>
<event>
 8    1  0.7366917E-004  0.9409112E+02  0.7546771E-02  0.1295242E+00
          1   -1    0    0  501    0  0.00000000000E+00  0.00000000000E+00  0.26198239162E+02  0.26198239162E+02  0.00000000000E+00 0. -1.
         -1   -1    0    0    0  501 -0.00000000000E+00 -0.00000000000E+00 -0.41024715333E+03  0.41024715333E+03  0.00000000000E+00 0.  1.
         23    2    1    2    0    0  0.13687976087E+02 -0.43041249774E+01 -0.95795453639E+02  0.13427548985E+03  0.92990601973E+02 0.  0.
         23    2    1    2    0    0 -0.13687976087E+02  0.43041249774E+01 -0.28825346053E+03  0.30216990265E+03  0.89502549544E+02 0.  0.
          5    1    4    4  502    0  0.30178509783E+02 -0.17696970717E+02 -0.17696007904E+03  0.18044634881E+03  0.47000000000E+01 0. -1.
         -5    1    3    3    0  503 -0.79147126921E+01 -0.38516732091E+02 -0.82354240679E+02  0.91381028041E+02  0.47000000000E+01 0.  1.
          5    1    3    3  503    0  0.21602688779E+02  0.34212607114E+02 -0.13441212960E+02  0.42894461809E+02  0.47000000000E+01 0. -1.
         -5    1    4    4    0  502 -0.43866485870E+02  0.22001095694E+02 -0.11129338150E+03  0.12172355384E+03  0.47000000000E+01 0. -1.
<mgrwt>
<rscale>  0 0.93217604E+02</rscale>
<asrwt>0</asrwt>
<pdfrwt beam="1">  1        1 0.40304980E-02 0.94091117E+02</pdfrwt>
<pdfrwt beam="2">  1       -1 0.63114951E-01 0.94091117E+02</pdfrwt>
<totfact> 0.54818183E+03</totfact>
</mgrwt>
</event>
<event>
 8    1  0.7366917E-004  0.1087511E+03  0.7546771E-02  0.1263449E+00
          2   -1    0    0  501    0  0.00000000000E+00  0.00000000000E+00  0.12985238396E+03  0.12985238396E+03  0.00000000000E+00 0. -1.
         -2   -1    0    0    0  501 -0.00000000000E+00 -0.00000000000E+00 -0.11522903999E+03  0.11522903999E+03  0.00000000000E+00 0.  1.
         23    2    1    2    0    0 -0.51759829461E+02 -0.23869814916E+02  0.64495548529E+02  0.12544014517E+03  0.91250787566E+02 0.  0.
         23    2    1    2    0    0  0.51759829461E+02  0.23869814916E+02 -0.49872204565E+02  0.11964127877E+03  0.92617227278E+02 0.  0.
          5    1    4    4  502    0  0.41498453598E+02  0.41677343382E+02  0.65924635289E+01  0.59368958032E+02  0.47000000000E+01 0. -1.
         -5    1    3    3    0  503 -0.31155845868E+02  0.32870586055E+02  0.38174121957E+02  0.59418143244E+02  0.47000000000E+01 0.  1.
          5    1    3    3  503    0 -0.20603983592E+02 -0.56740400970E+02  0.26321426572E+02  0.66022001931E+02  0.47000000000E+01 0. -1.
         -5    1    4    4    0  502  0.10261375863E+02 -0.17807528466E+02 -0.56464668094E+02  0.60272320742E+02  0.47000000000E+01 0.  1.
<mgrwt>
<rscale>  0 0.10845958E+03</rscale>
<asrwt>0</asrwt>
<pdfrwt beam="1">  1        2 0.19977290E-01 0.10875109E+03</pdfrwt>
<pdfrwt beam="2">  1       -2 0.17727544E-01 0.10875109E+03</pdfrwt>
<totfact> 0.67008521E+03</totfact>
</mgrwt>
</event>
<event>
 8    1  0.7366917E-004  0.9699026E+02  0.7546771E-02  0.1288950E+00
          3   -1    0    0  501    0  0.00000000000E+00  0.00000000000E+00  0.19592765831E+02  0.19592765831E+02  0.00000000000E+00 0. -1.
         -3   -1    0    0    0  501 -0.00000000000E+00 -0.00000000000E+00 -0.46818307191E+03  0.46818307191E+03  0.00000000000E+00 0.  1.
         23    2    1    2    0    0  0.24585145116E+01  0.23666524692E+02 -0.19850134280E+03  0.22092961228E+03  0.94026388875E+02 0.  0.
         23    2    1    2    0    0 -0.24585145116E+01 -0.23666524692E+02 -0.25008896328E+03  0.26684622546E+03  0.89979274297E+02 0.  0.
          5    1    4    4  502    0 -0.32287303568E+02 -0.34316742249E+02 -0.21133811463E+03  0.21657792470E+03  0.47000000000E+01 0. -1.
         -5    1    3    3    0  503  0.43171131790E+02 -0.23726364070E+01 -0.12910194499E+03  0.13623060678E+03  0.47000000000E+01 0.  1.
          5    1    3    3  503    0 -0.40712617279E+02  0.26039161099E+02 -0.69399397807E+02  0.84699005499E+02  0.47000000000E+01 0. -1.
         -5    1    4    4    0  502  0.29828789056E+02  0.10650217557E+02 -0.38750848649E+02  0.50268300762E+02  0.47000000000E+01 0.  1.
<mgrwt>
<rscale>  0 0.95995525E+02</rscale>
<asrwt>0</asrwt>
<pdfrwt beam="1">  1        3 0.30142717E-02 0.96990260E+02</pdfrwt>
<pdfrwt beam="2">  1       -3 0.72028165E-01 0.96990260E+02</pdfrwt>
<totfact> 0.20393019E+03</totfact>
</mgrwt>
</event>
<event>
 8    1  0.7366917E-004  0.9421755E+02  0.7546771E-02  0.1295390E+00
         -2   -1    0    0    0  501 -0.00000000000E+00  0.00000000000E+00  0.49880608179E+02  0.49880608179E+02  0.00000000000E+00 0.  1.
          2   -1    0    0  501    0  0.00000000000E+00 -0.00000000000E+00 -0.18781346209E+03  0.18781346209E+03  0.00000000000E+00 0. -1.
         23    2    1    2    0    0 -0.20878717543E+02 -0.76083989773E+01 -0.10682737175E+03  0.14243958310E+03  0.91559482829E+02 0.  0.
         23    2    1    2    0    0  0.20878717543E+02  0.76083989773E+01 -0.31105482152E+02  0.95254487167E+02  0.87247107255E+02 0.  0.
          5    1    4    4  502    0  0.13169374637E+02 -0.39372366654E+02 -0.99787668614E+01  0.42956739545E+02  0.47000000000E+01 0. -1.
         -5    1    3    3    0  503 -0.55787780968E+02  0.60270619091E+01 -0.67679174461E+02  0.88040687392E+02  0.47000000000E+01 0.  1.
          5    1    3    3  503    0  0.34909063425E+02 -0.13635460886E+02 -0.39148197293E+02  0.54398895706E+02  0.47000000000E+01 0. -1.
         -5    1    4    4    0  502  0.77093429063E+01  0.46980765631E+02 -0.21126715291E+02  0.52297747622E+02  0.47000000000E+01 0.  1.
<mgrwt>
<rscale>  0 0.93153419E+02</rscale>
<asrwt>0</asrwt>
<pdfrwt beam="1">  1        2 0.28894379E-01 0.94217554E+02</pdfrwt>
<pdfrwt beam="2">  1       -2 0.76739397E-02 0.94217554E+02</pdfrwt>
<totfact> 0.16621665E+04</totfact>
</mgrwt>
</event>
<event>
 8    1  0.7366917E-004  0.9502002E+02  0.7546771E-02  0.1293085E+00
          3   -1    0    0  501    0  0.00000000000E+00  0.00000000000E+00  0.58278724424E+02  0.58278724424E+02  0.00000000000E+00 0. -1.
         -3   -1    0    0    0  501 -0.00000000000E+00 -0.00000000000E+00 -0.16959348366E+03  0.16959348366E+03  0.00000000000E+00 0.  1.
         23    2    1    2    0    0 -0.15543132359E+02  0.40689233748E+01 -0.95835508449E+02  0.13495647381E+03  0.93651802130E+02 0.  0.
         23    2    1    2    0    0  0.15543132359E+02 -0.40689233748E+01 -0.15479250787E+02  0.92915734277E+02  0.90197457671E+02 0.  0.
          5    1    4    4  502    0 -0.37639747626E+01 -0.37311937986E+02  0.17870353882E+02  0.41806551761E+02  0.47000000000E+01 0. -1.
         -5    1    4    4    0  502  0.19307107121E+02  0.33243014611E+02 -0.33349604670E+02  0.51109182516E+02  0.47000000000E+01 0.  1.
          5    1    3    3  503    0 -0.12671723059E+02 -0.42445993108E+02 -0.65283669002E+02  0.79033425426E+02  0.47000000000E+01 0. -1.
         -5    1    3    3    0  503 -0.28714092994E+01  0.46514916483E+02 -0.30551839448E+02  0.55923048383E+02  0.47000000000E+01 0.  1.
<mgrwt>
<rscale>  0 0.94157671E+02</rscale>
<asrwt>0</asrwt>
<pdfrwt beam="1">  1        3 0.89659576E-02 0.95020025E+02</pdfrwt>
<pdfrwt beam="2">  1       -3 0.26091305E-01 0.95020025E+02</pdfrwt>
<totfact> 0.26224560E+03</totfact>
</mgrwt>
</event>
<event>
 8    1  0.7366917E-004  0.9385698E+02  0.7546771E-02  0.1298510E+00
         -1   -1    0    0    0  501 -0.00000000000E+00  0.00000000000E+00  0.30232443002E+02  0.30232443002E+02  0.00000000000E+00 0.  1.
          1   -1    0    0  501    0  0.00000000000E+00 -0.00000000000E+00 -0.26746731296E+03  0.26746731296E+03  0.00000000000E+00 0. -1.
         23    2    1    2    0    0 -0.75634011665E+01  0.22710179847E+02 -0.11070411967E+03  0.14015876889E+03  0.82559803052E+02 0.  0.
         23    2    1    2    0    0  0.75634011665E+01 -0.22710179847E+02 -0.12653075029E+03  0.15754098707E+03  0.90753372016E+02 0.  0.
          5    1    3    3  502    0  0.34497948174E+02 -0.27470804360E+01 -0.32764586334E+02  0.47888025610E+02  0.47000000000E+01 0. -1.
         -5    1    3    3    0  502 -0.42061349341E+02  0.25457260283E+02 -0.77939533333E+02  0.92270743281E+02  0.47000000000E+01 0.  1.
          5    1    4    4  503    0  0.18096353426E+02  0.85977541870E+01 -0.12217139949E+03  0.12389245432E+03  0.47000000000E+01 0. -1.
         -5    1    4    4    0  503 -0.10532952259E+02 -0.31307934034E+02 -0.43593508011E+01  0.33648532749E+02  0.47000000000E+01 0.  1.
<mgrwt>
<rscale>  0 0.91817127E+02</rscale>
<asrwt>0</asrwt>
<pdfrwt beam="1">  1        1 0.41148819E-01 0.93856975E+02</pdfrwt>
<pdfrwt beam="2">  1       -1 0.46511449E-02 0.93856975E+02</pdfrwt>
<totfact> 0.17921236E+04</totfact>
</mgrwt>
</event>
<event>
 8    1  0.7366917E-004  0.1193845E+03  0.7546771E-02  0.1244711E+00
         -2   -1    0    0    0  501 -0.00000000000E+00  0.00000000000E+00  0.47858750047E+03  0.47858750047E+03  0.00000000000E+00 0.  1.
          2   -1    0    0  501    0  0.00000000000E+00 -0.00000000000E+00 -0.36369922020E+02  0.36369922020E+02  0.00000000000E+00 0. -1.
         23    2    1    2    0    0 -0.16956075802E+02 -0.74987433691E+02  0.10753485495E+03  0.15961929415E+03  0.89464799321E+02 0.  0.
         23    2    1    2    0    0  0.16956075802E+02  0.74987433691E+02  0.33468272350E+03  0.35533812834E+03  0.91334748726E+02 0.  0.
          5    1    3    3  502    0  0.28044641599E+02 -0.42072015828E+02  0.17683929108E+02  0.53771440254E+02  0.47000000000E+01 0. -1.
         -5    1    4    4    0  503 -0.20187375386E+02  0.35417077536E+02  0.25818721997E+03  0.26142805906E+03  0.47000000000E+01 0.  1.
          5    1    4    4  503    0  0.37143451189E+02  0.39570356154E+02  0.76495503523E+02  0.93910069277E+02  0.47000000000E+01 0. -1.
         -5    1    3    3    0  502 -0.45000717401E+02 -0.32915417863E+02  0.89850925844E+02  0.10584785390E+03  0.47000000000E+01 0.  1.
<mgrwt>
<rscale>  0 0.11902679E+03</rscale>
<asrwt>0</asrwt>
<pdfrwt beam="1">  1        2 0.55953730E-02 0.11938451E+03</pdfrwt>
<pdfrwt beam="2">  1       -2 0.73628842E-01 0.11938451E+03</pdfrwt>
<totfact> 0.22057195E+03</totfact>
</mgrwt>
</event>
<event>
 8    1  0.7366917E-004  0.1044306E+03  0.7546771E-02  0.1271348E+00
         -1   -1    0    0    0  501 -0.00000000000E+00  0.00000000000E+00  0.45828855907E+03  0.45828855907E+03  0.00000000000E+00 0.  1.
          1   -1    0    0  501    0  0.00000000000E+00 -0.00000000000E+00 -0.87708422070E+02  0.87708422070E+02  0.00000000000E+00 0. -1.
         23    2    1    2    0    0 -0.47775428609E+02  0.72573527935E+01  0.41836576446E+03  0.43115266125E+03  0.92344700336E+02 0.  0.
         23    2    1    2    0    0  0.47775428609E+02 -0.72573527935E+01 -0.47785627463E+02  0.11484431989E+03  0.92577485765E+02 0.  0.
          5    1    4    4  502    0  0.24210100373E+02  0.29365222399E+02 -0.58315560278E+02  0.69794267796E+02  0.47000000000E+01 0. -1.
         -5    1    3    3    0  503 -0.63679012327E+02  0.33381422323E+02  0.32105504141E+03  0.32904067467E+03  0.47000000000E+01 0.  1.
          5    1    3    3  503    0  0.15903583718E+02 -0.26124069530E+02  0.97310723048E+02  0.10211198658E+03  0.47000000000E+01 0. -1.
         -5    1    4    4    0  502  0.23565328236E+02 -0.36622575192E+02  0.10529932815E+02  0.45050052094E+02  0.47000000000E+01 0.  1.
<mgrwt>
<rscale>  0 0.10437899E+03</rscale>
<asrwt>0</asrwt>
<pdfrwt beam="1">  1        1 0.13493604E-01 0.10443061E+03</pdfrwt>
<pdfrwt beam="2">  1       -1 0.70505931E-01 0.10443061E+03</pdfrwt>
<totfact> 0.89081439E+02</totfact>
</mgrwt>
</event>
<event>
 8    1  0.7366917E-004  0.1261509E+03  0.7546771E-02  0.1236549E+00
         -1   -1    0    0    0  501 -0.00000000000E+00  0.00000000000E+00  0.47035028312E+02  0.47035028312E+02  0.00000000000E+00 0.  1.
          1   -1    0    0  501    0  0.00000000000E+00 -0.00000000000E+00 -0.45510311766E+03  0.45510311766E+03  0.00000000000E+00 0. -1.
         23    2    1    2    0    0  0.27945135222E+02  0.57976940792E+02 -0.34713649004E+03  0.36934778389E+03  0.10849786404E+03 0.  0.
         23    2    1    2    0    0 -0.27945135222E+02 -0.57976940792E+02 -0.60931599314E+02  0.13279036209E+03  0.98885611805E+02 0.  0.
          5    1    4    4  502    0 -0.34625835739E+02 -0.15650126167E+02 -0.77632263144E+02  0.86560575497E+02  0.47000000000E+01 0. -1.
         -5    1    4    4    0  502  0.66807005171E+01 -0.42326814626E+02  0.16700663830E+02  0.46229786589E+02  0.47000000000E+01 0.  1.
          5    1    3    3  503    0 -0.20218062920E+02 -0.19666689332E+02 -0.14024226217E+03  0.14312767320E+03  0.47000000000E+01 0. -1.
         -5    1    3    3    0  503  0.48163198141E+02  0.77643630125E+02 -0.20689422787E+03  0.22622011069E+03  0.47000000000E+01 0.  1.
<mgrwt>
<rscale>  0 0.12405807E+03</rscale>
<asrwt>0</asrwt>
<pdfrwt beam="1">  1        1 0.70015866E-01 0.12615087E+03</pdfrwt>
<pdfrwt beam="2">  1       -1 0.72361580E-02 0.12615087E+03</pdfrwt>
<totfact> 0.49317740E+03</totfact>
</mgrwt>
</event>
<event>
 8    1  0.7366917E-004  0.9442963E+02  0.7546771E-02  0.1293376E+00
          1   -1    0    0  501    0  0.00000000000E+00  0.00000000000E+00  0.14436412353E+03  0.14436412353E+03  0.00000000000E+00 0. -1.
         -1   -1    0    0    0  501 -0.00000000000E+00 -0.00000000000E+00 -0.81980903605E+02  0.81980903605E+02  0.00000000000E+00 0.  1.
         23    2    1    2    0    0  0.15931852322E+02 -0.52230792905E+01 -0.26228262454E+02  0.98004476733E+02  0.92929280814E+02 0.  0.
         23    2    1    2    0    0 -0.15931852322E+02  0.52230792905E+01  0.88611482377E+02  0.12834055040E+03  0.91313731676E+02 0.  0.
          5    1    3    3  502    0 -0.24732570259E+02  0.32553530230E+01  0.22415942548E+02  0.33865348592E+02  0.47000000000E+01 0. -1.
         -5    1    4    4    0  503  0.41102725802E+01  0.43232454210E+02  0.21937133375E+02  0.48880131530E+02  0.47000000000E+01 0.  1.
          5    1    4    4  503    0 -0.20042124902E+02 -0.38009374919E+02  0.66674349002E+02  0.79460418871E+02  0.47000000000E+01 0. -1.
         -5    1    3    3    0  502  0.40664422581E+02 -0.84784323135E+01 -0.48644205002E+02  0.64139128140E+02  0.47000000000E+01 0.  1.
<mgrwt>
<rscale>  0 0.94029741E+02</rscale>
<asrwt>0</asrwt>
<pdfrwt beam="1">  1        1 0.22209865E-01 0.94429634E+02</pdfrwt>
<pdfrwt beam="2">  1       -1 0.12612447E-01 0.94429634E+02</pdfrwt>
<totfact> 0.86429789E+03</totfact>
</mgrwt>
</event>
<event>
 8    1  0.7366917E-004  0.1729413E+03  0.7546771E-02  0.1174981E+00
         -2   -1    0    0    0  501 -0.00000000000E+00  0.00000000000E+00  0.14260681595E+03  0.14260681595E+03  0.00000000000E+00 0.  1.
          2   -1    0    0  501    0  0.00000000000E+00 -0.00000000000E+00 -0.21138125840E+03  0.21138125840E+03  0.00000000000E+00 0. -1.
         23    2    1    2    0    0  0.11422421851E+03 -0.94505267614E+02 -0.53466067685E+02  0.18101748471E+03  0.89052185115E+02 0.  0.
         23    2    1    2    0    0 -0.11422421851E+03  0.94505267614E+02 -0.15308374767E+02  0.17297058965E+03  0.87784171936E+02 0.  0.
          5    1    3    3  502    0  0.68571479037E+02 -0.86351009036E+02 -0.70982887265E+02  0.13122196761E+03  0.47000000000E+01 0. -1.
         -5    1    3    3    0  502  0.45652739477E+02 -0.81542585776E+01  0.17516819580E+02  0.49795517096E+02  0.47000000000E+01 0.  1.
          5    1    4    4  503    0 -0.24946681525E+02 -0.12781638636E+02 -0.17356356984E+02  0.33302257177E+02  0.47000000000E+01 0. -1.
         -5    1    4    4    0  503 -0.89277536989E+02  0.10728690625E+03  0.20479822164E+01  0.13966833247E+03  0.47000000000E+01 0.  1.
<mgrwt>
<rscale>  0 0.17277874E+03</rscale>
<asrwt>0</asrwt>
<pdfrwt beam="1">  1        2 0.32520193E-01 0.17294135E+03</pdfrwt>
<pdfrwt beam="2">  1       -2 0.21939510E-01 0.17294135E+03</pdfrwt>
<totfact> 0.28083910E+03</totfact>
</mgrwt>
</event>
<event>
 7    1  0.7366917E-004  0.1607211E+03  0.7546771E-02  0.1195035E+00
          2   -1    0    0  501    0  0.00000000000E+00  0.00000000000E+00  0.13636687636E+03  0.13636687636E+03  0.00000000000E+00 0. -1.
         -2   -1    0    0    0  501 -0.00000000000E+00 -0.00000000000E+00 -0.21185838030E+03  0.21185838030E+03  0.00000000000E+00 0.  1.
         23    2    1    2    0    0 -0.79156204259E+02  0.10578314693E+03 -0.12359811514E+03  0.20275050197E+03  0.91517720327E+02 0.  0.
          5    1    3    3  502    0 -0.48301059658E+02  0.95191239673E+02 -0.13092099548E+03  0.16898745969E+03  0.47000000000E+01 0. -1.
         -5    1    3    3    0  502 -0.30855144601E+02  0.10591907257E+02  0.73228803336E+01  0.33763042281E+02  0.47000000000E+01 0.  1.
          5    1    1    2  503    0  0.50111251932E+02 -0.91753721564E+02  0.38211422710E+02  0.11140954096E+03  0.47000000000E+01 0.  1.
         -5    1    1    2    0  503  0.29044952327E+02 -0.14029425367E+02  0.98951884866E+01  0.34065213738E+02  0.47000000000E+01 0.  1.
<mgrwt>
<rscale>  0 0.15451289E+03</rscale>
<asrwt>0</asrwt>
<pdfrwt beam="1">  1        2 0.20979519E-01 0.16072110E+03</pdfrwt>
<pdfrwt beam="2">  1       -2 0.32593597E-01 0.16072110E+03</pdfrwt>
<totfact> 0.22521724E+03</totfact>
</mgrwt>
</event>
<event>
 8    1  0.7366917E-004  0.1524869E+03  0.7546771E-02  0.1198685E+00
          2   -1    0    0  501    0  0.00000000000E+00  0.00000000000E+00  0.21810723751E+03  0.21810723751E+03  0.00000000000E+00 0. -1.
         -2   -1    0    0    0  501 -0.00000000000E+00 -0.00000000000E+00 -0.15735745591E+03  0.15735745591E+03  0.00000000000E+00 0.  1.
         23    2    1    2    0    0 -0.11499900620E+03 -0.40755131083E+02 -0.79412817628E+02  0.16834680133E+03  0.84548789336E+02 0.  0.
         23    2    1    2    0    0  0.11499900620E+03  0.40755131083E+02  0.14016259922E+03  0.20711789208E+03  0.91468655080E+02 0.  0.
          5    1    3    3  502    0 -0.17618779642E+02 -0.46514036322E+02 -0.18674111609E+02  0.53336567338E+02  0.47000000000E+01 0. -1.
         -5    1    4    4    0  503  0.39077682481E+02 -0.27624190117E+02  0.29442294076E+02  0.56383506704E+02  0.47000000000E+01 0.  1.
          5    1    4    4  503    0  0.75921323722E+02  0.68379321200E+02  0.11072030515E+03  0.15073438538E+03  0.47000000000E+01 0. -1.
         -5    1    3    3    0  502 -0.97380226562E+02  0.57589052390E+01 -0.60738706019E+02  0.11501023400E+03  0.47000000000E+01 0.  1.
<mgrwt>
<rscale>  0 0.15146482E+03</rscale>
<asrwt>0</asrwt>
<pdfrwt beam="1">  1        2 0.33554960E-01 0.15248694E+03</pdfrwt>
<pdfrwt beam="2">  1       -2 0.24208839E-01 0.15248694E+03</pdfrwt>
<totfact> 0.22774389E+03</totfact>
</mgrwt>
</event>
<event>
 8    1  0.7366917E-004  0.1014313E+03  0.7546771E-02  0.1278826E+00
          1   -1    0    0  501    0  0.00000000000E+00  0.00000000000E+00  0.53517162059E+03  0.53517162059E+03  0.00000000000E+00 0. -1.
         -1   -1    0    0    0  501 -0.00000000000E+00 -0.00000000000E+00 -0.19062709482E+02  0.19062709482E+02  0.00000000000E+00 0.  1.
         23    2    1    2    0    0  0.40489984669E+02  0.91243130626E+01  0.22251308601E+03  0.24454116714E+03  0.92550618769E+02 0.  0.
         23    2    1    2    0    0 -0.40489984669E+02 -0.91243130626E+01  0.29359582510E+03  0.30969316293E+03  0.89379274456E+02 0.  0.
          5    1    4    4  502    0 -0.48942826701E+02  0.24792940590E+02  0.11320789496E+03  0.12588966466E+03  0.47000000000E+01 0. -1.
         -5    1    3    3    0  503 -0.80274131085E+01  0.40794516474E+02  0.73243846634E+02  0.84352729685E+02  0.47000000000E+01 0.  1.
          5    1    3    3  503    0  0.48517397778E+02 -0.31670203412E+02  0.14926923937E+03  0.16018843746E+03  0.47000000000E+01 0. -1.
         -5    1    4    4    0  502  0.84528420316E+01 -0.33917253653E+02  0.18038793014E+03  0.18380349826E+03  0.47000000000E+01 0.  1.
<mgrwt>
<rscale>  0 0.10070219E+03</rscale>
<asrwt>0</asrwt>
<pdfrwt beam="1">  1        1 0.82334084E-01 0.10143130E+03</pdfrwt>
<pdfrwt beam="2">  1       -1 0.29327249E-02 0.10143130E+03</pdfrwt>
<totfact> 0.14842003E+04</totfact>
</mgrwt>
</event>
<event>
 8    1  0.7366917E-004  0.9575366E+02  0.7546771E-02  0.1290499E+00
         -1   -1    0    0    0  501 -0.00000000000E+00  0.00000000000E+00  0.23548634829E+03  0.23548634829E+03  0.00000000000E+00 0.  1.
          1   -1    0    0  501    0  0.00000000000E+00 -0.00000000000E+00 -0.46377717612E+02  0.46377717612E+02  0.00000000000E+00 0. -1.
         23    2    1    2    0    0  0.50486638204E+01 -0.21521589851E+02  0.15444102784E+03  0.18171624846E+03  0.93167033008E+02 0.  0.
         23    2    1    2    0    0 -0.50486638204E+01  0.21521589851E+02  0.34667602845E+02  0.10014781744E+03  0.91318534898E+02 0.  0.
          5    1    4    4  502    0 -0.17041841659E+02  0.43086326849E+02 -0.11157440474E+02  0.47889815267E+02  0.47000000000E+01 0. -1.
         -5    1    4    4    0  502  0.11993177838E+02 -0.21564736997E+02  0.45825043319E+02  0.52258002178E+02  0.47000000000E+01 0.  1.
          5    1    3    3  503    0  0.37430897865E+02  0.53218389361E+01  0.25091787924E+02  0.45618876640E+02  0.47000000000E+01 0. -1.
         -5    1    3    3    0  503 -0.32382234045E+02 -0.26843428788E+02  0.12934923991E+03  0.13609737182E+03  0.47000000000E+01 0.  1.
<mgrwt>
<rscale>  0 0.95301065E+02</rscale>
<asrwt>0</asrwt>
<pdfrwt beam="1">  1        1 0.71350336E-02 0.95753662E+02</pdfrwt>
<pdfrwt beam="2">  1       -1 0.36228668E-01 0.95753662E+02</pdfrwt>
<totfact> 0.68928763E+03</totfact>
</mgrwt>
</event>
<event>
 8    1  0.7366917E-004  0.1110273E+03  0.7546771E-02  0.1259518E+00
         -2   -1    0    0    0  501 -0.00000000000E+00  0.00000000000E+00  0.79708313965E+02  0.79708313965E+02  0.00000000000E+00 0.  1.
          2   -1    0    0  501    0  0.00000000000E+00 -0.00000000000E+00 -0.36193903425E+03  0.36193903425E+03  0.00000000000E+00 0. -1.
         23    2    1    2    0    0 -0.11536871245E+02  0.61663741499E+02  0.26520323468E+02  0.11415073326E+03  0.91605381575E+02 0.  0.
         23    2    1    2    0    0  0.11536871245E+02 -0.61663741499E+02 -0.30875104375E+03  0.32749661495E+03  0.89394123820E+02 0.  0.
          5    1    3    3  502    0 -0.41989091823E+02  0.31662636051E+02 -0.14463586866E+02  0.54743873619E+02  0.47000000000E+01 0. -1.
         -5    1    4    4    0  503  0.39754318472E+02 -0.68888478885E+02 -0.22183792065E+03  0.23571207309E+03  0.47000000000E+01 0.  1.
          5    1    4    4  503    0 -0.28217447227E+02  0.72247373853E+01 -0.86913123098E+02  0.91784541862E+02  0.47000000000E+01 0. -1.
         -5    1    3    3    0  502  0.30452220578E+02  0.30001105448E+02  0.40983910335E+02  0.59406859642E+02  0.47000000000E+01 0.  1.
<mgrwt>
<rscale>  0 0.11057016E+03</rscale>
<asrwt>0</asrwt>
<pdfrwt beam="1">  1        2 0.55682928E-01 0.11102730E+03</pdfrwt>
<pdfrwt beam="2">  1       -2 0.12262818E-01 0.11102730E+03</pdfrwt>
<totfact> 0.40566316E+03</totfact>
</mgrwt>
</event>
<event>
 8    1  0.7366917E-004  0.1421725E+03  0.7546771E-02  0.1212563E+00
          1   -1    0    0  501    0  0.00000000000E+00  0.00000000000E+00  0.26422296013E+02  0.26422296013E+02  0.00000000000E+00 0. -1.
         -1   -1    0    0    0  501 -0.00000000000E+00 -0.00000000000E+00 -0.83412877382E+03  0.83412877382E+03  0.00000000000E+00 0.  1.
         23    2    1    2    0    0 -0.77305630490E+02  0.68961603215E+02 -0.54673503428E+03  0.56336576675E+03  0.87919998967E+02 0.  0.
         23    2    1    2    0    0  0.77305630490E+02 -0.68961603215E+02 -0.26097144353E+03  0.29718530309E+03  0.97371180573E+02 0.  0.
          5    1    4    4  502    0  0.28290709518E+02 -0.58633223970E+02 -0.22769326988E+03  0.23686395746E+03  0.47000000000E+01 0.  1.
         -5    1    3    3    0  503 -0.84166663022E+02  0.20933176175E+02 -0.36702841135E+03  0.37716597112E+03  0.47000000000E+01 0.  1.
          5    1    3    3  503    0  0.68610325323E+01  0.48028427039E+02 -0.17970662292E+03  0.18619979563E+03  0.47000000000E+01 0. -1.
         -5    1    4    4    0  502  0.49014920972E+02 -0.10328379245E+02 -0.33278173658E+02  0.60321345623E+02  0.47000000000E+01 0. -1.
<mgrwt>
<rscale>  0 0.14057104E+03</rscale>
<asrwt>0</asrwt>
<pdfrwt beam="1">  1        1 0.40649687E-02 0.14217247E+03</pdfrwt>
<pdfrwt beam="2">  1       -1 0.12832750E+00 0.14217247E+03</pdfrwt>
<totfact> 0.12252404E+03</totfact>
</mgrwt>
</event>
<event>
 8    1  0.7366917E-004  0.9791046E+02  0.7546771E-02  0.1285104E+00
          2   -1    0    0  501    0  0.00000000000E+00  0.00000000000E+00  0.27540607933E+02  0.27540607933E+02  0.00000000000E+00 0. -1.
         -2   -1    0    0    0  501 -0.00000000000E+00 -0.00000000000E+00 -0.40532254918E+03  0.40532254918E+03  0.00000000000E+00 0.  1.
         23    2    1    2    0    0 -0.19887775521E+02  0.27789204548E+02 -0.10540498690E+03  0.14342289963E+03  0.91061261644E+02 0.  0.
         23    2    1    2    0    0  0.19887775521E+02 -0.27789204548E+02 -0.27237695435E+03  0.28944025748E+03  0.91753440721E+02 0.  0.
          5    1    3    3  502    0 -0.29567315965E+02  0.57425826371E+02 -0.80029811742E+02  0.10295053412E+03  0.47000000000E+01 0. -1.
         -5    1    4    4    0  503 -0.16936476539E+02 -0.49589435575E+02 -0.17986529436E+03  0.18740216240E+03  0.47000000000E+01 0.  1.
          5    1    4    4  503    0  0.36824252060E+02  0.21800231027E+02 -0.92511659989E+02  0.10203809507E+03  0.47000000000E+01 0. -1.
         -5    1    3    3    0  502  0.96795404441E+01 -0.29636621823E+02 -0.25375175155E+02  0.40472365516E+02  0.47000000000E+01 0.  1.
<mgrwt>
<rscale>  0 0.97747964E+02</rscale>
<asrwt>0</asrwt>
<pdfrwt beam="1">  1        2 0.42370169E-02 0.97910456E+02</pdfrwt>
<pdfrwt beam="2">  1       -2 0.62357311E-01 0.97910456E+02</pdfrwt>
<totfact> 0.44192567E+03</totfact>
</mgrwt>
</event>
<event>
 8    1  0.7366917E-004  0.1154677E+03  0.7546771E-02  0.1252829E+00
          2   -1    0    0  501    0  0.00000000000E+00  0.00000000000E+00  0.11723403593E+03  0.11723403593E+03  0.00000000000E+00 0. -1.
         -2   -1    0    0    0  501 -0.00000000000E+00 -0.00000000000E+00 -0.12617627416E+03  0.12617627416E+03  0.00000000000E+00 0.  1.
         23    2    1    2    0    0 -0.50182132436E+02 -0.47075762307E+02 -0.49029257685E+02  0.12118198746E+03  0.86872505223E+02 0.  0.
         23    2    1    2    0    0  0.50182132436E+02  0.47075762307E+02  0.40087019451E+02  0.12222832262E+03  0.92727665288E+02 0.  0.
          5    1    3    3  502    0  0.14072998939E+02 -0.39222607050E+02 -0.38697812245E+01  0.42113268808E+02  0.47000000000E+01 0. -1.
         -5    1    4    4    0  503 -0.19748214513E+02  0.36972734137E+02  0.27375212887E+02  0.50283867459E+02  0.47000000000E+01 0.  1.
          5    1    4    4  503    0  0.69930346948E+02  0.10103028170E+02  0.12711806564E+02  0.71944455163E+02  0.47000000000E+01 0. -1.
         -5    1    3    3    0  502 -0.64255131375E+02 -0.78531552570E+01 -0.45159476460E+02  0.79068718655E+02  0.47000000000E+01 0.  1.
<mgrwt>
<rscale>  0 0.11428798E+03</rscale>
<asrwt>0</asrwt>
<pdfrwt beam="1">  1        2 0.18036005E-01 0.11546772E+03</pdfrwt>
<pdfrwt beam="2">  1       -2 0.19411735E-01 0.11546772E+03</pdfrwt>
<totfact> 0.64948341E+03</totfact>
</mgrwt>
</event>
<event>
 8    1  0.7366917E-004  0.9930832E+02  0.7546771E-02  0.1281979E+00
          3   -1    0    0  501    0  0.00000000000E+00  0.00000000000E+00  0.12476730982E+02  0.12476730982E+02  0.00000000000E+00 0. -1.
         -3   -1    0    0    0  501 -0.00000000000E+00 -0.00000000000E+00 -0.85685761409E+03  0.85685761409E+03  0.00000000000E+00 0.  1.
         23    2    1    2    0    0  0.40074371945E+02  0.76868604108E+01 -0.29737869331E+03  0.31339051908E+03  0.90080447958E+02 0.  0.
         23    2    1    2    0    0 -0.40074371945E+02 -0.76868604108E+01 -0.54700218980E+03  0.55594382600E+03  0.90537831351E+02 0.  0.
          5    1    3    3  502    0  0.48475490264E+02 -0.21391113411E+02 -0.96498170856E+02  0.11018820204E+03  0.47000000000E+01 0. -1.
         -5    1    3    3    0  502 -0.84011183186E+01  0.29077973822E+02 -0.20088052245E+03  0.20320231704E+03  0.47000000000E+01 0.  1.
          5    1    4    4  503    0  0.15973372687E+02 -0.32966924761E+02 -0.23802440019E+03  0.24087272957E+03  0.47000000000E+01 0. -1.
         -5    1    4    4    0  503 -0.56047744632E+02  0.25280064350E+02 -0.30897778961E+03  0.31507109643E+03  0.47000000000E+01 0.  1.
<mgrwt>
<rscale>  0 0.99203951E+02</rscale>
<asrwt>0</asrwt>
<pdfrwt beam="1">  1        3 0.19194968E-02 0.99308318E+02</pdfrwt>
<pdfrwt beam="2">  1       -3 0.13182427E+00 0.99308318E+02</pdfrwt>
<totfact> 0.10491456E+03</totfact>
</mgrwt>
</event>
<event>
 8    1  0.7366917E-004  0.1189044E+03  0.7546771E-02  0.1248295E+00
         -1   -1    0    0    0  501 -0.00000000000E+00  0.00000000000E+00  0.29574851773E+02  0.29574851773E+02  0.00000000000E+00 0.  1.
          1   -1    0    0  501    0  0.00000000000E+00 -0.00000000000E+00 -0.52920370541E+03  0.52920370541E+03  0.00000000000E+00 0. -1.
         23    2    1    2    0    0  0.72362486229E+02 -0.21607674461E+02 -0.36691629494E+03  0.38570173814E+03  0.91842486336E+02 0.  0.
         23    2    1    2    0    0 -0.72362486229E+02  0.21607674461E+02 -0.13271255869E+03  0.17307681904E+03  0.81484606199E+02 0.  0.
          5    1    3    3  502    0  0.53084360085E+02  0.38290105907E+00 -0.73465707334E+02  0.90760101658E+02  0.47000000000E+01 0. -1.
         -5    1    3    3    0  502  0.19278126144E+02 -0.21990575520E+02 -0.29345058761E+03  0.29494163648E+03  0.47000000000E+01 0.  1.
          5    1    4    4  503    0 -0.93843030640E+01 -0.19803775712E+02 -0.74288239076E+02  0.77595664450E+02  0.47000000000E+01 0. -1.
         -5    1    4    4    0  503 -0.62978183165E+02  0.41411450173E+02 -0.58424319614E+02  0.95481154594E+02  0.47000000000E+01 0.  1.
<mgrwt>
<rscale>  0 0.11690308E+03</rscale>
<asrwt>0</asrwt>
<pdfrwt beam="1">  1        1 0.81415950E-01 0.11890443E+03</pdfrwt>
<pdfrwt beam="2">  1       -1 0.45499775E-02 0.11890443E+03</pdfrwt>
<totfact> 0.80440115E+03</totfact>
</mgrwt>
</event>
<event>
 8    1  0.7366917E-004  0.9545897E+02  0.7546771E-02  0.1290917E+00
         -1   -1    0    0    0  501 -0.00000000000E+00  0.00000000000E+00  0.56161074885E+02  0.56161074885E+02  0.00000000000E+00 0.  1.
          1   -1    0    0  501    0  0.00000000000E+00 -0.00000000000E+00 -0.17365866812E+03  0.17365866812E+03  0.00000000000E+00 0. -1.
         23    2    1    2    0    0 -0.61699781122E+01  0.20206069573E+02 -0.26840100348E+02  0.99160507499E+02  0.93091682676E+02 0.  0.
         23    2    1    2    0    0  0.61699781122E+01 -0.20206069573E+02 -0.90657492889E+02  0.13065923551E+03  0.91688063177E+02 0.  0.
          5    1    4    4  502    0  0.38251473305E+02  0.16184864018E+02 -0.59840456506E+02  0.72993802943E+02  0.47000000000E+01 0. -1.
         -5    1    4    4    0  502 -0.32081495193E+02 -0.36390933591E+02 -0.30817036383E+02  0.57665432565E+02  0.47000000000E+01 0.  1.
          5    1    3    3  503    0  0.37732414893E+02 -0.12092565627E+02 -0.48250760294E+01  0.40191250737E+02  0.47000000000E+01 0. -1.
         -5    1    3    3    0  503 -0.43902393005E+02  0.32298635200E+02 -0.22015024318E+02  0.58969256762E+02  0.47000000000E+01 0.  1.
<mgrwt>
<rscale>  0 0.95115043E+02</rscale>
<asrwt>0</asrwt>
<pdfrwt beam="1">  1        1 0.26716718E-01 0.95458972E+02</pdfrwt>
<pdfrwt beam="2">  1       -1 0.86401655E-02 0.95458972E+02</pdfrwt>
<totfact> 0.12199500E+04</totfact>
</mgrwt>
</event>
<event>
 8    1  0.7366917E-004  0.9779422E+02  0.7546771E-02  0.1286052E+00
          1   -1    0    0  501    0  0.00000000000E+00  0.00000000000E+00  0.10862343129E+03  0.10862343129E+03  0.00000000000E+00 0. -1.
         -1   -1    0    0    0  501 -0.00000000000E+00 -0.00000000000E+00 -0.86758417742E+02  0.86758417742E+02  0.00000000000E+00 0.  1.
         23    2    1    2    0    0 -0.21194967276E+02 -0.35279802847E+02  0.39611378798E+01  0.95962241124E+02  0.86597748132E+02 0.  0.
         23    2    1    2    0    0  0.21194967276E+02  0.35279802847E+02  0.17903875671E+02  0.99419607911E+02  0.88711997759E+02 0.  0.
          5    1    3    3  502    0 -0.34788533737E+02 -0.50949970026E+02  0.24356003281E+02  0.66493957779E+02  0.47000000000E+01 0. -1.
         -5    1    4    4    0  503 -0.25501486102E+02  0.41247334046E+02 -0.31593125400E+00  0.48722255406E+02  0.47000000000E+01 0.  1.
          5    1    4    4  503    0  0.46696453378E+02 -0.59675311990E+01  0.18219806925E+02  0.50697352505E+02  0.47000000000E+01 0. -1.
         -5    1    3    3    0  502  0.13593566462E+02  0.15670167180E+02 -0.20394865401E+02  0.29468283345E+02  0.47000000000E+01 0.  1.
<mgrwt>
<rscale>  0 0.97312227E+02</rscale>
<asrwt>0</asrwt>
<pdfrwt beam="1">  1        1 0.16711297E-01 0.97794221E+02</pdfrwt>
<pdfrwt beam="2">  1       -1 0.13347449E-01 0.97794221E+02</pdfrwt>
<totfact> 0.11375829E+04</totfact>
</mgrwt>
</event>
<event>
 8    1  0.7366917E-004  0.9339843E+02  0.7546771E-02  0.1295848E+00
         -1   -1    0    0    0  501 -0.00000000000E+00  0.00000000000E+00  0.42464372067E+03  0.42464372067E+03  0.00000000000E+00 0.  1.
          1   -1    0    0  501    0  0.00000000000E+00 -0.00000000000E+00 -0.23256027106E+02  0.23256027106E+02  0.00000000000E+00 0. -1.
         23    2    1    2    0    0 -0.12424884955E+02 -0.14973338408E+02  0.12060490468E+03  0.15254117168E+03  0.91349260510E+02 0.  0.
         23    2    1    2    0    0  0.12424884955E+02  0.14973338408E+02  0.28078278889E+03  0.29535857610E+03  0.89549624845E+02 0.  0.
          5    1    3    3  502    0  0.34476560092E+02  0.13468429856E+02  0.60090919997E+02  0.70732174183E+02  0.47000000000E+01 0. -1.
         -5    1    4    4    0  503 -0.21886250693E+02  0.34867903553E+02  0.21033044298E+03  0.21437295518E+03  0.47000000000E+01 0.  1.
          5    1    4    4  503    0  0.34311135648E+02 -0.19894565145E+02  0.70452345901E+02  0.80985620914E+02  0.47000000000E+01 0. -1.
         -5    1    3    3    0  502 -0.46901445047E+02 -0.28441768264E+02  0.60513984682E+02  0.81808997497E+02  0.47000000000E+01 0.  1.
<mgrwt>
<rscale>  0 0.92955438E+02</rscale>
<asrwt>0</asrwt>
<pdfrwt beam="1">  1        1 0.35778506E-02 0.93398426E+02</pdfrwt>
<pdfrwt beam="2">  1       -1 0.65329798E-01 0.93398426E+02</pdfrwt>
<totfact> 0.60328450E+03</totfact>
</mgrwt>
</event>
<event>
 8    1  0.7366917E-004  0.1679438E+03  0.7546771E-02  0.1180399E+00
          1   -1    0    0  501    0  0.00000000000E+00  0.00000000000E+00  0.14996435981E+03  0.14996435981E+03  0.00000000000E+00 0. -1.
         -1   -1    0    0    0  501 -0.00000000000E+00 -0.00000000000E+00 -0.18646354862E+03  0.18646354862E+03  0.00000000000E+00 0.  1.
         23    2    1    2    0    0  0.11437393456E+03 -0.83362278214E+02 -0.19938524671E+02  0.16766956694E+03  0.87663404994E+02 0.  0.
         23    2    1    2    0    0 -0.11437393456E+03  0.83362278214E+02 -0.16560664141E+02  0.16875834149E+03  0.90412697612E+02 0.  0.
          5    1    4    4  502    0 -0.79240126435E+02  0.10030958197E+03 -0.59295631621E+01  0.12805568941E+03  0.47000000000E+01 0. -1.
         -5    1    4    4    0  502 -0.35133808129E+02 -0.16947303753E+02 -0.10631100979E+02  0.40702652078E+02  0.47000000000E+01 0.  1.
          5    1    3    3  503    0  0.30679287598E+02 -0.20163901914E+02  0.33454864254E+02  0.49891077059E+02  0.47000000000E+01 0. -1.
         -5    1    3    3    0  503  0.83694646966E+02 -0.63198376300E+02 -0.53393388924E+02  0.11777848988E+03  0.47000000000E+01 0.  1.
<mgrwt>
<rscale>  0 0.16757661E+03</rscale>
<asrwt>0</asrwt>
<pdfrwt beam="1">  1        1 0.23071440E-01 0.16794381E+03</pdfrwt>
<pdfrwt beam="2">  1       -1 0.28686700E-01 0.16794381E+03</pdfrwt>
<totfact> 0.22947450E+03</totfact>
</mgrwt>
</event>
<event>
 8    1  0.7366917E-004  0.9219162E+02  0.7546771E-02  0.1298943E+00
          1   -1    0    0  501    0  0.00000000000E+00  0.00000000000E+00  0.21059887084E+03  0.21059887084E+03  0.00000000000E+00 0. -1.
         -1   -1    0    0    0  501 -0.00000000000E+00 -0.00000000000E+00 -0.41380961644E+02  0.41380961644E+02  0.00000000000E+00 0.  1.
         23    2    1    2    0    0  0.96420808228E+01  0.27955248793E+01  0.56033002865E+02  0.10599998052E+03  0.89417636840E+02 0.  0.
         23    2    1    2    0    0 -0.96420808228E+01 -0.27955248793E+01  0.11318490633E+03  0.14597985197E+03  0.91643382067E+02 0.  0.
          5    1    3    3  502    0  0.30800629548E+02 -0.32875443510E+02  0.15647396340E+02  0.47920815715E+02  0.47000000000E+01 0. -1.
         -5    1    3    3    0  502 -0.21158548725E+02  0.35670968390E+02  0.40385606525E+02  0.58079164805E+02  0.47000000000E+01 0.  1.
          5    1    4    4  503    0  0.25257984599E+02  0.32024038611E+02  0.37950312227E+02  0.55909042498E+02  0.47000000000E+01 0. -1.
         -5    1    4    4    0  503 -0.34900065422E+02 -0.34819563490E+02  0.75234594105E+02  0.90070809468E+02  0.47000000000E+01 0.  1.
<mgrwt>
<rscale>  0 0.91633523E+02</rscale>
<asrwt>0</asrwt>
<pdfrwt beam="1">  1        1 0.32399826E-01 0.92191617E+02</pdfrwt>
<pdfrwt beam="2">  1       -1 0.63663019E-02 0.92191617E+02</pdfrwt>
<totfact> 0.15109266E+04</totfact>
</mgrwt>
</event>
<event>
 8    1  0.7366917E-004  0.9848791E+02  0.7546771E-02  0.1286426E+00
         -3   -1    0    0    0  501 -0.00000000000E+00  0.00000000000E+00  0.69236876891E+02  0.69236876891E+02  0.00000000000E+00 0.  1.
          3   -1    0    0  501    0  0.00000000000E+00 -0.00000000000E+00 -0.14010687924E+03  0.14010687924E+03  0.00000000000E+00 0. -1.
         23    2    1    2    0    0 -0.97131947845E+01  0.12274200086E+02 -0.58587213210E+02  0.11009288919E+03  0.91885692892E+02 0.  0.
         23    2    1    2    0    0  0.97131947845E+01 -0.12274200086E+02 -0.12282789136E+02  0.99250866936E+02  0.97236132883E+02 0.  0.
          5    1    4    4  502    0  0.62849445530E+01  0.42594589308E+02 -0.53574382735E+01  0.43641628192E+02  0.47000000000E+01 0. -1.
         -5    1    4    4    0  502  0.34282502315E+01 -0.54868789394E+02 -0.69253508627E+01  0.55609238745E+02  0.47000000000E+01 0.  1.
          5    1    3    3  503    0  0.36994286883E+02  0.23962573236E+02 -0.22306045984E+02  0.49622896585E+02  0.47000000000E+01 0. -1.
         -5    1    3    3    0  503 -0.46707481667E+02 -0.11688373150E+02 -0.36281167226E+02  0.60469992607E+02  0.47000000000E+01 0.  1.
<mgrwt>
<rscale>  0 0.97140883E+02</rscale>
<asrwt>0</asrwt>
<pdfrwt beam="1">  1        3 0.21554904E-01 0.98487906E+02</pdfrwt>
<pdfrwt beam="2">  1       -3 0.10651827E-01 0.98487906E+02</pdfrwt>
<totfact> 0.28000109E+03</totfact>
</mgrwt>
</event>
<event>
 8    1  0.7366917E-004  0.1006280E+03  0.7546771E-02  0.1281607E+00
          1   -1    0    0  501    0  0.00000000000E+00  0.00000000000E+00  0.76963916770E+03  0.76963916770E+03  0.00000000000E+00 0. -1.
         -1   -1    0    0    0  501 -0.00000000000E+00 -0.00000000000E+00 -0.22097920045E+02  0.22097920045E+02  0.00000000000E+00 0.  1.
         23    2    1    2    0    0 -0.30404482201E+02  0.29918160560E+01  0.10795096011E+03  0.14427919220E+03  0.90717649950E+02 0.  0.
         23    2    1    2    0    0  0.30404482201E+02 -0.29918160560E+01  0.63959028754E+03  0.64745789554E+03  0.95878084460E+02 0.  0.
          5    1    3    3  502    0 -0.56018252669E+02  0.37199508106E+01  0.33833657912E+02  0.65716733591E+02  0.47000000000E+01 0. -1.
         -5    1    4    4    0  503  0.44738553269E+02  0.33394717452E+02  0.47135558327E+03  0.47467348903E+03  0.47000000000E+01 0.  1.
          5    1    4    4  503    0 -0.14334071068E+02 -0.36386533508E+02  0.16823470426E+03  0.17278440651E+03  0.47000000000E+01 0. -1.
         -5    1    3    3    0  502  0.25613770468E+02 -0.72813475461E+00  0.74117302202E+02  0.78562458614E+02  0.47000000000E+01 0.  1.
<mgrwt>
<rscale>  0 0.99378910E+02</rscale>
<asrwt>0</asrwt>
<pdfrwt beam="1">  1        1 0.11840601E+00 0.10062798E+03</pdfrwt>
<pdfrwt beam="2">  1       -1 0.33996806E-02 0.10062798E+03</pdfrwt>
<totfact> 0.72629587E+03</totfact>
</mgrwt>
</event>
<event>
 8    1  0.7366917E-004  0.9144715E+02  0.7546771E-02  0.1299912E+00
          3   -1    0    0  501    0  0.00000000000E+00  0.00000000000E+00  0.71093095060E+03  0.71093095060E+03  0.00000000000E+00 0. -1.
         -3   -1    0    0    0  501 -0.00000000000E+00 -0.00000000000E+00 -0.13692223593E+02  0.13692223593E+02  0.00000000000E+00 0.  1.
         23    2    1    2    0    0  0.27956323610E+01 -0.88325246617E+01  0.21011399972E+03  0.22915164066E+03  0.90976659024E+02 0.  0.
         23    2    1    2    0    0 -0.27956323610E+01  0.88325246617E+01  0.48712472730E+03  0.49547153354E+03  0.90087244122E+02 0.  0.
          5    1    3    3  502    0 -0.32797157873E+02 -0.30833802167E+02  0.74695031746E+02  0.87337361353E+02  0.47000000000E+01 0. -1.
         -5    1    4    4    0  503  0.17634733179E+02  0.41935818835E+02  0.17421928119E+03  0.18012230471E+03  0.47000000000E+01 0.  1.
          5    1    4    4  503    0 -0.20430365540E+02 -0.33103294173E+02  0.31290544611E+03  0.31534922883E+03  0.47000000000E+01 0. -1.
         -5    1    3    3    0  502  0.35592790234E+02  0.22001277506E+02  0.13541896797E+03  0.14181427930E+03  0.47000000000E+01 0.  1.
<mgrwt>
<rscale>  0 0.91225146E+02</rscale>
<asrwt>0</asrwt>
<pdfrwt beam="1">  1        3 0.10937396E+00 0.91447152E+02</pdfrwt>
<pdfrwt beam="2">  1       -3 0.21064965E-02 0.91447152E+02</pdfrwt>
<totfact> 0.13923451E+03</totfact>
</mgrwt>
</event>
<event>
 8    1  0.7366917E-004  0.1041048E+03  0.7546771E-02  0.1272395E+00
          1   -1    0    0  501    0  0.00000000000E+00  0.00000000000E+00  0.89692335630E+03  0.89692335630E+03  0.00000000000E+00 0. -1.
         -1   -1    0    0    0  501 -0.00000000000E+00 -0.00000000000E+00 -0.20457274150E+02  0.20457274150E+02  0.00000000000E+00 0.  1.
         23    2    1    2    0    0  0.28870551552E+02 -0.38937920479E+02  0.73496410820E+03  0.74230051350E+03  0.92131110902E+02 0.  0.
         23    2    1    2    0    0 -0.28870551552E+02  0.38937920479E+02  0.14150197395E+03  0.17508011695E+03  0.90997628115E+02 0.  0.
          5    1    4    4  502    0 -0.16733883363E+02 -0.29031389300E+02  0.49347426762E+02  0.59833961469E+02  0.47000000000E+01 0. -1.
         -5    1    4    4    0  502 -0.12136668190E+02  0.67969309778E+02  0.92154547186E+02  0.11524615548E+03  0.47000000000E+01 0.  1.
          5    1    3    3  503    0  0.25896141781E+02 -0.68834352972E+02  0.51883022706E+03  0.52403785438E+03  0.47000000000E+01 0. -1.
         -5    1    3    3    0  503  0.29744097714E+01  0.29896432494E+02  0.21613388114E+03  0.21826265912E+03  0.47000000000E+01 0.  1.
<mgrwt>
<rscale>  0 0.10385346E+03</rscale>
<asrwt>0</asrwt>
<pdfrwt beam="1">  1        1 0.13798818E+00 0.10410481E+03</pdfrwt>
<pdfrwt beam="2">  1       -1 0.31472736E-02 0.10410481E+03</pdfrwt>
<totfact> 0.64525639E+03</totfact>
</mgrwt>
</event>
<event>
 8    1  0.7366917E-004  0.1075218E+03  0.7546771E-02  0.1265834E+00
         -2   -1    0    0    0  501 -0.00000000000E+00  0.00000000000E+00  0.72557073036E+02  0.72557073036E+02  0.00000000000E+00 0.  1.
          2   -1    0    0  501    0  0.00000000000E+00 -0.00000000000E+00 -0.41887933401E+03  0.41887933401E+03  0.00000000000E+00 0. -1.
         23    2    1    2    0    0 -0.45970780054E+02 -0.30719674190E+02 -0.36765370019E+03  0.38305375674E+03  0.92216735409E+02 0.  0.
         23    2    1    2    0    0  0.45970780054E+02  0.30719674190E+02  0.21331439221E+02  0.10838265030E+03  0.90745565101E+02 0.  0.
          5    1    4    4  502    0 -0.16424263887E+02  0.38486837524E+02  0.16219294137E+02  0.45123703406E+02  0.47000000000E+01 0. -1.
         -5    1    3    3    0  503  0.20770606051E+01 -0.53529799676E+02 -0.16900691477E+03  0.17735608497E+03  0.47000000000E+01 0.  1.
          5    1    3    3  503    0 -0.48047840659E+02  0.22810125486E+02 -0.19864678542E+03  0.20569767178E+03  0.47000000000E+01 0. -1.
         -5    1    4    4    0  502  0.62395043941E+02 -0.77671633337E+01  0.51121450838E+01  0.63258946893E+02  0.47000000000E+01 0.  1.
<mgrwt>
<rscale>  0 0.10720564E+03</rscale>
<asrwt>0</asrwt>
<pdfrwt beam="1">  1        2 0.64442975E-01 0.10752180E+03</pdfrwt>
<pdfrwt beam="2">  1       -2 0.11162627E-01 0.10752180E+03</pdfrwt>
<totfact> 0.40261507E+03</totfact>
</mgrwt>
</event>
<event>
 8    1  0.7366917E-004  0.1038976E+03  0.7546771E-02  0.1276010E+00
         -2   -1    0    0    0  501 -0.00000000000E+00  0.00000000000E+00  0.26804187357E+02  0.26804187357E+02  0.00000000000E+00 0.  1.
          2   -1    0    0  501    0  0.00000000000E+00 -0.00000000000E+00 -0.46566453146E+03  0.46566453146E+03  0.00000000000E+00 0. -1.
         23    2    1    2    0    0  0.11561879462E+02  0.25717831136E+02 -0.10487216802E+03  0.14269335801E+03  0.92564242019E+02 0.  0.
         23    2    1    2    0    0 -0.11561879462E+02 -0.25717831136E+02 -0.33398817609E+03  0.34977536081E+03  0.99998086814E+02 0.  0.
          5    1    3    3  502    0 -0.34502246132E+02  0.17516322830E+02 -0.81147374781E+02  0.90023402443E+02  0.47000000000E+01 0. -1.
         -5    1    3    3    0  502  0.46064125594E+02  0.82015083057E+01 -0.23724793235E+02  0.52669955565E+02  0.47000000000E+01 0.  1.
          5    1    4    4  503    0 -0.95992287919E+01 -0.49314003215E+02 -0.31512629519E+03  0.31914054588E+03  0.47000000000E+01 0. -1.
         -5    1    4    4    0  503 -0.19626506701E+01  0.23596172079E+02 -0.18861880897E+02  0.30634814924E+02  0.47000000000E+01 0.  1.
<mgrwt>
<rscale>  0 0.10206625E+03</rscale>
<asrwt>0</asrwt>
<pdfrwt beam="1">  1        2 0.71640696E-01 0.10389755E+03</pdfrwt>
<pdfrwt beam="2">  1       -2 0.41237212E-02 0.10389755E+03</pdfrwt>
<totfact> 0.16306853E+04</totfact>
</mgrwt>
</event>
<event>
 8    1  0.7366917E-004  0.1034950E+03  0.7546771E-02  0.1273983E+00
         -1   -1    0    0    0  501 -0.00000000000E+00  0.00000000000E+00  0.42532258602E+02  0.42532258602E+02  0.00000000000E+00 0.  1.
          1   -1    0    0  501    0  0.00000000000E+00 -0.00000000000E+00 -0.25888740060E+03  0.25888740060E+03  0.00000000000E+00 0. -1.
         23    2    1    2    0    0 -0.40118070566E+02 -0.29398474458E+02 -0.77683416139E+02  0.12940604161E+03  0.90760567290E+02 0.  0.
         23    2    1    2    0    0  0.40118070566E+02  0.29398474458E+02 -0.13867172586E+03  0.17201361760E+03  0.88798126105E+02 0.  0.
          5    1    4    4  502    0 -0.72567030160E+01  0.49390075019E+02 -0.67684867340E+02  0.84234022318E+02  0.47000000000E+01 0. -1.
         -5    1    4    4    0  502  0.47374773582E+02 -0.19991600561E+02 -0.70986858523E+02  0.87779595282E+02  0.47000000000E+01 0.  1.
          5    1    3    3  503    0 -0.56537777697E+02  0.52853451611E-01 -0.15991572798E+02  0.58943561997E+02  0.47000000000E+01 0. -1.
         -5    1    3    3    0  503  0.16419707131E+02 -0.29451327910E+02 -0.61691843341E+02  0.70462479609E+02  0.47000000000E+01 0.  1.
<mgrwt>
<rscale>  0 0.10306313E+03</rscale>
<asrwt>0</asrwt>
<pdfrwt beam="1">  1        1 0.39828831E-01 0.10349498E+03</pdfrwt>
<pdfrwt beam="2">  1       -1 0.65434244E-02 0.10349498E+03</pdfrwt>
<totfact> 0.11388747E+04</totfact>
</mgrwt>
</event>
<event>
 8    1  0.7366917E-004  0.9799778E+02  0.7546771E-02  0.1284904E+00
         -2   -1    0    0    0  501 -0.00000000000E+00  0.00000000000E+00  0.15574283489E+02  0.15574283489E+02  0.00000000000E+00 0.  1.
          2   -1    0    0  501    0  0.00000000000E+00 -0.00000000000E+00 -0.67823518128E+03  0.67823518128E+03  0.00000000000E+00 0. -1.
         23    2    1    2    0    0  0.21878336145E+02  0.18014151522E+02 -0.43821309375E+03  0.44890053915E+03  0.93154749042E+02 0.  0.
         23    2    1    2    0    0 -0.21878336145E+02 -0.18014151522E+02 -0.22444780404E+03  0.24490892561E+03  0.93810414457E+02 0.  0.
          5    1    3    3  502    0  0.30364219882E+02 -0.32708360286E+02 -0.17446277598E+03  0.18014209081E+03  0.47000000000E+01 0. -1.
         -5    1    4    4    0  503  0.20314344656E+01 -0.22161112995E+02 -0.40173853963E+01  0.23096992025E+02  0.47000000000E+01 0.  1.
          5    1    4    4  503    0 -0.23909770610E+02  0.41469614730E+01 -0.22043041864E+03  0.22181193359E+03  0.47000000000E+01 0. -1.
         -5    1    3    3    0  502 -0.84858837376E+01  0.50722511808E+02 -0.26375031777E+03  0.26875844834E+03  0.47000000000E+01 0.  1.
<mgrwt>
<rscale>  0 0.97840537E+02</rscale>
<asrwt>0</asrwt>
<pdfrwt beam="1">  1        2 0.10434390E+00 0.97997781E+02</pdfrwt>
<pdfrwt beam="2">  1       -2 0.23960429E-02 0.97997781E+02</pdfrwt>
<totfact> 0.23607204E+04</totfact>
</mgrwt>
</event>
<event>
 7    1  0.7366917E-004  0.1628268E+03  0.7546771E-02  0.1199444E+00
         -2   -1    0    0    0  501 -0.00000000000E+00  0.00000000000E+00  0.44141235474E+02  0.44141235474E+02  0.00000000000E+00 0.  1.
          2   -1    0    0  501    0  0.00000000000E+00 -0.00000000000E+00 -0.10495380256E+04  0.10495380256E+04  0.00000000000E+00 0. -1.
         23    2    1    2    0    0  0.64325470220E+02  0.44078020472E+02 -0.88007778088E+03  0.88821049662E+03  0.91106245083E+02 0.  0.
          5    1    1    2  502    0 -0.44551530763E+02 -0.40996445289E+02 -0.15664279175E+03  0.16800179055E+03  0.47000000000E+01 0. -1.
         -5    1    1    2    0  502 -0.19773939456E+02 -0.30815751830E+01  0.31323782479E+02  0.37466973937E+02  0.47000000000E+01 0.  1.
          5    1    3    3  503    0  0.78800578860E+02  0.62991457691E+01 -0.58070560886E+03  0.58608045918E+03  0.47000000000E+01 0. -1.
         -5    1    3    3    0  503 -0.14475108641E+02  0.37778874702E+02 -0.29937217201E+03  0.30213003744E+03  0.47000000000E+01 0.  1.
<mgrwt>
<rscale>  0 0.15084050E+03</rscale>
<asrwt>0</asrwt>
<pdfrwt beam="1">  1        2 0.16146738E+00 0.16282678E+03</pdfrwt>
<pdfrwt beam="2">  1       -2 0.67909595E-02 0.16282678E+03</pdfrwt>
<totfact> 0.29627670E+03</totfact>
</mgrwt>
</event>
<event>
 8    1  0.7366917E-004  0.1611395E+03  0.7546771E-02  0.1187562E+00
          2   -1    0    0  501    0  0.00000000000E+00  0.00000000000E+00  0.10769740909E+04  0.10769740909E+04  0.00000000000E+00 0. -1.
         -2   -1    0    0    0  501 -0.00000000000E+00 -0.00000000000E+00 -0.30104147439E+02  0.30104147439E+02  0.00000000000E+00 0.  1.
         23    2    1    2    0    0 -0.10931993239E+03 -0.74440133449E+02  0.27551205709E+03  0.31917524054E+03  0.92053025423E+02 0.  0.
         23    2    1    2    0    0  0.10931993239E+03  0.74440133449E+02  0.77135788634E+03  0.78790299776E+03  0.91137061508E+02 0.  0.
          5    1    3    3  502    0 -0.34319104125E+02 -0.74543319431E+02  0.10925285345E+03  0.13672155414E+03  0.47000000000E+01 0. -1.
         -5    1    3    3    0  502 -0.75000828263E+02  0.10318598145E+00  0.16625920364E+03  0.18245368640E+03  0.47000000000E+01 0.  1.
          5    1    4    4  503    0  0.92928222439E+02  0.58537498490E+02  0.74346447067E+03  0.75154760488E+03  0.47000000000E+01 0. -1.
         -5    1    4    4    0  503  0.16391709950E+02  0.15902634960E+02  0.27893415664E+02  0.36355392876E+02  0.47000000000E+01 0.  1.
<mgrwt>
<rscale>  0 0.16100897E+03</rscale>
<asrwt>0</asrwt>
<pdfrwt beam="1">  1        2 0.16568829E+00 0.16113951E+03</pdfrwt>
<pdfrwt beam="2">  1       -2 0.46314081E-02 0.16113951E+03</pdfrwt>
<totfact> 0.51022935E+03</totfact>
</mgrwt>
</event>
<event>
 8    1  0.7366917E-004  0.1426339E+03  0.7546771E-02  0.1210103E+00
          2   -1    0    0  501    0  0.00000000000E+00  0.00000000000E+00  0.54867803431E+03  0.54867803431E+03  0.00000000000E+00 0. -1.
         -2   -1    0    0    0  501 -0.00000000000E+00 -0.00000000000E+00 -0.61306888886E+02  0.61306888886E+02  0.00000000000E+00 0.  1.
         23    2    1    2    0    0 -0.12269154671E+02  0.10771805209E+03  0.43584151517E+03  0.45832826067E+03  0.91396155736E+02 0.  0.
         23    2    1    2    0    0  0.12269154671E+02 -0.10771805209E+03  0.51529630256E+02  0.15165666253E+03  0.92686188791E+02 0.  0.
          5    1    4    4  502    0 -0.74526277605E+01 -0.57238023353E+02  0.72993135813E+02  0.93176289118E+02  0.47000000000E+01 0. -1.
         -5    1    4    4    0  502  0.19721782432E+02 -0.50480028732E+02 -0.21463505557E+02  0.58480373408E+02  0.47000000000E+01 0.  1.
          5    1    3    3  503    0 -0.45140916327E+02  0.36967904296E+02  0.12848554794E+03  0.14119119769E+03  0.47000000000E+01 0. -1.
         -5    1    3    3    0  503  0.32871761656E+02  0.70750147789E+02  0.30735596723E+03  0.31713706299E+03  0.47000000000E+01 0.  1.
<mgrwt>
<rscale>  0 0.14242475E+03</rscale>
<asrwt>0</asrwt>
<pdfrwt beam="1">  1        2 0.84412002E-01 0.14263394E+03</pdfrwt>
<pdfrwt beam="2">  1       -2 0.94318294E-02 0.14263394E+03</pdfrwt>
<totfact> 0.39644953E+03</totfact>
</mgrwt>
</event>
<event>
 8    1  0.7366917E-004  0.1107455E+03  0.7546771E-02  0.1262010E+00
          1   -1    0    0  501    0  0.00000000000E+00  0.00000000000E+00  0.67935712541E+02  0.67935712541E+02  0.00000000000E+00 0. -1.
         -1   -1    0    0    0  501 -0.00000000000E+00 -0.00000000000E+00 -0.19911236791E+03  0.19911236791E+03  0.00000000000E+00 0.  1.
         23    2    1    2    0    0  0.94467720381E+01  0.60994321395E+02 -0.11422716405E+03  0.15501300318E+03  0.84685520628E+02 0.  0.
         23    2    1    2    0    0 -0.94467720381E+01 -0.60994321395E+02 -0.16949491319E+02  0.11203507727E+03  0.91951207380E+02 0.  0.
          5    1    3    3  502    0  0.22523963171E+02  0.56584655265E+01  0.37260373207E+01  0.23985839638E+02  0.47000000000E+01 0. -1.
         -5    1    4    4    0  503  0.29110260779E+02  0.64715176923E+01 -0.16030594220E+02  0.34181248878E+02  0.47000000000E+01 0.  1.
          5    1    4    4  503    0 -0.38557032817E+02 -0.67465839087E+02 -0.91889709869E+00  0.77853828392E+02  0.47000000000E+01 0. -1.
         -5    1    3    3    0  502 -0.13077191132E+02  0.55335855869E+02 -0.11795320137E+03  0.13102716354E+03  0.47000000000E+01 0.  1.
<mgrwt>
<rscale>  0 0.10922595E+03</rscale>
<asrwt>0</asrwt>
<pdfrwt beam="1">  1        1 0.10451648E-01 0.11074553E+03</pdfrwt>
<pdfrwt beam="2">  1       -1 0.30632672E-01 0.11074553E+03</pdfrwt>
<totfact> 0.55860933E+03</totfact>
</mgrwt>
</event>
<event>
 8    1  0.7366917E-004  0.2052906E+03  0.7546771E-02  0.1146607E+00
         -1   -1    0    0    0  501 -0.00000000000E+00  0.00000000000E+00  0.46895316701E+03  0.46895316701E+03  0.00000000000E+00 0.  1.
          1   -1    0    0  501    0  0.00000000000E+00 -0.00000000000E+00 -0.11102208767E+03  0.11102208767E+03  0.00000000000E+00 0. -1.
         23    2    1    2    0    0 -0.16978975533E+03  0.64138171629E+02  0.42633226409E+02  0.20373467899E+03  0.82145975878E+02 0.  0.
         23    2    1    2    0    0  0.16978975533E+03 -0.64138171629E+02  0.31529785294E+03  0.37624057570E+03  0.95926892270E+02 0.  0.
          5    1    3    3  502    0 -0.53993103217E+02  0.24892390641E+02 -0.24143580917E+02  0.64341967691E+02  0.47000000000E+01 0. -1.
         -5    1    3    3    0  502 -0.11579665211E+03  0.39245780988E+02  0.66776807325E+02  0.13939271129E+03  0.47000000000E+01 0.  1.
          5    1    4    4  503    0  0.30291453195E+02 -0.50694949417E+01  0.14489025869E+03  0.14818417250E+03  0.47000000000E+01 0. -1.
         -5    1    4    4    0  503  0.13949830213E+03 -0.59068676688E+02  0.17040759425E+03  0.22805640320E+03  0.47000000000E+01 0.  1.
<mgrwt>
<rscale>  0 0.20375687E+03</rscale>
<asrwt>0</asrwt>
<pdfrwt beam="1">  1        1 0.17080321E-01 0.20529061E+03</pdfrwt>
<pdfrwt beam="2">  1       -1 0.72146640E-01 0.20529061E+03</pdfrwt>
<totfact> 0.63347739E+02</totfact>
</mgrwt>
</event>
<event>
 8    1  0.7366917E-004  0.1333634E+03  0.7546771E-02  0.1224578E+00
         -2   -1    0    0    0  501 -0.00000000000E+00  0.00000000000E+00  0.90386531421E+02  0.90386531421E+02  0.00000000000E+00 0.  1.
          2   -1    0    0  501    0  0.00000000000E+00 -0.00000000000E+00 -0.79494836732E+03  0.79494836732E+03  0.00000000000E+00 0. -1.
         23    2    1    2    0    0  0.67125850240E+02  0.71969732853E+02  0.32502991296E+02  0.13726701492E+03  0.90001481785E+02 0.  0.
         23    2    1    2    0    0 -0.67125850240E+02 -0.71969732853E+02 -0.73706482719E+03  0.74806788382E+03  0.81581107518E+02 0.  0.
          5    1    3    3  502    0 -0.21802528993E+02  0.12035381487E+02  0.11757385632E+02  0.27937909638E+02  0.47000000000E+01 0. -1.
         -5    1    4    4    0  503 -0.31041343172E+01 -0.45624231214E+02 -0.14918962195E+03  0.15611162487E+03  0.47000000000E+01 0.  1.
          5    1    4    4  503    0 -0.64021715923E+02 -0.26345501639E+02 -0.58787520525E+03  0.59195625895E+03  0.47000000000E+01 0. -1.
         -5    1    3    3    0  502  0.88928379233E+02  0.59934351366E+02  0.20745605664E+02  0.10932910528E+03  0.47000000000E+01 0.  1.
<mgrwt>
<rscale>  0 0.13195846E+03</rscale>
<asrwt>0</asrwt>
<pdfrwt beam="1">  1        2 0.12229974E+00 0.13336337E+03</pdfrwt>
<pdfrwt beam="2">  1       -2 0.13905621E-01 0.13336337E+03</pdfrwt>
<totfact> 0.13820443E+03</totfact>
</mgrwt>
</event>
<event>
 8    1  0.7366917E-004  0.1002065E+03  0.7546771E-02  0.1280506E+00
         -1   -1    0    0    0  501 -0.00000000000E+00  0.00000000000E+00  0.28664873350E+02  0.28664873350E+02  0.00000000000E+00 0.  1.
          1   -1    0    0  501    0  0.00000000000E+00 -0.00000000000E+00 -0.36269803350E+03  0.36269803350E+03  0.00000000000E+00 0. -1.
         23    2    1    2    0    0 -0.38299441012E+02 -0.49300317948E+01 -0.12412175715E+03  0.15875993696E+03  0.91144690415E+02 0.  0.
         23    2    1    2    0    0  0.38299441012E+02  0.49300317948E+01 -0.20991140301E+03  0.23260296989E+03  0.92467248775E+02 0.  0.
          5    1    4    4  502    0  0.36074093069E+02 -0.27435638031E+02 -0.43505438037E+02  0.62998948909E+02  0.47000000000E+01 0. -1.
         -5    1    3    3    0  503 -0.61556826235E+02  0.10821866672E+01 -0.46291210091E+02  0.77171109334E+02  0.47000000000E+01 0.  1.
          5    1    3    3  503    0  0.23257385224E+02 -0.60122184620E+01 -0.77830547056E+02  0.81588827626E+02  0.47000000000E+01 0. -1.
         -5    1    4    4    0  502  0.22253479431E+01  0.32365669826E+02 -0.16640596497E+03  0.16960402098E+03  0.47000000000E+01 0.  1.
<mgrwt>
<rscale>  0 0.99900334E+02</rscale>
<asrwt>0</asrwt>
<pdfrwt beam="1">  1        1 0.55799699E-01 0.10020651E+03</pdfrwt>
<pdfrwt beam="2">  1       -1 0.44099804E-02 0.10020651E+03</pdfrwt>
<totfact> 0.13416476E+04</totfact>
</mgrwt>
</event>
<event>
 8    1  0.7366917E-004  0.1212978E+03  0.7546771E-02  0.1241597E+00
         -2   -1    0    0    0  501 -0.00000000000E+00  0.00000000000E+00  0.30594627694E+03  0.30594627694E+03  0.00000000000E+00 0.  1.
          2   -1    0    0  501    0  0.00000000000E+00 -0.00000000000E+00 -0.11232921585E+03  0.11232921585E+03  0.00000000000E+00 0. -1.
         23    2    1    2    0    0 -0.61846776925E+02  0.49488104544E+02  0.25596396759E+03  0.28325027237E+03  0.91864398893E+02 0.  0.
         23    2    1    2    0    0  0.61846776925E+02 -0.49488104544E+02 -0.62346906505E+02  0.13502522043E+03  0.89836390695E+02 0.  0.
          5    1    4    4  502    0  0.79031086267E+02 -0.14566315611E+02 -0.39811011094E+02  0.89805883723E+02  0.47000000000E+01 0. -1.
         -5    1    3    3    0  503 -0.28967884404E+02  0.65164715912E+02  0.22202151706E+03  0.23324069663E+03  0.47000000000E+01 0.  1.
          5    1    3    3  503    0 -0.32878892521E+02 -0.15676611367E+02  0.33942450528E+02  0.50009575735E+02  0.47000000000E+01 0. -1.
         -5    1    4    4    0  502 -0.17184309342E+02 -0.34921788933E+02 -0.22535895411E+02  0.45219336703E+02  0.47000000000E+01 0.  1.
<mgrwt>
<rscale>  0 0.12091387E+03</rscale>
<asrwt>0</asrwt>
<pdfrwt beam="1">  1        2 0.17281418E-01 0.12129783E+03</pdfrwt>
<pdfrwt beam="2">  1       -2 0.47068658E-01 0.12129783E+03</pdfrwt>
<totfact> 0.13871940E+03</totfact>
</mgrwt>
</event>
<event>
 8    1  0.7366917E-004  0.9534469E+02  0.7546771E-02  0.1291231E+00
          2   -1    0    0  501    0  0.00000000000E+00  0.00000000000E+00  0.52949224302E+03  0.52949224302E+03  0.00000000000E+00 0. -1.
         -2   -1    0    0    0  501 -0.00000000000E+00 -0.00000000000E+00 -0.17048318284E+02  0.17048318284E+02  0.00000000000E+00 0.  1.
         23    2    1    2    0    0  0.41918781481E+01  0.23609905761E+02  0.23317264645E+03  0.25191286888E+03  0.92280068049E+02 0.  0.
         23    2    1    2    0    0 -0.41918781481E+01 -0.23609905761E+02  0.27927127828E+03  0.29462769243E+03  0.90763598313E+02 0.  0.
          5    1    3    3  502    0  0.34992345007E+02 -0.18774367881E+02  0.71821172776E+02  0.82202870736E+02  0.47000000000E+01 0. -1.
         -5    1    4    4    0  503 -0.32392533885E+02 -0.16100074922E+02  0.42452988101E+02  0.55971732711E+02  0.47000000000E+01 0.  1.
          5    1    4    4  503    0  0.28200655737E+02 -0.75098308393E+01  0.23681829018E+03  0.23865595972E+03  0.47000000000E+01 0. -1.
         -5    1    3    3    0  502 -0.30800466859E+02  0.42384273642E+02  0.16135147368E+03  0.16970999814E+03  0.47000000000E+01 0.  1.
<mgrwt>
<rscale>  0 0.94975820E+02</rscale>
<asrwt>0</asrwt>
<pdfrwt beam="1">  1        2 0.81460333E-01 0.95344693E+02</pdfrwt>
<pdfrwt beam="2">  1       -2 0.26228186E-02 0.95344693E+02</pdfrwt>
<totfact> 0.27273386E+04</totfact>
</mgrwt>
</event>
<event>
 8    1  0.7366917E-004  0.1811580E+03  0.7546771E-02  0.1167789E+00
          3   -1    0    0  501    0  0.00000000000E+00  0.00000000000E+00  0.11947591376E+03  0.11947591376E+03  0.00000000000E+00 0. -1.
         -3   -1    0    0    0  501 -0.00000000000E+00 -0.00000000000E+00 -0.30145069045E+03  0.30145069045E+03  0.00000000000E+00 0.  1.
         23    2    1    2    0    0  0.39180388142E+02 -0.15091921415E+03 -0.19712904116E+02  0.17772477800E+03  0.82980636972E+02 0.  0.
         23    2    1    2    0    0 -0.39180388142E+02  0.15091921415E+03 -0.16226187257E+03  0.24320182621E+03  0.92230694284E+02 0.  0.
          5    1    4    4  502    0 -0.46284413283E+02  0.28268233805E+02 -0.73947079851E+02  0.91823747331E+02  0.47000000000E+01 0. -1.
         -5    1    4    4    0  502  0.71040251411E+01  0.12265098034E+03 -0.88314792723E+02  0.15137807888E+03  0.47000000000E+01 0.  1.
          5    1    3    3  503    0  0.14301982516E+02 -0.10258213305E+03  0.25602644903E+02  0.10679525341E+03  0.47000000000E+01 0. -1.
         -5    1    3    3    0  503  0.24878405626E+02 -0.48337081098E+02 -0.45315549019E+02  0.70929524590E+02  0.47000000000E+01 0.  1.
<mgrwt>
<rscale>  0 0.18001474E+03</rscale>
<asrwt>0</asrwt>
<pdfrwt beam="1">  1        3 0.18380910E-01 0.18115798E+03</pdfrwt>
<pdfrwt beam="2">  1       -3 0.46377029E-01 0.18115798E+03</pdfrwt>
<totfact> 0.29212323E+02</totfact>
</mgrwt>
</event>
<event>
 7    1  0.7366917E-004  0.1362184E+03  0.7546771E-02  0.1238148E+00
         -2   -1    0    0    0  501 -0.00000000000E+00  0.00000000000E+00  0.39326489670E+02  0.39326489670E+02  0.00000000000E+00 0.  1.
          2   -1    0    0  501    0  0.00000000000E+00 -0.00000000000E+00 -0.37676225514E+03  0.37676225514E+03  0.00000000000E+00 0. -1.
         23    2    1    2    0    0 -0.19530510155E+02  0.35157317305E+01 -0.65297506504E+02  0.11176212598E+03  0.88505408035E+02 0.  0.
          5    1    3    3  502    0 -0.17795738389E+02  0.26292427563E+02 -0.78609612111E+02  0.84909017002E+02  0.47000000000E+01 0. -1.
         -5    1    1    2    0  503  0.67384005898E+02 -0.32505796684E+01 -0.73188276558E+02  0.99648303269E+02  0.47000000000E+01 0.  1.
          5    1    1    2  503    0 -0.47853495742E+02 -0.26515206201E+00 -0.19894998241E+03  0.20467831556E+03  0.47000000000E+01 0. -1.
         -5    1    3    3    0  502 -0.17347717661E+01 -0.22776695833E+02  0.13312105607E+02  0.26853108979E+02  0.47000000000E+01 0.  1.
<mgrwt>
<rscale>  0 0.12305015E+03</rscale>
<asrwt>0</asrwt>
<pdfrwt beam="1">  1        2 0.57963423E-01 0.13621842E+03</pdfrwt>
<pdfrwt beam="2">  1       -2 0.60502292E-02 0.13621842E+03</pdfrwt>
<totfact> 0.11784905E+04</totfact>
</mgrwt>
</event>
<event>
 8    1  0.7366917E-004  0.1306665E+03  0.7546771E-02  0.1226664E+00
          2   -1    0    0  501    0  0.00000000000E+00  0.00000000000E+00  0.17206159811E+04  0.17206159811E+04  0.00000000000E+00 0. -1.
         -2   -1    0    0    0  501 -0.00000000000E+00 -0.00000000000E+00 -0.98837481745E+01  0.98837481745E+01  0.00000000000E+00 0.  1.
         23    2    1    2    0    0 -0.83960019111E+02 -0.38092407735E+02  0.85063900695E+03  0.86061632020E+03  0.92592732458E+02 0.  0.
         23    2    1    2    0    0  0.83960019111E+02  0.38092407735E+02  0.86009322598E+03  0.86988340908E+03  0.91850267762E+02 0.  0.
          5    1    3    3  502    0 -0.15483040788E+02  0.15807576893E+02  0.46027801458E+02  0.51285987817E+02  0.47000000000E+01 0.  1.
         -5    1    3    3    0  502 -0.68476978323E+02 -0.53899984628E+02  0.80461120549E+03  0.80933033238E+03  0.47000000000E+01 0. -1.
          5    1    4    4  503    0  0.85137859055E+02 -0.41768821677E+01  0.64476838773E+03  0.65039546831E+03  0.47000000000E+01 0. -1.
         -5    1    4    4    0  503 -0.11778399442E+01  0.42269289903E+02  0.21532483825E+03  0.21948794077E+03  0.47000000000E+01 0.  1.
<mgrwt>
<rscale>  0 0.13053502E+03</rscale>
<asrwt>0</asrwt>
<pdfrwt beam="1">  1        2 0.26470991E+00 0.13066649E+03</pdfrwt>
<pdfrwt beam="2">  1       -2 0.15205780E-02 0.13066649E+03</pdfrwt>
<totfact> 0.11743041E+04</totfact>
</mgrwt>
</event>
<event>
 7    1  0.7366917E-004  0.1510178E+03  0.7546771E-02  0.1219076E+00
          2   -1    0    0  501    0  0.00000000000E+00  0.00000000000E+00  0.13053379804E+04  0.13053379804E+04  0.00000000000E+00 0. -1.
         -2   -1    0    0    0  501 -0.00000000000E+00 -0.00000000000E+00 -0.13673293515E+02  0.13673293515E+02  0.00000000000E+00 0.  1.
         23    2    1    2    0    0 -0.36671952314E+02  0.82699036825E+01  0.75734008541E+03  0.76375534668E+03  0.91350978196E+02 0.  0.
          5    1    3    3  502    0 -0.42583604893E+02  0.43954597890E+02  0.42267885051E+03  0.42711224608E+03  0.47000000000E+01 0. -1.
         -5    1    1    2    0  503 -0.18286274053E+02 -0.46550414741E+02  0.70323163011E+02  0.86422023739E+02  0.47000000000E+01 0.  1.
          5    1    1    2  503    0  0.54958226367E+02  0.38280511059E+02  0.46400143846E+03  0.46883390349E+03  0.47000000000E+01 0. -1.
         -5    1    3    3    0  502  0.59116525793E+01 -0.35684694208E+02  0.33466123490E+03  0.33664310060E+03  0.47000000000E+01 0.  1.
<mgrwt>
<rscale>  0 0.13581332E+03</rscale>
<asrwt>0</asrwt>
<pdfrwt beam="1">  1        2 0.20082113E+00 0.15101776E+03</pdfrwt>
<pdfrwt beam="2">  1       -2 0.21035846E-02 0.15101776E+03</pdfrwt>
<totfact> 0.12173576E+04</totfact>
</mgrwt>
</event>
<event>
 8    1  0.7366917E-004  0.1070915E+03  0.7546771E-02  0.1267063E+00
         -3   -1    0    0    0  501 -0.00000000000E+00  0.00000000000E+00  0.40051091168E+03  0.40051091168E+03  0.00000000000E+00 0.  1.
          3   -1    0    0  501    0  0.00000000000E+00 -0.00000000000E+00 -0.29760367733E+02  0.29760367733E+02  0.00000000000E+00 0. -1.
         23    2    1    2    0    0 -0.25355491242E+02  0.46141819385E+02  0.13598618883E+03  0.17309196314E+03  0.93255647110E+02 0.  0.
         23    2    1    2    0    0  0.25355491242E+02 -0.46141819385E+02  0.23476435512E+03  0.25717931628E+03  0.90856644527E+02 0.  0.
          5    1    3    3  502    0  0.55187412641E+01 -0.20301546573E+02  0.38045194385E+01  0.21890035782E+02  0.47000000000E+01 0. -1.
         -5    1    3    3    0  502 -0.30874232506E+02  0.66443365958E+02  0.13218166939E+03  0.15120192736E+03  0.47000000000E+01 0.  1.
          5    1    4    4  503    0  0.20799475958E+02 -0.94771447868E+01  0.43037552356E+01  0.23728606840E+02  0.47000000000E+01 0. -1.
         -5    1    4    4    0  503  0.45560152837E+01 -0.36664674598E+02  0.23046059988E+03  0.23345070944E+03  0.47000000000E+01 0.  1.
<mgrwt>
<rscale>  0 0.10656703E+03</rscale>
<asrwt>0</asrwt>
<pdfrwt beam="1">  1        3 0.45785184E-02 0.10709148E+03</pdfrwt>
<pdfrwt beam="2">  1       -3 0.61617059E-01 0.10709148E+03</pdfrwt>
<totfact> 0.15057706E+03</totfact>
</mgrwt>
</event>
<event>
 8    1  0.7366917E-004  0.9703156E+02  0.7546771E-02  0.1287662E+00
         -2   -1    0    0    0  501 -0.00000000000E+00  0.00000000000E+00  0.66401813823E+03  0.66401813823E+03  0.00000000000E+00 0.  1.
          2   -1    0    0  501    0  0.00000000000E+00 -0.00000000000E+00 -0.17008271879E+02  0.17008271879E+02  0.00000000000E+00 0. -1.
         23    2    1    2    0    0 -0.24943019179E+02  0.19842971229E+02  0.18081908648E+03  0.20520883336E+03  0.91647288779E+02 0.  0.
         23    2    1    2    0    0  0.24943019179E+02 -0.19842971229E+02  0.46619077987E+03  0.47581757675E+03  0.89736421774E+02 0.  0.
          5    1    4    4  502    0 -0.30445037750E+02 -0.10101757876E+02  0.26106586366E+03  0.26307113297E+03  0.47000000000E+01 0. -1.
         -5    1    3    3    0  503 -0.20381289003E+02 -0.19655305106E+02  0.11006639718E+02  0.30740268023E+02  0.47000000000E+01 0. -1.
          5    1    3    3  503    0 -0.45617301762E+01  0.39498276335E+02  0.16981244676E+03  0.17446856533E+03  0.47000000000E+01 0. -1.
         -5    1    4    4    0  502  0.55388056929E+02 -0.97412133531E+01  0.20512491621E+03  0.21274644378E+03  0.47000000000E+01 0.  1.
<mgrwt>
<rscale>  0 0.96577692E+02</rscale>
<asrwt>0</asrwt>
<pdfrwt beam="1">  1        2 0.26166577E-02 0.97031558E+02</pdfrwt>
<pdfrwt beam="2">  1       -2 0.10215662E+00 0.97031558E+02</pdfrwt>
<totfact> 0.28566800E+03</totfact>
</mgrwt>
</event>
<event>
 8    1  0.7366917E-004  0.9325966E+02  0.7546771E-02  0.1295810E+00
          1   -1    0    0  501    0  0.00000000000E+00  0.00000000000E+00  0.72570530910E+03  0.72570530910E+03  0.00000000000E+00 0. -1.
         -1   -1    0    0    0  501 -0.00000000000E+00 -0.00000000000E+00 -0.18804976024E+02  0.18804976024E+02  0.00000000000E+00 0.  1.
         23    2    1    2    0    0  0.88748422882E+01  0.18034472062E+02  0.57865614003E+03  0.58594188509E+03  0.89894156058E+02 0.  0.
         23    2    1    2    0    0 -0.88748422882E+01 -0.18034472062E+02  0.12824419305E+03  0.15856840004E+03  0.91067883652E+02 0.  0.
          5    1    4    4  502    0 -0.38589086520E+02 -0.37756954930E+02  0.96099955328E+02  0.11032677217E+03  0.47000000000E+01 0. -1.
         -5    1    4    4    0  502  0.29714244232E+02  0.19722482868E+02  0.32144237718E+02  0.48241627867E+02  0.47000000000E+01 0.  1.
          5    1    3    3  503    0  0.10666516394E+02 -0.32966589410E+02  0.13993053730E+03  0.14423319957E+03  0.47000000000E+01 0. -1.
         -5    1    3    3    0  503 -0.17916741059E+01  0.51001061472E+02  0.43872560273E+03  0.44170868551E+03  0.47000000000E+01 0.  1.
<mgrwt>
<rscale>  0 0.92971883E+02</rscale>
<asrwt>0</asrwt>
<pdfrwt beam="1">  1        1 0.11164695E+00 0.93259661E+02</pdfrwt>
<pdfrwt beam="2">  1       -1 0.28930738E-02 0.93259661E+02</pdfrwt>
<totfact> 0.99310610E+03</totfact>
</mgrwt>
</event>
<event>
 8    1  0.7366917E-004  0.1017360E+03  0.7546771E-02  0.1278047E+00
          4   -1    0    0  501    0  0.00000000000E+00  0.00000000000E+00  0.63049290476E+02  0.63049290476E+02  0.00000000000E+00 0. -1.
         -4   -1    0    0    0  501 -0.00000000000E+00 -0.00000000000E+00 -0.15999984333E+03  0.15999984333E+03  0.00000000000E+00 0.  1.
         23    2    1    2    0    0  0.38335991574E+02 -0.13596468944E+02 -0.47777459526E+02  0.11239615638E+03  0.93250727137E+02 0.  0.
         23    2    1    2    0    0 -0.38335991574E+02  0.13596468944E+02 -0.49173093326E+02  0.11065297743E+03  0.90396770344E+02 0.  0.
          5    1    3    3  502    0 -0.10870621056E+02 -0.22647925787E+02  0.16788780765E+02  0.30578621685E+02  0.47000000000E+01 0. -1.
         -5    1    3    3    0  502  0.49206612630E+02  0.90514568430E+01 -0.64566240291E+02  0.81817534691E+02  0.47000000000E+01 0.  1.
          5    1    4    4  503    0 -0.20116383327E+02  0.46680805529E+02 -0.51510894684E+02  0.72520540222E+02  0.47000000000E+01 0.  1.
         -5    1    4    4    0  503 -0.18219608247E+02 -0.33084336586E+02  0.23378013581E+01  0.38132437205E+02  0.47000000000E+01 0. -1.
<mgrwt>
<rscale>  0 0.10107727E+03</rscale>
<asrwt>0</asrwt>
<pdfrwt beam="1">  1        4 0.96998911E-02 0.10173598E+03</pdfrwt>
<pdfrwt beam="2">  1       -4 0.24615360E-01 0.10173598E+03</pdfrwt>
<totfact> 0.18905526E+03</totfact>
</mgrwt>
</event>
<event>
 8    1  0.7366917E-004  0.1228197E+03  0.7546771E-02  0.1241303E+00
         -3   -1    0    0    0  501 -0.00000000000E+00  0.00000000000E+00  0.37291401646E+02  0.37291401646E+02  0.00000000000E+00 0.  1.
          3   -1    0    0  501    0  0.00000000000E+00 -0.00000000000E+00 -0.80238647164E+03  0.80238647164E+03  0.00000000000E+00 0. -1.
         23    2    1    2    0    0 -0.80616628456E+02  0.64691200266E+01 -0.68101784851E+03  0.69083684544E+03  0.83242697815E+02 0.  0.
         23    2    1    2    0    0  0.80616628456E+02 -0.64691200266E+01 -0.84077221492E+02  0.14884102785E+03  0.92432581374E+02 0.  0.
          5    1    4    4  502    0  0.60684926523E+01  0.26004075309E+02  0.56115038927E+01  0.27687858561E+02  0.47000000000E+01 0. -1.
         -5    1    3    3    0  503 -0.93382130966E+01 -0.32226613136E+02 -0.24275334508E+03  0.24510616754E+03  0.47000000000E+01 0.  1.
          5    1    3    3  503    0 -0.71278415359E+02  0.38695733162E+02 -0.43826450343E+03  0.44573067791E+03  0.47000000000E+01 0. -1.
         -5    1    4    4    0  502  0.74548135803E+02 -0.32473195336E+02 -0.89688725384E+02  0.12115316929E+03  0.47000000000E+01 0.  1.
<mgrwt>
<rscale>  0 0.12109407E+03</rscale>
<asrwt>0</asrwt>
<pdfrwt beam="1">  1        3 0.12344407E+00 0.12281967E+03</pdfrwt>
<pdfrwt beam="2">  1       -3 0.57371389E-02 0.12281967E+03</pdfrwt>
<totfact> 0.23379467E+02</totfact>
</mgrwt>
</event>
<event>
 8    1  0.7366917E-004  0.1087229E+03  0.7546771E-02  0.1263344E+00
         -2   -1    0    0    0  501 -0.00000000000E+00  0.00000000000E+00  0.90445450312E+02  0.90445450312E+02  0.00000000000E+00 0.  1.
          2   -1    0    0  501    0  0.00000000000E+00 -0.00000000000E+00 -0.24253019386E+03  0.24253019386E+03  0.00000000000E+00 0. -1.
         23    2    1    2    0    0  0.58216884015E+02  0.43784398517E+01 -0.18975369983E+03  0.21869415699E+03  0.91718544376E+02 0.  0.
         23    2    1    2    0    0 -0.58216884015E+02 -0.43784398517E+01  0.37668956281E+02  0.11428148718E+03  0.90735504217E+02 0.  0.
          5    1    4    4  502    0 -0.24682298433E+02  0.34564445787E+02 -0.10156076226E+02  0.43922120313E+02  0.47000000000E+01 0. -1.
         -5    1    4    4    0  502 -0.33534585582E+02 -0.38942885639E+02  0.47825032507E+02  0.70359366870E+02  0.47000000000E+01 0.  1.
          5    1    3    3  503    0  0.31746529822E+02  0.21509745564E+02 -0.18177075257E+03  0.18583112710E+03  0.47000000000E+01 0. -1.
         -5    1    3    3    0  503  0.26470354193E+02 -0.17131305713E+02 -0.79829472601E+01  0.32863029889E+02  0.47000000000E+01 0.  1.
<mgrwt>
<rscale>  0 0.10851530E+03</rscale>
<asrwt>0</asrwt>
<pdfrwt beam="1">  1        2 0.37312337E-01 0.10872289E+03</pdfrwt>
<pdfrwt beam="2">  1       -2 0.13914685E-01 0.10872289E+03</pdfrwt>
<totfact> 0.50458358E+03</totfact>
</mgrwt>
</event>
<event>
 8    1  0.1564632E-003  0.1014941E+03  0.7546771E-02  0.1278789E+00
         -1   -1    0    0    0  501 -0.00000000000E+00  0.00000000000E+00  0.27210359913E+03  0.27210359913E+03  0.00000000000E+00 0.  1.
          1   -1    0    0  501    0  0.00000000000E+00 -0.00000000000E+00 -0.10364693265E+03  0.10364693265E+03  0.00000000000E+00 0. -1.
         23    2    1    2    0    0 -0.25111952379E+01 -0.42786533906E+02 -0.67187956431E+02  0.11917803447E+03  0.88612577130E+02 0.  0.
         23    2    1    2    0    0  0.25111952379E+01  0.42786533906E+02  0.23564462291E+03  0.25657249731E+03  0.92000350464E+02 0.  0.
          5    1    3    3  502    0 -0.35629134247E+01 -0.68342091059E+02 -0.62407549794E+02  0.92736875264E+02  0.47000000000E+01 0. -1.
         -5    1    3    3    0  502  0.10517181868E+01  0.25555557153E+02 -0.47804066366E+01  0.26441159206E+02  0.47000000000E+01 0.  1.
          5    1    4    4  503    0  0.54160228372E+01 -0.26164694175E+02  0.10838076356E+03  0.11172468140E+03  0.47000000000E+01 0. -1.
         -5    1    4    4    0  503 -0.29048275993E+01  0.68951228081E+02  0.12726385935E+03  0.14484781591E+03  0.47000000000E+01 0.  1.
<mgrwt>
<rscale>  0 0.10072020E+03</rscale>
<asrwt>0</asrwt>
<pdfrwt beam="1">  1        1 0.15945682E-01 0.10149413E+03</pdfrwt>
<pdfrwt beam="2">  1       -1 0.41862092E-01 0.10149413E+03</pdfrwt>
<totfact> 0.18824974E+03</totfact>
</mgrwt>
</event>
<event>
 8    1  0.7366917E-004  0.9942523E+02  0.7546771E-02  0.1283309E+00
         -2   -1    0    0    0  501 -0.00000000000E+00  0.00000000000E+00  0.21410223936E+02  0.21410223936E+02  0.00000000000E+00 0.  1.
          2   -1    0    0  501    0  0.00000000000E+00 -0.00000000000E+00 -0.47882465268E+03  0.47882465268E+03  0.00000000000E+00 0. -1.
         23    2    1    2    0    0 -0.32427207398E+02 -0.23584028484E+02 -0.15994413823E+03  0.18658865951E+03  0.87323939015E+02 0.  0.
         23    2    1    2    0    0  0.32427207398E+02  0.23584028484E+02 -0.29747029052E+03  0.31364621711E+03  0.90981567289E+02 0.  0.
          5    1    4    4  502    0  0.14565349665E+02 -0.25159690839E+02 -0.20819509323E+03  0.21026755884E+03  0.47000000000E+01 0. -1.
         -5    1    4    4    0  502  0.17861857733E+02  0.48743719324E+02 -0.89275197283E+02  0.10337865827E+03  0.47000000000E+01 0.  1.
          5    1    3    3  503    0 -0.43083463946E+01 -0.25325857944E+02 -0.15550604262E+03  0.15768379821E+03  0.47000000000E+01 0. -1.
         -5    1    3    3    0  503 -0.28118861003E+02  0.17418294592E+01 -0.44380956156E+01  0.28904861299E+02  0.47000000000E+01 0.  1.
<mgrwt>
<rscale>  0 0.98580604E+02</rscale>
<asrwt>0</asrwt>
<pdfrwt beam="1">  1        2 0.73665337E-01 0.99425227E+02</pdfrwt>
<pdfrwt beam="2">  1       -2 0.32938804E-02 0.99425227E+02</pdfrwt>
<totfact> 0.21925761E+04</totfact>
</mgrwt>
</event>
<event>
 8    1  0.7366917E-004  0.1106988E+03  0.7546771E-02  0.1268831E+00
          2   -1    0    0  501    0  0.00000000000E+00  0.00000000000E+00  0.78336856532E+03  0.78336856532E+03  0.00000000000E+00 0. -1.
         -2   -1    0    0    0  501 -0.00000000000E+00 -0.00000000000E+00 -0.13133784871E+02  0.13133784871E+02  0.00000000000E+00 0.  1.
         23    2    1    2    0    0 -0.12078528162E+02  0.93820383372E+01  0.44237249517E+03  0.45601276450E+03  0.10963714436E+03 0.  0.
         23    2    1    2    0    0  0.12078528162E+02 -0.93820383372E+01  0.32786228528E+03  0.34048958568E+03  0.90584581279E+02 0.  0.
          5    1    4    4  502    0 -0.32233816954E+02  0.20219412670E+02  0.14118461747E+03  0.14629774371E+03  0.47000000000E+01 0. -1.
         -5    1    4    4    0  502  0.44312345116E+02 -0.29601451007E+02  0.18667766780E+03  0.19419184197E+03  0.47000000000E+01 0.  1.
          5    1    3    3  503    0 -0.19108890433E+02  0.39067835153E+02  0.40582024746E+03  0.40817105321E+03  0.47000000000E+01 0. -1.
         -5    1    3    3    0  503  0.70303622715E+01 -0.29685796816E+02  0.36552247712E+02  0.47841711289E+02  0.47000000000E+01 0.  1.
<mgrwt>
<rscale>  0 0.10565658E+03</rscale>
<asrwt>0</asrwt>
<pdfrwt beam="1">  1        2 0.12051820E+00 0.11069877E+03</pdfrwt>
<pdfrwt beam="2">  1       -2 0.20205829E-02 0.11069877E+03</pdfrwt>
<totfact> 0.25737251E+04</totfact>
</mgrwt>
</event>
<event>
 8    1  0.7366917E-004  0.1016718E+03  0.7546771E-02  0.1277500E+00
         -1   -1    0    0    0  501 -0.00000000000E+00  0.00000000000E+00  0.16468940139E+02  0.16468940139E+02  0.00000000000E+00 0.  1.
          1   -1    0    0  501    0  0.00000000000E+00 -0.00000000000E+00 -0.70330397331E+03  0.70330397331E+03  0.00000000000E+00 0. -1.
         23    2    1    2    0    0  0.22189779695E+01  0.13911378433E+02 -0.22122158440E+03  0.24346691102E+03  0.10069109715E+03 0.  0.
         23    2    1    2    0    0 -0.22189779695E+01 -0.13911378433E+02 -0.46561344877E+03  0.47630600242E+03  0.99363343130E+02 0.  0.
          5    1    3    3  502    0 -0.34225388575E+02  0.16091899924E+02 -0.29366804798E+02  0.48112635454E+02  0.47000000000E+01 0.  1.
         -5    1    4    4    0  503 -0.39046342123E+02  0.23702117139E+02 -0.25908756631E+03  0.26312518733E+03  0.47000000000E+01 0.  1.
          5    1    4    4  503    0  0.36827364154E+02 -0.37613495572E+02 -0.20652588246E+03  0.21318081510E+03  0.47000000000E+01 0. -1.
         -5    1    3    3    0  502  0.36444366544E+02 -0.21805214909E+01 -0.19185477960E+03  0.19535427557E+03  0.47000000000E+01 0. -1.
<mgrwt>
<rscale>  0 0.10134146E+03</rscale>
<asrwt>0</asrwt>
<pdfrwt beam="1">  1        1 0.10820060E+00 0.10167176E+03</pdfrwt>
<pdfrwt beam="2">  1       -1 0.25336834E-02 0.10167176E+03</pdfrwt>
<totfact> 0.12650886E+04</totfact>
</mgrwt>
</event>
<event>
 8    1  0.7366917E-004  0.9664457E+02  0.7546771E-02  0.1288936E+00
          1   -1    0    0  501    0  0.00000000000E+00  0.00000000000E+00  0.60873198810E+03  0.60873198810E+03  0.00000000000E+00 0. -1.
         -1   -1    0    0    0  501 -0.00000000000E+00 -0.00000000000E+00 -0.15277761463E+02  0.15277761463E+02  0.00000000000E+00 0.  1.
         23    2    1    2    0    0 -0.21394229738E+02 -0.22022320951E+02  0.33909819873E+03  0.35191204311E+03  0.88948310914E+02 0.  0.
         23    2    1    2    0    0  0.21394229738E+02  0.22022320951E+02  0.25435602790E+03  0.27209770645E+03  0.91637750083E+02 0.  0.
          5    1    4    4  502    0  0.30144553797E+02  0.52105409433E+02  0.20268892427E+03  0.21149127131E+03  0.47000000000E+01 0. -1.
         -5    1    4    4    0  502 -0.87503240584E+01 -0.30083088482E+02  0.51667103632E+02  0.60606435149E+02  0.47000000000E+01 0.  1.
          5    1    3    3  503    0  0.10107261515E+02  0.24943676687E+02  0.47096327432E+02  0.54447201944E+02  0.47000000000E+01 0. -1.
         -5    1    3    3    0  503 -0.31501491253E+02 -0.46965997638E+02  0.29200187130E+03  0.29746484116E+03  0.47000000000E+01 0.  1.
<mgrwt>
<rscale>  0 0.96001625E+02</rscale>
<asrwt>0</asrwt>
<pdfrwt beam="1">  1        1 0.93651056E-01 0.96644570E+02</pdfrwt>
<pdfrwt beam="2">  1       -1 0.23504253E-02 0.96644570E+02</pdfrwt>
<totfact> 0.17126613E+04</totfact>
</mgrwt>
</event>
<event>
 7    1  0.7366917E-004  0.1774270E+03  0.7546771E-02  0.1200731E+00
          1   -1    0    0  501    0  0.00000000000E+00  0.00000000000E+00  0.40548162564E+03  0.40548162564E+03  0.00000000000E+00 0. -1.
         -1   -1    0    0    0  501 -0.00000000000E+00 -0.00000000000E+00 -0.58434339525E+02  0.58434339525E+02  0.00000000000E+00 0.  1.
         23    2    1    2    0    0  0.40655073924E+02 -0.10556561426E+01  0.24078691884E+03  0.25710301430E+03  0.80434260322E+02 0.  0.
          5    1    1    2  502    0  0.54665156410E+02  0.67436197136E+01  0.95842152815E+02  0.11064160153E+03  0.47000000000E+01 0. -1.
         -5    1    3    3    0  503  0.12481197987E+02  0.38187440960E+02  0.89389349922E+02  0.98115273173E+02  0.47000000000E+01 0.  1.
          5    1    3    3  503    0  0.28173875938E+02 -0.39243097103E+02  0.15139756891E+03  0.15898774113E+03  0.47000000000E+01 0. -1.
         -5    1    1    2    0  502 -0.95320230334E+02 -0.56879635710E+01  0.10418214460E+02  0.96171349336E+02  0.47000000000E+01 0.  1.
<mgrwt>
<rscale>  0 0.14979021E+03</rscale>
<asrwt>0</asrwt>
<pdfrwt beam="1">  1        1 0.62381787E-01 0.17742697E+03</pdfrwt>
<pdfrwt beam="2">  1       -1 0.89898987E-02 0.17742697E+03</pdfrwt>
<totfact> 0.41852272E+03</totfact>
</mgrwt>
</event>
<event>
 8    1  0.7366917E-004  0.3344950E+03  0.7546771E-02  0.1069434E+00
          1   -1    0    0  501    0  0.00000000000E+00  0.00000000000E+00  0.17953758267E+04  0.17953758267E+04  0.00000000000E+00 0. -1.
         -1   -1    0    0    0  501 -0.00000000000E+00 -0.00000000000E+00 -0.63560481536E+02  0.63560481536E+02  0.00000000000E+00 0.  1.
         23    2    1    2    0    0 -0.13401380423E+03 -0.29055561048E+03  0.10209546047E+04  0.10743533782E+04  0.97491609268E+02 0.  0.
         23    2    1    2    0    0  0.13401380423E+03  0.29055561048E+03  0.71086074045E+03  0.78458293003E+03  0.88685507651E+02 0.  0.
          5    1    4    4  502    0  0.10494217900E+03  0.16635130847E+03  0.50955316975E+03  0.54621620405E+03  0.47000000000E+01 0. -1.
         -5    1    3    3    0  503 -0.28837723151E+02 -0.54285142876E+01  0.11472119482E+03  0.11850791359E+03  0.47000000000E+01 0.  1.
          5    1    3    3  503    0 -0.10517608108E+03 -0.28512709620E+03  0.90623340991E+03  0.95584546463E+03  0.47000000000E+01 0. -1.
         -5    1    4    4    0  502  0.29071625224E+02  0.12420430201E+03  0.20130757070E+03  0.23836672598E+03  0.47000000000E+01 0.  1.
<mgrwt>
<rscale>  0 0.33387832E+03</rscale>
<asrwt>0</asrwt>
<pdfrwt beam="1">  1        1 0.27621163E+00 0.33449496E+03</pdfrwt>
<pdfrwt beam="2">  1       -1 0.97785370E-02 0.33449496E+03</pdfrwt>
<totfact> 0.28673873E+02</totfact>
</mgrwt>
</event>
<event>
 8    1  0.7366917E-004  0.9997416E+02  0.7546771E-02  0.1280968E+00
          1   -1    0    0  501    0  0.00000000000E+00  0.00000000000E+00  0.32506412361E+02  0.32506412361E+02  0.00000000000E+00 0. -1.
         -1   -1    0    0    0  501 -0.00000000000E+00 -0.00000000000E+00 -0.55727327117E+03  0.55727327117E+03  0.00000000000E+00 0.  1.
         23    2    1    2    0    0 -0.10947673168E+02  0.40689307949E+02 -0.64381503092E+02  0.11891093680E+03  0.90660695020E+02 0.  0.
         23    2    1    2    0    0  0.10947673168E+02 -0.40689307949E+02 -0.46038535571E+03  0.47086874673E+03  0.89371301649E+02 0.  0.
          5    1    3    3  502    0  0.27783608706E+02  0.49661910936E+02 -0.23662772097E+02  0.61808179829E+02  0.47000000000E+01 0. -1.
         -5    1    3    3    0  502 -0.38731281874E+02 -0.89726029872E+01 -0.40718730995E+02  0.57102756972E+02  0.47000000000E+01 0.  1.
          5    1    4    4  503    0 -0.30399066757E+02 -0.78353196885E+01 -0.69520533484E+02  0.76424407555E+02  0.47000000000E+01 0. -1.
         -5    1    4    4    0  503  0.41346739924E+02 -0.32853988260E+02 -0.39086482223E+03  0.39444433917E+03  0.47000000000E+01 0.  1.
<mgrwt>
<rscale>  0 0.99680929E+02</rscale>
<asrwt>0</asrwt>
<pdfrwt beam="1">  1        1 0.50009866E-02 0.99974161E+02</pdfrwt>
<pdfrwt beam="2">  1       -1 0.85734348E-01 0.99974161E+02</pdfrwt>
<totfact> 0.22364866E+03</totfact>
</mgrwt>
</event>
<event>
 8    1  0.7366917E-004  0.1035762E+03  0.7546771E-02  0.1275959E+00
         -2   -1    0    0    0  501 -0.00000000000E+00  0.00000000000E+00  0.54089195706E+02  0.54089195706E+02  0.00000000000E+00 0.  1.
          2   -1    0    0  501    0  0.00000000000E+00 -0.00000000000E+00 -0.18977987026E+03  0.18977987026E+03  0.00000000000E+00 0. -1.
         23    2    1    2    0    0  0.43043483776E+02 -0.15844752903E+02 -0.79662249828E+02  0.12610991993E+03  0.86335625131E+02 0.  0.
         23    2    1    2    0    0 -0.43043483776E+02  0.15844752903E+02 -0.56028424726E+02  0.11775914604E+03  0.92866756205E+02 0.  0.
          5    1    4    4  502    0 -0.13566949580E+02 -0.37467037094E+02 -0.34690766118E+02  0.53041306953E+02  0.47000000000E+01 0. -1.
         -5    1    4    4    0  502 -0.29476534195E+02  0.53311789997E+02 -0.21337658609E+02  0.64717839084E+02  0.47000000000E+01 0.  1.
          5    1    3    3  503    0  0.12850252508E+02 -0.28824110583E+02 -0.86514772882E+02  0.92210922711E+02  0.47000000000E+01 0. -1.
         -5    1    3    3    0  503  0.30193231268E+02  0.12979357680E+02  0.68525230543E+01  0.33898997218E+02  0.47000000000E+01 0.  1.
<mgrwt>
<rscale>  0 0.10209133E+03</rscale>
<asrwt>0</asrwt>
<pdfrwt beam="1">  1        2 0.29196903E-01 0.10357621E+03</pdfrwt>
<pdfrwt beam="2">  1       -2 0.83214149E-02 0.10357621E+03</pdfrwt>
<totfact> 0.14655186E+04</totfact>
</mgrwt>
</event>
<event>
 8    1  0.7366917E-004  0.9915090E+02  0.7546771E-02  0.1283182E+00
          1   -1    0    0  501    0  0.00000000000E+00  0.00000000000E+00  0.14366439064E+03  0.14366439064E+03  0.00000000000E+00 0. -1.
         -1   -1    0    0    0  501 -0.00000000000E+00 -0.00000000000E+00 -0.88968106846E+02  0.88968106846E+02  0.00000000000E+00 0.  1.
         23    2    1    2    0    0  0.29435997335E+02 -0.25782631187E+02 -0.30186648890E+02  0.10364426950E+03  0.91102573062E+02 0.  0.
         23    2    1    2    0    0 -0.29435997335E+02  0.25782631187E+02  0.84882932679E+02  0.12898822798E+03  0.88891105787E+02 0.  0.
          5    1    3    3  502    0  0.55056644375E+01 -0.49863918194E+02  0.94281760969E+01  0.51261127408E+02  0.47000000000E+01 0. -1.
         -5    1    3    3    0  502  0.23930332897E+02  0.24081287008E+02 -0.39614824987E+02  0.52383142090E+02  0.47000000000E+01 0.  1.
          5    1    4    4  503    0 -0.55170291407E+02  0.43512847746E+01  0.26547784117E+02  0.61559479974E+02  0.47000000000E+01 0. -1.
         -5    1    4    4    0  503  0.25734294072E+02  0.21431346412E+02  0.58335148562E+02  0.67428748010E+02  0.47000000000E+01 0.  1.
<mgrwt>
<rscale>  0 0.98639954E+02</rscale>
<asrwt>0</asrwt>
<pdfrwt beam="1">  1        1 0.22102214E-01 0.99150899E+02</pdfrwt>
<pdfrwt beam="2">  1       -1 0.13687401E-01 0.99150899E+02</pdfrwt>
<totfact> 0.76988821E+03</totfact>
</mgrwt>
</event>
<event>
 8    1  0.7366917E-004  0.9697773E+02  0.7546771E-02  0.1288869E+00
         -1   -1    0    0    0  501 -0.00000000000E+00  0.00000000000E+00  0.11729184898E+02  0.11729184898E+02  0.00000000000E+00 0.  1.
          1   -1    0    0  501    0  0.00000000000E+00 -0.00000000000E+00 -0.84507010984E+03  0.84507010984E+03  0.00000000000E+00 0. -1.
         23    2    1    2    0    0 -0.19348538046E+02  0.17517244396E+02 -0.53578108184E+03  0.54383517450E+03  0.89521559357E+02 0.  0.
         23    2    1    2    0    0  0.19348538046E+02 -0.17517244396E+02 -0.29755984310E+03  0.31296412024E+03  0.93399467629E+02 0.  0.
          5    1    3    3  502    0 -0.54668819912E+02  0.14991563181E+02 -0.29713958177E+03  0.30253503580E+03  0.47000000000E+01 0. -1.
         -5    1    4    4    0  503 -0.94288312450E+01  0.28894992238E+02 -0.44875822208E+02  0.54403610670E+02  0.47000000000E+01 0.  1.
          5    1    4    4  503    0  0.28777369291E+02 -0.46412236634E+02 -0.25268402089E+03  0.25856050957E+03  0.47000000000E+01 0. -1.
         -5    1    3    3    0  502  0.35320281866E+02  0.25256812145E+01 -0.23864150008E+03  0.24130013870E+03  0.47000000000E+01 0.  1.
<mgrwt>
<rscale>  0 0.96031734E+02</rscale>
<asrwt>0</asrwt>
<pdfrwt beam="1">  1        1 0.13001077E+00 0.96977731E+02</pdfrwt>
<pdfrwt beam="2">  1       -1 0.18044902E-02 0.96977731E+02</pdfrwt>
<totfact> 0.15655827E+04</totfact>
</mgrwt>
</event>
<event>
 8    1  0.7366917E-004  0.2560740E+03  0.7546771E-02  0.1109949E+00
          2   -1    0    0  501    0  0.00000000000E+00  0.00000000000E+00  0.45297241352E+03  0.45297241352E+03  0.00000000000E+00 0. -1.
         -2   -1    0    0    0  501 -0.00000000000E+00 -0.00000000000E+00 -0.22189238368E+03  0.22189238368E+03  0.00000000000E+00 0.  1.
         23    2    1    2    0    0 -0.18789106574E+03  0.14379526554E+03  0.31606713559E+03  0.40505618190E+03  0.90509365917E+02 0.  0.
         23    2    1    2    0    0  0.18789106574E+03 -0.14379526554E+03 -0.84987105751E+02  0.26980861529E+03  0.97947688928E+02 0.  0.
          5    1    4    4  502    0  0.77306431623E+02 -0.56285590971E+02 -0.86015679485E+02  0.12870563017E+03  0.47000000000E+01 0. -1.
         -5    1    3    3    0  503 -0.22933950519E+02  0.58311390181E+02  0.11641267163E+03  0.13228826263E+03  0.47000000000E+01 0.  1.
          5    1    3    3  503    0 -0.16495711522E+03  0.85483875357E+02  0.19965446396E+03  0.27276791927E+03  0.47000000000E+01 0. -1.
         -5    1    4    4    0  502  0.11058463411E+03 -0.87509674567E+02  0.10285737342E+01  0.14110298512E+03  0.47000000000E+01 0.  1.
<mgrwt>
<rscale>  0 0.25538321E+03</rscale>
<asrwt>0</asrwt>
<pdfrwt beam="1">  1        2 0.69688064E-01 0.25607398E+03</pdfrwt>
<pdfrwt beam="2">  1       -2 0.34137290E-01 0.25607398E+03</pdfrwt>
<totfact> 0.56264889E+02</totfact>
</mgrwt>
</event>
<event>
 8    1  0.7366917E-004  0.1136984E+03  0.7546771E-02  0.1257553E+00
         -2   -1    0    0    0  501 -0.00000000000E+00  0.00000000000E+00  0.32296832178E+02  0.32296832178E+02  0.00000000000E+00 0.  1.
          2   -1    0    0  501    0  0.00000000000E+00 -0.00000000000E+00 -0.39753409107E+03  0.39753409107E+03  0.00000000000E+00 0. -1.
         23    2    1    2    0    0  0.43068089618E+02  0.31804294249E+02 -0.12261427944E+03  0.16188830784E+03  0.91143783206E+02 0.  0.
         23    2    1    2    0    0 -0.43068089618E+02 -0.31804294249E+02 -0.24262297946E+03  0.26794261541E+03  0.10030434446E+03 0.  0.
          5    1    3    3  502    0  0.30758756461E+02 -0.22785067451E+02 -0.87589671457E+02  0.95704236812E+02  0.47000000000E+01 0. -1.
         -5    1    4    4    0  503 -0.50368100315E+02  0.89494738776E+01 -0.53061892017E+02  0.73855893444E+02  0.47000000000E+01 0.  1.
          5    1    4    4  503    0  0.73000106965E+01 -0.40753768127E+02 -0.18956108744E+03  0.19408672197E+03  0.47000000000E+01 0. -1.
         -5    1    3    3    0  502  0.12309333157E+02  0.54589361701E+02 -0.35024607981E+02  0.66184071028E+02  0.47000000000E+01 0.  1.
<mgrwt>
<rscale>  0 0.11164514E+03</rscale>
<asrwt>0</asrwt>
<pdfrwt beam="1">  1        2 0.61159090E-01 0.11369844E+03</pdfrwt>
<pdfrwt beam="2">  1       -2 0.49687435E-02 0.11369844E+03</pdfrwt>
<totfact> 0.14753759E+04</totfact>
</mgrwt>
</event>
<event>
 8    1  0.7366917E-004  0.1082654E+03  0.7546771E-02  0.1264914E+00
          1   -1    0    0  501    0  0.00000000000E+00  0.00000000000E+00  0.77240977126E+02  0.77240977126E+02  0.00000000000E+00 0. -1.
         -1   -1    0    0    0  501 -0.00000000000E+00 -0.00000000000E+00 -0.17860983296E+03  0.17860983296E+03  0.00000000000E+00 0.  1.
         23    2    1    2    0    0 -0.53967891022E+02  0.17773055872E+02  0.22444126194E+01  0.10599383470E+03  0.89449655277E+02 0.  0.
         23    2    1    2    0    0  0.53967891022E+02 -0.17773055872E+02 -0.10361326845E+03  0.14985697539E+03  0.92157413686E+02 0.  0.
          5    1    4    4  502    0  0.19478634989E+02  0.99313592042E+01  0.12424611107E+02  0.25583394572E+02  0.47000000000E+01 0. -1.
         -5    1    4    4    0  502  0.34489256033E+02 -0.27704415076E+02 -0.11603787956E+03  0.12427358082E+03  0.47000000000E+01 0.  1.
          5    1    3    3  503    0 -0.57906506666E+02 -0.22669331081E+02  0.12989411739E+02  0.63701467042E+02  0.47000000000E+01 0. -1.
         -5    1    3    3    0  503  0.39386156443E+01  0.40442386953E+02 -0.10744999120E+02  0.42292367654E+02  0.47000000000E+01 0.  1.
<mgrwt>
<rscale>  0 0.10768697E+03</rscale>
<asrwt>0</asrwt>
<pdfrwt beam="1">  1        1 0.11883227E-01 0.10826543E+03</pdfrwt>
<pdfrwt beam="2">  1       -1 0.27478436E-01 0.10826543E+03</pdfrwt>
<totfact> 0.56477643E+03</totfact>
</mgrwt>
</event>
<event>
 8    1  0.7366917E-004  0.1616354E+03  0.7546771E-02  0.1187022E+00
         -2   -1    0    0    0  501 -0.00000000000E+00  0.00000000000E+00  0.86363300901E+02  0.86363300901E+02  0.00000000000E+00 0.  1.
          2   -1    0    0  501    0  0.00000000000E+00 -0.00000000000E+00 -0.39946754972E+03  0.39946754972E+03  0.00000000000E+00 0. -1.
         23    2    1    2    0    0  0.95455858404E+02 -0.91522154265E+02 -0.27709378418E+03  0.32079115053E+03  0.92940149584E+02 0.  0.
         23    2    1    2    0    0 -0.95455858404E+02  0.91522154265E+02 -0.36010464640E+02  0.16503970009E+03  0.91941412958E+02 0.  0.
          5    1    4    4  502    0 -0.30058288433E+02 -0.11307445412E+02  0.11099834124E+02  0.34302410161E+02  0.47000000000E+01 0. -1.
         -5    1    3    3    0  503  0.43661274991E+02 -0.56908447810E+00 -0.32293402750E+02  0.54512243140E+02  0.47000000000E+01 0.  1.
          5    1    3    3  503    0  0.51794583413E+02 -0.90953069787E+02 -0.24480038143E+03  0.26627890739E+03  0.47000000000E+01 0. -1.
         -5    1    4    4    0  502 -0.65397569971E+02  0.10282959968E+03 -0.47110298764E+02  0.13073728993E+03  0.47000000000E+01 0.  1.
<mgrwt>
<rscale>  0 0.16149214E+03</rscale>
<asrwt>0</asrwt>
<pdfrwt beam="1">  1        2 0.61456546E-01 0.16163538E+03</pdfrwt>
<pdfrwt beam="2">  1       -2 0.13286662E-01 0.16163538E+03</pdfrwt>
<totfact> 0.32688010E+03</totfact>
</mgrwt>
</event>
<event>
 8    1  0.7366917E-004  0.1064986E+03  0.7546771E-02  0.1274955E+00
         -3   -1    0    0    0  501 -0.00000000000E+00  0.00000000000E+00  0.11862920008E+03  0.11862920008E+03  0.00000000000E+00 0.  1.
          3   -1    0    0  501    0  0.00000000000E+00 -0.00000000000E+00 -0.83039732378E+02  0.83039732378E+02  0.00000000000E+00 0. -1.
         23    2    1    2    0    0 -0.16972839477E+02 -0.55192177442E+01  0.13383068032E+02  0.10733619695E+03  0.10499244554E+03 0.  0.
         23    2    1    2    0    0  0.16972839477E+02  0.55192177442E+01  0.22206399669E+02  0.94332735507E+02  0.89927758548E+02 0.  0.
          5    1    4    4  502    0 -0.35025578036E+02 -0.24603965313E+01 -0.34905437906E+01  0.35596608881E+02  0.47000000000E+01 0. -1.
         -5    1    3    3    0  503  0.24239174246E+02 -0.39440780578E+02  0.24535921827E+02  0.52604317319E+02  0.47000000000E+01 0.  1.
          5    1    3    3  503    0 -0.41212013723E+02  0.33921562834E+02 -0.11152853795E+02  0.54731879631E+02  0.47000000000E+01 0. -1.
         -5    1    4    4    0  502  0.51998417513E+02  0.79796142755E+01  0.25696943460E+02  0.58736126626E+02  0.47000000000E+01 0.  1.
<mgrwt>
<rscale>  0 0.10258377E+03</rscale>
<asrwt>0</asrwt>
<pdfrwt beam="1">  1        3 0.12775343E-01 0.10649860E+03</pdfrwt>
<pdfrwt beam="2">  1       -3 0.18250646E-01 0.10649860E+03</pdfrwt>
<totfact> 0.28127465E+03</totfact>
</mgrwt>
</event>
<event>
 8    1  0.7366917E-004  0.9406189E+02  0.7546771E-02  0.1293603E+00
          3   -1    0    0  501    0  0.00000000000E+00  0.00000000000E+00  0.24210129587E+02  0.24210129587E+02  0.00000000000E+00 0. -1.
         -3   -1    0    0    0  501 -0.00000000000E+00 -0.00000000000E+00 -0.36909964591E+03  0.36909964591E+03  0.00000000000E+00 0.  1.
         23    2    1    2    0    0  0.48325556071E+01 -0.18282216422E+02 -0.19636327312E+03  0.21750395945E+03  0.91607010176E+02 0.  0.
         23    2    1    2    0    0 -0.48325556071E+01  0.18282216422E+02 -0.14852624320E+03  0.17580581605E+03  0.92141451075E+02 0.  0.
          5    1    4    4  502    0  0.41236128746E+02  0.49543488687E+01 -0.94975324476E+02  0.10376591996E+03  0.47000000000E+01 0. -1.
         -5    1    3    3    0  503  0.99472102392E+01 -0.45707437955E+02 -0.17720744717E+03  0.18333762901E+03  0.47000000000E+01 0.  1.
          5    1    3    3  503    0 -0.51146546320E+01  0.27425221533E+02 -0.19155825952E+02  0.34166330445E+02  0.47000000000E+01 0. -1.
         -5    1    4    4    0  502 -0.46068684353E+02  0.13327867553E+02 -0.53550918720E+02  0.72039896081E+02  0.47000000000E+01 0.  1.
<mgrwt>
<rscale>  0 0.93930754E+02</rscale>
<asrwt>0</asrwt>
<pdfrwt beam="1">  1        3 0.37246351E-02 0.94061895E+02</pdfrwt>
<pdfrwt beam="2">  1       -3 0.56784564E-01 0.94061895E+02</pdfrwt>
<totfact> 0.23916560E+03</totfact>
</mgrwt>
</event>
<event>
 8    1  0.7366917E-004  0.1188292E+03  0.7546771E-02  0.1245204E+00
          1   -1    0    0  501    0  0.00000000000E+00  0.00000000000E+00  0.43855965233E+03  0.43855965233E+03  0.00000000000E+00 0. -1.
         -1   -1    0    0    0  501 -0.00000000000E+00 -0.00000000000E+00 -0.33835711284E+02  0.33835711284E+02  0.00000000000E+00 0.  1.
         23    2    1    2    0    0  0.46045197916E+02  0.59750464570E+02  0.25566825562E+03  0.28177015248E+03  0.91312012496E+02 0.  0.
         23    2    1    2    0    0 -0.46045197916E+02 -0.59750464570E+02  0.14905568542E+03  0.19062521114E+03  0.91815551496E+02 0.  0.
          5    1    4    4  502    0  0.16402206048E+02 -0.50017060814E+02  0.87842940128E+02  0.10251444223E+03  0.47000000000E+01 0. -1.
         -5    1    3    3    0  503  0.20740022659E+02  0.66109500575E+02  0.88408512021E+02  0.11242228251E+03  0.47000000000E+01 0.  1.
          5    1    3    3  503    0  0.25305175257E+02 -0.63590360050E+01  0.16725974360E+03  0.16934786997E+03  0.47000000000E+01 0. -1.
         -5    1    4    4    0  502 -0.62447403964E+02 -0.97334037569E+01  0.61212745296E+02  0.88110768906E+02  0.47000000000E+01 0.  1.
<mgrwt>
<rscale>  0 0.11873190E+03</rscale>
<asrwt>0</asrwt>
<pdfrwt beam="1">  1        1 0.67470712E-01 0.11882918E+03</pdfrwt>
<pdfrwt beam="2">  1       -1 0.52054944E-02 0.11882918E+03</pdfrwt>
<totfact> 0.84059777E+03</totfact>
</mgrwt>
</event>
<event>
 8    1  0.7366917E-004  0.9901219E+02  0.7546771E-02  0.1283318E+00
          1   -1    0    0  501    0  0.00000000000E+00  0.00000000000E+00  0.26230508385E+03  0.26230508385E+03  0.00000000000E+00 0. -1.
         -1   -1    0    0    0  501 -0.00000000000E+00 -0.00000000000E+00 -0.10456322016E+03  0.10456322016E+03  0.00000000000E+00 0.  1.
         23    2    1    2    0    0  0.40041903094E+02  0.14028627668E+02 -0.68634727217E+02  0.12047464588E+03  0.89460930709E+02 0.  0.
         23    2    1    2    0    0 -0.40041903094E+02 -0.14028627668E+02  0.22637659091E+03  0.24639365812E+03  0.87540376123E+02 0.  0.
          5    1    4    4  502    0 -0.47874397478E+02 -0.43501403223E+02  0.17275028778E+03  0.18452393326E+03  0.47000000000E+01 0. -1.
         -5    1    3    3    0  503  0.51694865212E+02 -0.70665930173E+01 -0.78198230590E+02  0.94124115366E+02  0.47000000000E+01 0.  1.
          5    1    3    3  503    0 -0.11652962117E+02  0.21095220685E+02  0.95635033725E+01  0.26350530519E+02  0.47000000000E+01 0. -1.
         -5    1    4    4    0  502  0.78324943838E+01  0.29472775555E+02  0.53626303125E+02  0.61869724858E+02  0.47000000000E+01 0.  1.
<mgrwt>
<rscale>  0 0.98576373E+02</rscale>
<asrwt>0</asrwt>
<pdfrwt beam="1">  1        1 0.40354628E-01 0.99012194E+02</pdfrwt>
<pdfrwt beam="2">  1       -1 0.16086649E-01 0.99012194E+02</pdfrwt>
<totfact> 0.28500453E+03</totfact>
</mgrwt>
</event>
<event>
 8    1  0.7366917E-004  0.1037808E+03  0.7546771E-02  0.1276165E+00
          3   -1    0    0  501    0  0.00000000000E+00  0.00000000000E+00  0.64106336779E+03  0.64106336779E+03  0.00000000000E+00 0. -1.
         -3   -1    0    0    0  501 -0.00000000000E+00 -0.00000000000E+00 -0.26174868850E+02  0.26174868850E+02  0.00000000000E+00 0.  1.
         23    2    1    2    0    0  0.29595456834E+02 -0.98775859303E+01  0.10278467131E+03  0.14606551531E+03  0.98979737007E+02 0.  0.
         23    2    1    2    0    0 -0.29595456834E+02  0.98775859303E+01  0.51210382763E+03  0.52117272132E+03  0.91636332389E+02 0.  0.
          5    1    4    4  502    0 -0.62499711037E+01  0.42789634284E+02  0.39153818863E+03  0.39394702448E+03  0.47000000000E+01 0. -1.
         -5    1    3    3    0  503  0.56691796908E+02 -0.32233549262E+02  0.82366911972E+02  0.10516349044E+03  0.47000000000E+01 0.  1.
          5    1    3    3  503    0 -0.27096340074E+02  0.22355963332E+02  0.20417759339E+02  0.40902024868E+02  0.47000000000E+01 0. -1.
         -5    1    4    4    0  502 -0.23345485731E+02 -0.32912048354E+02  0.12056563899E+03  0.12722569684E+03  0.47000000000E+01 0.  1.
<mgrwt>
<rscale>  0 0.10199033E+03</rscale>
<asrwt>0</asrwt>
<pdfrwt beam="1">  1        3 0.98625122E-01 0.10378076E+03</pdfrwt>
<pdfrwt beam="2">  1       -3 0.40269034E-02 0.10378076E+03</pdfrwt>
<totfact> 0.66707677E+02</totfact>
</mgrwt>
</event>
<event>
 8    1  0.7366917E-004  0.9736488E+02  0.7546771E-02  0.1286037E+00
          1   -1    0    0  501    0  0.00000000000E+00  0.00000000000E+00  0.62004889135E+03  0.62004889135E+03  0.00000000000E+00 0. -1.
         -1   -1    0    0    0  501 -0.00000000000E+00 -0.00000000000E+00 -0.36600434748E+02  0.36600434748E+02  0.00000000000E+00 0.  1.
         23    2    1    2    0    0 -0.30960100607E+02 -0.20082616795E+02  0.41135418995E+02  0.10569788204E+03  0.90100389819E+02 0.  0.
         23    2    1    2    0    0  0.30960100607E+02  0.20082616795E+02  0.54231303761E+03  0.55095144406E+03  0.89901188095E+02 0.  0.
          5    1    4    4  502    0  0.55389849928E+02  0.45086106758E+01  0.46363061248E+03  0.46697301621E+03  0.47000000000E+01 0. -1.
         -5    1    3    3    0  503 -0.51103537925E+02 -0.42081537697E+02  0.34431541616E+02  0.74766626656E+02  0.47000000000E+01 0.  1.
          5    1    3    3  503    0  0.20143437318E+02  0.21998920903E+02  0.67038773791E+01  0.30931255387E+02  0.47000000000E+01 0. -1.
         -5    1    4    4    0  502 -0.24429749321E+02  0.15574006119E+02  0.78682425133E+02  0.83978427845E+02  0.47000000000E+01 0.  1.
<mgrwt>
<rscale>  0 0.97318768E+02</rscale>
<asrwt>0</asrwt>
<pdfrwt beam="1">  1        1 0.95392130E-01 0.97364879E+02</pdfrwt>
<pdfrwt beam="2">  1       -1 0.56308366E-02 0.97364879E+02</pdfrwt>
<totfact> 0.47020263E+03</totfact>
</mgrwt>
</event>
<event>
 8    1  0.7366917E-004  0.1116198E+03  0.7546771E-02  0.1261005E+00
         -2   -1    0    0    0  501 -0.00000000000E+00  0.00000000000E+00  0.50982473918E+02  0.50982473918E+02  0.00000000000E+00 0.  1.
          2   -1    0    0  501    0  0.00000000000E+00 -0.00000000000E+00 -0.24232816116E+03  0.24232816116E+03  0.00000000000E+00 0. -1.
         23    2    1    2    0    0 -0.34564031479E+02 -0.54137280058E+02 -0.12728554432E+03  0.16461457705E+03  0.82285064391E+02 0.  0.
         23    2    1    2    0    0  0.34564031479E+02  0.54137280058E+02 -0.64060142923E+02  0.12869605802E+03  0.91287765201E+02 0.  0.
          5    1    4    4  502    0  0.35403234980E+02  0.96362574304E+01 -0.74106674506E+02  0.82825936220E+02  0.47000000000E+01 0. -1.
         -5    1    4    4    0  502 -0.83920350162E+00  0.44501022628E+02  0.10046531583E+02  0.45870121804E+02  0.47000000000E+01 0.  1.
          5    1    3    3  503    0  0.22287316723E+02 -0.39109820670E+02 -0.51133422063E+02  0.68286304713E+02  0.47000000000E+01 0. -1.
         -5    1    3    3    0  503 -0.56851348202E+02 -0.15027459389E+02 -0.76152122255E+02  0.96328272339E+02  0.47000000000E+01 0.  1.
<mgrwt>
<rscale>  0 0.10976553E+03</rscale>
<asrwt>0</asrwt>
<pdfrwt beam="1">  1        2 0.37281255E-01 0.11161977E+03</pdfrwt>
<pdfrwt beam="2">  1       -2 0.78434576E-02 0.11161977E+03</pdfrwt>
<totfact> 0.12448515E+04</totfact>
</mgrwt>
</event>
<event>
 8    1  0.7366917E-004  0.9497581E+02  0.7546771E-02  0.1293281E+00
          2   -1    0    0  501    0  0.00000000000E+00  0.00000000000E+00  0.90105559501E+03  0.90105559501E+03  0.00000000000E+00 0. -1.
         -2   -1    0    0    0  501 -0.00000000000E+00 -0.00000000000E+00 -0.12603256574E+02  0.12603256574E+02  0.00000000000E+00 0.  1.
         23    2    1    2    0    0 -0.21467624025E+02 -0.20156689925E+02  0.67225381681E+03  0.67892974448E+03  0.90295363651E+02 0.  0.
         23    2    1    2    0    0  0.21467624025E+02  0.20156689925E+02  0.21619852163E+03  0.23472910711E+03  0.86537864188E+02 0.  0.
          5    1    3    3  502    0 -0.44847176836E+02  0.17388934081E+02  0.42149387050E+03  0.42425560358E+03  0.47000000000E+01 0. -1.
         -5    1    3    3    0  502  0.23379552811E+02 -0.37545624005E+02  0.25075994630E+03  0.25467414090E+03  0.47000000000E+01 0.  1.
          5    1    4    4  503    0 -0.13558959663E+01  0.35411934914E+02  0.19858105978E+03  0.20177306780E+03  0.47000000000E+01 0. -1.
         -5    1    4    4    0  503  0.22823519992E+02 -0.15255244989E+02  0.17617461853E+02  0.32956039304E+02  0.47000000000E+01 0.  1.
<mgrwt>
<rscale>  0 0.94071753E+02</rscale>
<asrwt>0</asrwt>
<pdfrwt beam="1">  1        2 0.13862389E+00 0.94975806E+02</pdfrwt>
<pdfrwt beam="2">  1       -2 0.19389633E-02 0.94975806E+02</pdfrwt>
<totfact> 0.22602096E+04</totfact>
</mgrwt>
</event>
<event>
 7    1  0.7366917E-004  0.3724632E+03  0.7546771E-02  0.1104601E+00
         -1   -1    0    0    0  501 -0.00000000000E+00  0.00000000000E+00  0.12262215914E+03  0.12262215914E+03  0.00000000000E+00 0.  1.
          1   -1    0    0  501    0  0.00000000000E+00 -0.00000000000E+00 -0.46099629527E+03  0.46099629527E+03  0.00000000000E+00 0. -1.
         23    2    1    2    0    0 -0.39834500184E+01  0.62663770343E+01 -0.11699556413E+03  0.15033185847E+03  0.94109352821E+02 0.  0.
          5    1    1    2  502    0 -0.14164887768E+03 -0.12039394712E+03 -0.12984334105E+03  0.22680496085E+03  0.47000000000E+01 0. -1.
         -5    1    3    3    0  503  0.27037000091E+02 -0.13163836797E+02 -0.30848204595E+01  0.30592353464E+02  0.47000000000E+01 0.  1.
          5    1    3    3  503    0 -0.31020450110E+02  0.19430213832E+02 -0.11391074367E+03  0.11973950500E+03  0.47000000000E+01 0. -1.
         -5    1    1    2    0  502  0.14563232770E+03  0.11412757009E+03 -0.91535230949E+02  0.20648163509E+03  0.47000000000E+01 0.  1.
<mgrwt>
<rscale>  0 0.26427592E+03</rscale>
<asrwt>0</asrwt>
<pdfrwt beam="1">  1        1 0.70922506E-01 0.37246316E+03</pdfrwt>
<pdfrwt beam="2">  1       -1 0.18864948E-01 0.37246316E+03</pdfrwt>
<totfact> 0.11190088E+03</totfact>
</mgrwt>
</event>
<event>
 8    1  0.7366917E-004  0.1017018E+03  0.7546771E-02  0.1279333E+00
         -2   -1    0    0    0  501 -0.00000000000E+00  0.00000000000E+00  0.38103271763E+03  0.38103271763E+03  0.00000000000E+00 0.  1.
          2   -1    0    0  501    0  0.00000000000E+00 -0.00000000000E+00 -0.20461378083E+03  0.20461378083E+03  0.00000000000E+00 0. -1.
         23    2    1    2    0    0 -0.68334841971E+01  0.34074143572E+02  0.36162049699E+03  0.37435791744E+03  0.90369921622E+02 0.  0.
         23    2    1    2    0    0  0.68334841971E+01 -0.34074143572E+02 -0.18520156019E+03  0.21128858102E+03  0.95579824250E+02 0.  0.
          5    1    4    4  502    0 -0.36013443011E+02 -0.69052167442E+01 -0.13419024824E+03  0.13918966491E+03  0.47000000000E+01 0. -1.
         -5    1    4    4    0  502  0.42846927208E+02 -0.27168926828E+02 -0.51011311953E+02  0.72098916103E+02  0.47000000000E+01 0.  1.
          5    1    3    3  503    0 -0.36846295731E+01  0.62953871207E+02  0.19039352522E+03  0.20062041482E+03  0.47000000000E+01 0. -1.
         -5    1    3    3    0  503 -0.31488546240E+01 -0.28879727635E+02  0.17122697177E+03  0.17373750262E+03  0.47000000000E+01 0.  1.
<mgrwt>
<rscale>  0 0.10045918E+03</rscale>
<asrwt>0</asrwt>
<pdfrwt beam="1">  1        2 0.31479043E-01 0.10170175E+03</pdfrwt>
<pdfrwt beam="2">  1       -2 0.58620418E-01 0.10170175E+03</pdfrwt>
<totfact> 0.45959720E+02</totfact>
</mgrwt>
</event>
<event>
 7    1  0.7366917E-004  0.1347863E+03  0.7546771E-02  0.1238789E+00
          1   -1    0    0  501    0  0.00000000000E+00  0.00000000000E+00  0.13854364771E+03  0.13854364771E+03  0.00000000000E+00 0. -1.
         -1   -1    0    0    0  501 -0.00000000000E+00 -0.00000000000E+00 -0.11169733507E+03  0.11169733507E+03  0.00000000000E+00 0.  1.
         23    2    1    2    0    0  0.26485257011E+02 -0.12531923027E+02  0.61581343551E+02  0.11105096711E+03  0.87644380815E+02 0.  0.
          5    1    3    3  502    0  0.50487689385E+02 -0.22562367954E+02  0.14998684020E+02  0.57490153500E+02  0.47000000000E+01 0. -1.
         -5    1    1    2    0  503 -0.23495187360E+01 -0.55578543361E+02  0.59292604165E+01  0.56140367379E+02  0.47000000000E+01 0.  1.
          5    1    1    2  503    0 -0.24135738275E+02  0.68110466388E+02 -0.40664291328E+02  0.83049648301E+02  0.47000000000E+01 0. -1.
         -5    1    3    3    0  502 -0.24002432374E+02  0.10030444927E+02  0.46582659532E+02  0.53560813608E+02  0.47000000000E+01 0.  1.
<mgrwt>
<rscale>  0 0.12264979E+03</rscale>
<asrwt>0</asrwt>
<pdfrwt beam="1">  1        1 0.21314407E-01 0.13478627E+03</pdfrwt>
<pdfrwt beam="2">  1       -1 0.17184205E-01 0.13478627E+03</pdfrwt>
<totfact> 0.57767787E+03</totfact>
</mgrwt>
</event>
<event>
 7    1  0.7366917E-004  0.1662248E+03  0.7546771E-02  0.1193836E+00
          1   -1    0    0  501    0  0.00000000000E+00  0.00000000000E+00  0.72134075077E+03  0.72134075077E+03  0.00000000000E+00 0. -1.
         -1   -1    0    0    0  501 -0.00000000000E+00 -0.00000000000E+00 -0.33733546724E+02  0.33733546724E+02  0.00000000000E+00 0.  1.
         23    2    1    2    0    0 -0.82030512607E+02 -0.25934494866E+02  0.43013052271E+03  0.44860257170E+03  0.93970196068E+02 0.  0.
          5    1    3    3  502    0 -0.62055490605E+02 -0.51676886328E+01  0.40586157895E+03  0.41063767507E+03  0.47000000000E+01 0. -1.
         -5    1    3    3    0  502 -0.19975022002E+02 -0.20766806233E+02  0.24268943763E+02  0.37964896635E+02  0.47000000000E+01 0.  1.
          5    1    1    2  503    0  0.51745106846E+02 -0.34859578139E+02  0.22006613745E+03  0.22878798291E+03  0.47000000000E+01 0. -1.
         -5    1    1    2    0  503  0.30285405762E+02  0.60794073005E+02  0.37410543886E+02  0.77683742884E+02  0.47000000000E+01 0.  1.
<mgrwt>
<rscale>  0 0.15553149E+03</rscale>
<asrwt>0</asrwt>
<pdfrwt beam="1">  1        1 0.11097549E+00 0.16622478E+03</pdfrwt>
<pdfrwt beam="2">  1       -1 0.51897769E-02 0.16622478E+03</pdfrwt>
<totfact> 0.43985104E+03</totfact>
</mgrwt>
</event>
<event>
 8    1  0.7366917E-004  0.1254834E+03  0.7546771E-02  0.1235077E+00
          4   -1    0    0  501    0  0.00000000000E+00  0.00000000000E+00  0.51379876718E+02  0.51379876718E+02  0.00000000000E+00 0. -1.
         -4   -1    0    0    0  501 -0.00000000000E+00 -0.00000000000E+00 -0.86562199214E+03  0.86562199214E+03  0.00000000000E+00 0.  1.
         23    2    1    2    0    0  0.77359279725E+01  0.84355096013E+02 -0.77606885446E+03  0.78584059055E+03  0.89927415716E+02 0.  0.
         23    2    1    2    0    0 -0.77359279725E+01 -0.84355096013E+02 -0.38173260965E+02  0.13116127830E+03  0.92576758794E+02 0.  0.
          5    1    4    4  502    0 -0.20819895459E+02 -0.10118995649E+03 -0.34511988328E+02  0.10902312911E+03  0.47000000000E+01 0. -1.
         -5    1    4    4    0  502  0.13083967487E+02  0.16834860480E+02 -0.36612726368E+01  0.22138149197E+02  0.47000000000E+01 0.  1.
          5    1    3    3  503    0  0.13779119136E+02 -0.16534098326E+02 -0.11798980048E+03  0.12002884465E+03  0.47000000000E+01 0. -1.
         -5    1    3    3    0  503 -0.60431911640E+01  0.10088919434E+03 -0.65807905398E+03  0.66581174590E+03  0.47000000000E+01 0.  1.
<mgrwt>
<rscale>  0 0.12499515E+03</rscale>
<asrwt>0</asrwt>
<pdfrwt beam="1">  1        4 0.79045964E-02 0.12548340E+03</pdfrwt>
<pdfrwt beam="2">  1       -4 0.13317261E+00 0.12548340E+03</pdfrwt>
<totfact> 0.80487069E+01</totfact>
</mgrwt>
</event>
<event>
 8    1  0.7366917E-004  0.9924618E+02  0.7546771E-02  0.1282721E+00
         -2   -1    0    0    0  501 -0.00000000000E+00  0.00000000000E+00  0.10734390661E+03  0.10734390661E+03  0.00000000000E+00 0.  1.
          2   -1    0    0  501    0  0.00000000000E+00 -0.00000000000E+00 -0.20161869757E+03  0.20161869757E+03  0.00000000000E+00 0. -1.
         23    2    1    2    0    0  0.25440140411E+02  0.24491332029E+02 -0.16207498912E+03  0.19004764489E+03  0.92751167868E+02 0.  0.
         23    2    1    2    0    0 -0.25440140411E+02 -0.24491332029E+02  0.67800198161E+02  0.11891495930E+03  0.91087181232E+02 0.  0.
          5    1    3    3  502    0 -0.20645584431E+00  0.54840526943E+02 -0.65779054530E+02  0.85770041589E+02  0.47000000000E+01 0. -1.
         -5    1    3    3    0  502  0.25646596256E+02 -0.30349194914E+02 -0.96295934589E+02  0.10427760330E+03  0.47000000000E+01 0.  1.
          5    1    4    4  503    0 -0.39770051395E+02  0.16123076494E+02  0.62122515512E+01  0.43615280039E+02  0.47000000000E+01 0. -1.
         -5    1    4    4    0  503  0.14329910983E+02 -0.40614408523E+02  0.61587946610E+02  0.75299679256E+02  0.47000000000E+01 0.  1.
<mgrwt>
<rscale>  0 0.98855561E+02</rscale>
<asrwt>0</asrwt>
<pdfrwt beam="1">  1        2 0.31018261E-01 0.99246185E+02</pdfrwt>
<pdfrwt beam="2">  1       -2 0.16514447E-01 0.99246185E+02</pdfrwt>
<totfact> 0.46211846E+03</totfact>
</mgrwt>
</event>
<event>
 8    1  0.7366917E-004  0.1382009E+03  0.7546771E-02  0.1216772E+00
         -1   -1    0    0    0  501 -0.00000000000E+00  0.00000000000E+00  0.28181446618E+03  0.28181446618E+03  0.00000000000E+00 0.  1.
          1   -1    0    0  501    0  0.00000000000E+00 -0.00000000000E+00 -0.83872170571E+02  0.83872170571E+02  0.00000000000E+00 0. -1.
         23    2    1    2    0    0  0.98746559389E+02  0.46560380658E+01  0.18333932841E+03  0.22959266238E+03  0.96575978353E+02 0.  0.
         23    2    1    2    0    0 -0.98746559389E+02 -0.46560380658E+01  0.14602967199E+02  0.13609397437E+03  0.92389185124E+02 0.  0.
          5    1    3    3  502    0  0.47638837023E+02 -0.19105287965E+02  0.17591506593E+02  0.54461196511E+02  0.47000000000E+01 0. -1.
         -5    1    3    3    0  502  0.51107722366E+02  0.23761326031E+02  0.16574782182E+03  0.17513146587E+03  0.47000000000E+01 0.  1.
          5    1    4    4  503    0 -0.99057568009E+02  0.15404248358E+02 -0.13482802893E+02  0.10125990629E+03  0.47000000000E+01 0. -1.
         -5    1    4    4    0  503  0.31100862032E+00 -0.20060286424E+02  0.28085770091E+02  0.34834068085E+02  0.47000000000E+01 0.  1.
<mgrwt>
<rscale>  0 0.13747197E+03</rscale>
<asrwt>0</asrwt>
<pdfrwt beam="1">  1        1 0.12903411E-01 0.13820087E+03</pdfrwt>
<pdfrwt beam="2">  1       -1 0.43356071E-01 0.13820087E+03</pdfrwt>
<totfact> 0.23590179E+03</totfact>
</mgrwt>
</event>
<event>
 8    1  0.7366917E-004  0.9746222E+02  0.7546771E-02  0.1286290E+00
          2   -1    0    0  501    0  0.00000000000E+00  0.00000000000E+00  0.46100776767E+02  0.46100776767E+02  0.00000000000E+00 0. -1.
         -2   -1    0    0    0  501 -0.00000000000E+00 -0.00000000000E+00 -0.22711334745E+03  0.22711334745E+03  0.00000000000E+00 0.  1.
         23    2    1    2    0    0 -0.33869987025E+02  0.64927952706E+01 -0.13464368840E+03  0.16621614383E+03  0.91156739917E+02 0.  0.
         23    2    1    2    0    0  0.33869987025E+02 -0.64927952706E+01 -0.46368882285E+02  0.10699798039E+03  0.90050886457E+02 0.  0.
          5    1    4    4  502    0  0.15427924529E+02 -0.29212688033E+02 -0.64239614904E+02  0.72389364691E+02  0.47000000000E+01 0. -1.
         -5    1    4    4    0  502  0.18442062495E+02  0.22719892762E+02  0.17870732619E+02  0.34608615698E+02  0.47000000000E+01 0.  1.
          5    1    3    3  503    0 -0.37910616505E+02 -0.18259561259E+02 -0.16652666243E+02  0.45497557233E+02  0.47000000000E+01 0. -1.
         -5    1    3    3    0  503  0.40406294805E+01  0.24752356530E+02 -0.11799102216E+03  0.12071858660E+03  0.47000000000E+01 0.  1.
<mgrwt>
<rscale>  0 0.97202804E+02</rscale>
<asrwt>0</asrwt>
<pdfrwt beam="1">  1        2 0.70924273E-02 0.97462216E+02</pdfrwt>
<pdfrwt beam="2">  1       -2 0.34940515E-01 0.97462216E+02</pdfrwt>
<totfact> 0.70164153E+03</totfact>
</mgrwt>
</event>
<event>
 8    1  0.7366917E-004  0.2921691E+03  0.7546771E-02  0.1090248E+00
          1   -1    0    0  501    0  0.00000000000E+00  0.00000000000E+00  0.50437897076E+03  0.50437897076E+03  0.00000000000E+00 0. -1.
         -1   -1    0    0    0  501 -0.00000000000E+00 -0.00000000000E+00 -0.16490801402E+03  0.16490801402E+03  0.00000000000E+00 0.  1.
         23    2    1    2    0    0 -0.25508304610E+03  0.89743008893E+02  0.17804300701E+03  0.33548799452E+03  0.87930165845E+02 0.  0.
         23    2    1    2    0    0  0.25508304610E+03 -0.89743008893E+02  0.16142794973E+03  0.33379899026E+03  0.11064183157E+03 0.  0.
          5    1    3    3  502    0 -0.10966113687E+03  0.41622829113E+02  0.12938174202E+03  0.17469902693E+03  0.47000000000E+01 0. -1.
         -5    1    4    4    0  503  0.15691886777E+03 -0.85330755227E+02  0.15269286697E+03  0.23503631735E+03  0.47000000000E+01 0.  1.
          5    1    4    4  503    0  0.98164178329E+02 -0.44122536662E+01  0.87350827573E+01  0.98762672909E+02  0.47000000000E+01 0. -1.
         -5    1    3    3    0  502 -0.14542190923E+03  0.48120179780E+02  0.48661264995E+02  0.16078896759E+03  0.47000000000E+01 0.  1.
<mgrwt>
<rscale>  0 0.29019348E+03</rscale>
<asrwt>0</asrwt>
<pdfrwt beam="1">  1        1 0.77596764E-01 0.29216910E+03</pdfrwt>
<pdfrwt beam="2">  1       -1 0.25370464E-01 0.29216910E+03</pdfrwt>
<totfact> 0.60850813E+02</totfact>
</mgrwt>
</event>
<event>
 8    1  0.7366917E-004  0.9268508E+02  0.7546771E-02  0.1298083E+00
          1   -1    0    0  501    0  0.00000000000E+00  0.00000000000E+00  0.35578283925E+03  0.35578283925E+03  0.00000000000E+00 0. -1.
         -1   -1    0    0    0  501 -0.00000000000E+00 -0.00000000000E+00 -0.25930731136E+02  0.25930731136E+02  0.00000000000E+00 0.  1.
         23    2    1    2    0    0 -0.12217378831E+02 -0.99142542100E+01  0.22625409294E+03  0.24450243165E+03  0.91339847427E+02 0.  0.
         23    2    1    2    0    0  0.12217378831E+02  0.99142542100E+01  0.10359801518E+03  0.13721113874E+03  0.88582114808E+02 0.  0.
          5    1    4    4  502    0 -0.33593382386E+02  0.58167574810E+01  0.15555821482E+02  0.37768023376E+02  0.47000000000E+01 0. -1.
         -5    1    3    3    0  503  0.34223685433E+01 -0.44691532105E+02  0.67481422148E+02  0.81147261097E+02  0.47000000000E+01 0.  1.
          5    1    3    3  503    0 -0.15639747374E+02  0.34777277895E+02  0.15877267079E+03  0.16335517055E+03  0.47000000000E+01 0. -1.
         -5    1    4    4    0  502  0.45810761217E+02  0.40974967289E+01  0.88042193698E+02  0.99443115367E+02  0.47000000000E+01 0.  1.
<mgrwt>
<rscale>  0 0.91998366E+02</rscale>
<asrwt>0</asrwt>
<pdfrwt beam="1">  1        1 0.54735818E-01 0.92685082E+02</pdfrwt>
<pdfrwt beam="2">  1       -1 0.39893435E-02 0.92685082E+02</pdfrwt>
<totfact> 0.15784420E+04</totfact>
</mgrwt>
</event>
<event>
 8    1  0.7366917E-004  0.9125891E+02  0.7546771E-02  0.1300485E+00
         -1   -1    0    0    0  501 -0.00000000000E+00  0.00000000000E+00  0.20340670386E+03  0.20340670386E+03  0.00000000000E+00 0.  1.
          1   -1    0    0  501    0  0.00000000000E+00 -0.00000000000E+00 -0.75193939066E+02  0.75193939066E+02  0.00000000000E+00 0. -1.
         23    2    1    2    0    0 -0.43444916776E+01  0.68196480309E+01  0.15899582752E+03  0.18332446961E+03  0.90899976802E+02 0.  0.
         23    2    1    2    0    0  0.43444916776E+01 -0.68196480309E+01 -0.30783062726E+02  0.95276173313E+02  0.89802951194E+02 0.  0.
          5    1    4    4  502    0 -0.88295019380E+01 -0.36945564819E+02 -0.45060807865E+02  0.59122764395E+02  0.47000000000E+01 0. -1.
         -5    1    3    3    0  503  0.26003224159E+02  0.27783473185E+02  0.13178219405E+03  0.13724695158E+03  0.47000000000E+01 0.  1.
          5    1    3    3  503    0 -0.30347715837E+02 -0.20963825154E+02  0.27213633472E+02  0.46077518035E+02  0.47000000000E+01 0. -1.
         -5    1    4    4    0  502  0.13173993616E+02  0.30125916789E+02  0.14277745139E+02  0.36153408918E+02  0.47000000000E+01 0.  1.
<mgrwt>
<rscale>  0 0.90984507E+02</rscale>
<asrwt>0</asrwt>
<pdfrwt beam="1">  1        1 0.11568298E-01 0.91258906E+02</pdfrwt>
<pdfrwt beam="2">  1       -1 0.31293339E-01 0.91258906E+02</pdfrwt>
<totfact> 0.46534348E+03</totfact>
</mgrwt>
</event>
<event>
 8    1  0.7366917E-004  0.1210573E+03  0.7546771E-02  0.1241593E+00
         -2   -1    0    0    0  501 -0.00000000000E+00  0.00000000000E+00  0.26974126278E+03  0.26974126278E+03  0.00000000000E+00 0.  1.
          2   -1    0    0  501    0  0.00000000000E+00 -0.00000000000E+00 -0.55036065201E+02  0.55036065201E+02  0.00000000000E+00 0. -1.
         23    2    1    2    0    0  0.44189844333E+02 -0.63277015911E+02  0.12854046859E+03  0.17618648430E+03  0.92532708260E+02 0.  0.
         23    2    1    2    0    0 -0.44189844333E+02  0.63277015911E+02  0.86164728985E+02  0.14859084368E+03  0.93263900951E+02 0.  0.
          5    1    3    3  502    0 -0.24809330168E+02 -0.11490590474E+02  0.99755092283E+01  0.29481134937E+02  0.47000000000E+01 0. -1.
         -5    1    4    4    0  503 -0.34940650413E+02  0.13586059017E+02  0.90074812521E+02  0.97678001114E+02  0.47000000000E+01 0.  1.
          5    1    4    4  503    0 -0.92491939198E+01  0.49690956894E+02 -0.39100835363E+01  0.50912842569E+02  0.47000000000E+01 0. -1.
         -5    1    3    3    0  502  0.68999174501E+02 -0.51786425437E+02  0.11856495937E+03  0.14670534936E+03  0.47000000000E+01 0.  1.
<mgrwt>
<rscale>  0 0.12091648E+03</rscale>
<asrwt>0</asrwt>
<pdfrwt beam="1">  1        2 0.84670872E-02 0.12105733E+03</pdfrwt>
<pdfrwt beam="2">  1       -2 0.41498655E-01 0.12105733E+03</pdfrwt>
<totfact> 0.41503346E+03</totfact>
</mgrwt>
</event>
<event>
 8    1  0.7366917E-004  0.1154781E+03  0.7546771E-02  0.1250969E+00
         -1   -1    0    0    0  501 -0.00000000000E+00  0.00000000000E+00  0.27233501022E+03  0.27233501022E+03  0.00000000000E+00 0.  1.
          1   -1    0    0  501    0  0.00000000000E+00 -0.00000000000E+00 -0.72543250166E+02  0.72543250166E+02  0.00000000000E+00 0. -1.
         23    2    1    2    0    0 -0.59552071924E+02 -0.36723176602E+02  0.19879606745E+03  0.22990230714E+03  0.91870307640E+02 0.  0.
         23    2    1    2    0    0  0.59552071924E+02  0.36723176602E+02  0.99569260941E+00  0.11497595325E+03  0.91232874839E+02 0.  0.
          5    1    4    4  502    0  0.51292955239E+02 -0.11358594271E+02 -0.26232671509E+02  0.58908640924E+02  0.47000000000E+01 0. -1.
         -5    1    4    4    0  502  0.82591166841E+01  0.48081770873E+02  0.27228364119E+02  0.56067312324E+02  0.47000000000E+01 0.  1.
          5    1    3    3  503    0 -0.31879938585E+02  0.27247262135E+02  0.49333630491E+02  0.64920265522E+02  0.47000000000E+01 0. -1.
         -5    1    3    3    0  503 -0.27672133339E+02 -0.63970438737E+02  0.14946243696E+03  0.16498204162E+03  0.47000000000E+01 0.  1.
<mgrwt>
<rscale>  0 0.11535129E+03</rscale>
<asrwt>0</asrwt>
<pdfrwt beam="1">  1        1 0.11160500E-01 0.11547811E+03</pdfrwt>
<pdfrwt beam="2">  1       -1 0.41897693E-01 0.11547811E+03</pdfrwt>
<totfact> 0.30032157E+03</totfact>
</mgrwt>
</event>
<event>
 7    1  0.7366917E-004  0.2133375E+03  0.7546771E-02  0.1158258E+00
          2   -1    0    0  501    0  0.00000000000E+00  0.00000000000E+00  0.44540981536E+03  0.44540981536E+03  0.00000000000E+00 0. -1.
         -2   -1    0    0    0  501 -0.00000000000E+00 -0.00000000000E+00 -0.14523493232E+03  0.14523493232E+03  0.00000000000E+00 0.  1.
         23    2    1    2    0    0  0.48860853402E+02  0.83642231444E+02 -0.78477179379E+02  0.15602966598E+03  0.93825279680E+02 0.  0.
          5    1    1    2  502    0 -0.37497916280E+02 -0.14224361622E+03  0.31228090010E+03  0.34522570971E+03  0.47000000000E+01 0. -1.
         -5    1    1    2    0  502 -0.11362937122E+02  0.58601384772E+02  0.66371162314E+02  0.89389371986E+02  0.47000000000E+01 0.  1.
          5    1    3    3  503    0  0.54822837840E+02  0.22286692564E+02 -0.72813246989E+02  0.93947321151E+02  0.47000000000E+01 0. -1.
         -5    1    3    3    0  503 -0.59619844379E+01  0.61355538880E+02 -0.56639323902E+01  0.62082344831E+02  0.47000000000E+01 0.  1.
<mgrwt>
<rscale>  0 0.19022574E+03</rscale>
<asrwt>0</asrwt>
<pdfrwt beam="1">  1        2 0.68524587E-01 0.21333749E+03</pdfrwt>
<pdfrwt beam="2">  1       -2 0.22343836E-01 0.21333749E+03</pdfrwt>
<totfact> 0.12257707E+03</totfact>
</mgrwt>
</event>
<event>
 8    1  0.7366917E-004  0.9252512E+02  0.7546771E-02  0.1297330E+00
          1   -1    0    0  501    0  0.00000000000E+00  0.00000000000E+00  0.45794321989E+02  0.45794321989E+02  0.00000000000E+00 0. -1.
         -1   -1    0    0    0  501 -0.00000000000E+00 -0.00000000000E+00 -0.27863188924E+03  0.27863188924E+03  0.00000000000E+00 0.  1.
         23    2    1    2    0    0 -0.19148747553E+01 -0.14473580788E+02 -0.22875820433E+02  0.95311071660E+02  0.91365999881E+02 0.  0.
         23    2    1    2    0    0  0.19148747553E+01  0.14473580788E+02 -0.20996174681E+03  0.22911513957E+03  0.90535411671E+02 0.  0.
          5    1    4    4  502    0  0.24515075242E+02 -0.16191981907E+02 -0.21307823929E+02  0.36596209541E+02  0.47000000000E+01 0. -1.
         -5    1    4    4    0  502 -0.22600200487E+02  0.30665562695E+02 -0.18865392289E+03  0.19251893002E+03  0.47000000000E+01 0.  1.
          5    1    3    3  503    0  0.24793468585E+02 -0.57396876215E+01  0.27296112152E+02  0.37614197281E+02  0.47000000000E+01 0. -1.
         -5    1    3    3    0  503 -0.26708343340E+02 -0.87338931665E+01 -0.50171932585E+02  0.57696874379E+02  0.47000000000E+01 0.  1.
<mgrwt>
<rscale>  0 0.92319409E+02</rscale>
<asrwt>0</asrwt>
<pdfrwt beam="1">  1        1 0.70452802E-02 0.92525117E+02</pdfrwt>
<pdfrwt beam="2">  1       -1 0.42866445E-01 0.92525117E+02</pdfrwt>
<totfact> 0.52237211E+03</totfact>
</mgrwt>
</event>
<event>
 8    1  0.7366917E-004  0.1163278E+03  0.7546771E-02  0.1259617E+00
          2   -1    0    0  501    0  0.00000000000E+00  0.00000000000E+00  0.11893544262E+04  0.11893544262E+04  0.00000000000E+00 0. -1.
         -2   -1    0    0    0  501 -0.00000000000E+00 -0.00000000000E+00 -0.13100675401E+02  0.13100675401E+02  0.00000000000E+00 0.  1.
         23    2    1    2    0    0 -0.25228452498E+02  0.12849539862E+02  0.22539233015E+03  0.24450436973E+03  0.90438370393E+02 0.  0.
         23    2    1    2    0    0  0.25228452498E+02 -0.12849539862E+02  0.95086142067E+03  0.95795073188E+03  0.11282986268E+03 0.  0.
          5    1    4    4  502    0  0.28584804577E+01 -0.60778702992E+02  0.59970333259E+03  0.60280046348E+03  0.47000000000E+01 0. -1.
         -5    1    4    4    0  502  0.22369972040E+02  0.47929163130E+02  0.35115808808E+03  0.35515026841E+03  0.47000000000E+01 0.  1.
          5    1    3    3  503    0 -0.20016670020E+01 -0.37811592468E+02  0.10608844107E+03  0.11274116606E+03  0.47000000000E+01 0. -1.
         -5    1    3    3    0  503 -0.23226785496E+02  0.50661132330E+02  0.11930388908E+03  0.13176320367E+03  0.47000000000E+01 0.  1.
<mgrwt>
<rscale>  0 0.11051631E+03</rscale>
<asrwt>0</asrwt>
<pdfrwt beam="1">  1        2 0.18297752E+00 0.11632783E+03</pdfrwt>
<pdfrwt beam="2">  1       -2 0.20154895E-02 0.11632783E+03</pdfrwt>
<totfact> 0.14765384E+04</totfact>
</mgrwt>
</event>
<event>
 8    1  0.7366917E-004  0.2078013E+03  0.7546771E-02  0.1143475E+00
          3   -1    0    0  501    0  0.00000000000E+00  0.00000000000E+00  0.67561881636E+03  0.67561881636E+03  0.00000000000E+00 0. -1.
         -3   -1    0    0    0  501 -0.00000000000E+00 -0.00000000000E+00 -0.66639768681E+02  0.66639768681E+02  0.00000000000E+00 0.  1.
         23    2    1    2    0    0  0.17318059454E+03  0.68615736459E+02  0.38222310238E+03  0.43468805280E+03  0.90330314053E+02 0.  0.
         23    2    1    2    0    0 -0.17318059454E+03 -0.68615736459E+02  0.22675594530E+03  0.30757053224E+03  0.92096340637E+02 0.  0.
          5    1    4    4  502    0 -0.13986545285E+03 -0.15326284640E+02  0.18282879879E+03  0.23075029701E+03  0.47000000000E+01 0. -1.
         -5    1    3    3    0  503  0.61811190859E+02  0.15202762381E+02  0.52787447327E+02  0.82827241260E+02  0.47000000000E+01 0.  1.
          5    1    3    3  503    0  0.11136940368E+03  0.53412974078E+02  0.32943565505E+03  0.35186081154E+03  0.47000000000E+01 0. -1.
         -5    1    4    4    0  502 -0.33315141697E+02 -0.53289451819E+02  0.43927146510E+02  0.76820235237E+02  0.47000000000E+01 0.  1.
<mgrwt>
<rscale>  0 0.20760685E+03</rscale>
<asrwt>0</asrwt>
<pdfrwt beam="1">  1        3 0.10394135E+00 0.20780128E+03</pdfrwt>
<pdfrwt beam="2">  1       -3 0.10252273E-01 0.20780128E+03</pdfrwt>
<totfact> 0.14393171E+02</totfact>
</mgrwt>
</event>
<event>
 8    1  0.7366917E-004  0.1438732E+03  0.7546771E-02  0.1213211E+00
          1   -1    0    0  501    0  0.00000000000E+00  0.00000000000E+00  0.14484655684E+04  0.14484655684E+04  0.00000000000E+00 0. -1.
         -1   -1    0    0    0  501 -0.00000000000E+00 -0.00000000000E+00 -0.23146450285E+02  0.23146450285E+02  0.00000000000E+00 0.  1.
         23    2    1    2    0    0 -0.58766665444E+02 -0.69739994363E+02  0.24417337425E+03  0.28340806877E+03  0.11127582384E+03 0.  0.
         23    2    1    2    0    0  0.58766665444E+02  0.69739994363E+02  0.11811457439E+04  0.11882039500E+04  0.91685170885E+02 0.  0.
          5    1    3    3  502    0 -0.84670105838E+02 -0.65789257755E+02  0.22866130466E+03  0.25259718032E+03  0.47000000000E+01 0. -1.
         -5    1    4    4    0  503 -0.14559762651E+02  0.50919625270E+02  0.52714881740E+03  0.52982332962E+03  0.47000000000E+01 0.  1.
          5    1    4    4  503    0  0.73326428096E+02  0.18820369093E+02  0.65399692651E+03  0.65838062034E+03  0.47000000000E+01 0. -1.
         -5    1    3    3    0  502  0.25903440393E+02 -0.39507366082E+01  0.15512069589E+02  0.30810888447E+02  0.47000000000E+01 0.  1.
<mgrwt>
<rscale>  0 0.14008781E+03</rscale>
<asrwt>0</asrwt>
<pdfrwt beam="1">  1        1 0.22284079E+00 0.14387320E+03</pdfrwt>
<pdfrwt beam="2">  1       -1 0.35609935E-02 0.14387320E+03</pdfrwt>
<totfact> 0.22577748E+03</totfact>
</mgrwt>
</event>
<event>
 7    1  0.8641371E-004  0.3643755E+03  0.7546771E-02  0.1056865E+00
          2   -1    0    0  501    0  0.00000000000E+00  0.00000000000E+00  0.92025749959E+03  0.92025749959E+03  0.00000000000E+00 0. -1.
         -2   -1    0    0    0  501 -0.00000000000E+00 -0.00000000000E+00 -0.36068571366E+02  0.36068571366E+02  0.00000000000E+00 0.  1.
         23    2    1    2    0    0  0.14309425553E+02 -0.91878981310E+02  0.26099994687E+03  0.29396456558E+03  0.98222638340E+02 0.  0.
          5    1    3    3  502    0  0.33980761730E+02  0.41469332856E+01  0.95488456662E+02  0.10154813922E+03  0.47000000000E+01 0. -1.
         -5    1    1    2    0  503 -0.42746301011E+02 -0.14650167567E+02  0.20833785961E+02  0.49980099013E+02  0.47000000000E+01 0.  1.
          5    1    1    2  503    0  0.28436875458E+02  0.10652914888E+03  0.60235519539E+03  0.61238140637E+03  0.47000000000E+01 0. -1.
         -5    1    3    3    0  502 -0.19671336177E+02 -0.96025914596E+02  0.16551149021E+03  0.19241642636E+03  0.47000000000E+01 0.  1.
<mgrwt>
<rscale>  0 0.36437548E+03</rscale>
<asrwt>0</asrwt>
<pdfrwt beam="1">  1        2 0.14157806E+00 0.36437548E+03</pdfrwt>
<pdfrwt beam="2">  1       -2 0.55490117E-02 0.36437548E+03</pdfrwt>
<totfact> 0.49424717E+03</totfact>
</mgrwt>
</event>
<event>
 8    1  0.7366917E-004  0.1252634E+03  0.7546771E-02  0.1236087E+00
          1   -1    0    0  501    0  0.00000000000E+00  0.00000000000E+00  0.10524691280E+04  0.10524691280E+04  0.00000000000E+00 0. -1.
         -1   -1    0    0    0  501 -0.00000000000E+00 -0.00000000000E+00 -0.18396383533E+02  0.18396383533E+02  0.00000000000E+00 0.  1.
         23    2    1    2    0    0  0.68737300925E+02 -0.45240587553E+02  0.26412724117E+03  0.29079692107E+03  0.89599790610E+02 0.  0.
         23    2    1    2    0    0 -0.68737300925E+02  0.45240587553E+02  0.76994550333E+03  0.78006859049E+03  0.94442577649E+02 0.  0.
          5    1    4    4  502    0 -0.77158140112E+02  0.11610769436E+02  0.66190953089E+03  0.66650919396E+03  0.47000000000E+01 0. -1.
         -5    1    3    3    0  503  0.55542551630E+02  0.14068896227E+02  0.16165229131E+03  0.17157057489E+03  0.47000000000E+01 0.  1.
          5    1    3    3  503    0  0.13194749295E+02 -0.59309483780E+02  0.10247494985E+03  0.11922634618E+03  0.47000000000E+01 0. -1.
         -5    1    4    4    0  502  0.84208391875E+01  0.33629818117E+02  0.10803597244E+03  0.11355939653E+03  0.47000000000E+01 0.  1.
<mgrwt>
<rscale>  0 0.12435111E+03</rscale>
<asrwt>0</asrwt>
<pdfrwt beam="1">  1        1 0.16191828E+00 0.12526343E+03</pdfrwt>
<pdfrwt beam="2">  1       -1 0.28302137E-02 0.12526343E+03</pdfrwt>
<totfact> 0.58352866E+03</totfact>
</mgrwt>
</event>
<event>
 8    1  0.7366917E-004  0.1026491E+03  0.7546771E-02  0.1275483E+00
         -4   -1    0    0    0  501 -0.00000000000E+00  0.00000000000E+00  0.19398644928E+03  0.19398644928E+03  0.00000000000E+00 0.  1.
          4   -1    0    0  501    0  0.00000000000E+00 -0.00000000000E+00 -0.75304430865E+02  0.75304430865E+02  0.00000000000E+00 0. -1.
         23    2    1    2    0    0  0.44277893045E+02  0.13087163665E+02  0.13129974751E+03  0.16586920084E+03  0.90228390361E+02 0.  0.
         23    2    1    2    0    0 -0.44277893045E+02 -0.13087163665E+02 -0.12617729097E+02  0.10342167930E+03  0.91678956124E+02 0.  0.
          5    1    3    3  502    0 -0.89723381776E+01 -0.30645591791E+02  0.40598767489E+02  0.51865258799E+02  0.47000000000E+01 0. -1.
         -5    1    3    3    0  502  0.53250231223E+02  0.43732755457E+02  0.90700980018E+02  0.11400394204E+03  0.47000000000E+01 0.  1.
          5    1    4    4  503    0 -0.47940274318E+02  0.23076231997E+02 -0.31689469691E+02  0.62105514040E+02  0.47000000000E+01 0. -1.
         -5    1    4    4    0  503  0.36623812731E+01 -0.36163395662E+02  0.19071740594E+02  0.41316165259E+02  0.47000000000E+01 0.  1.
<mgrwt>
<rscale>  0 0.10232419E+03</rscale>
<asrwt>0</asrwt>
<pdfrwt beam="1">  1        4 0.11585297E-01 0.10264909E+03</pdfrwt>
<pdfrwt beam="2">  1       -4 0.29844069E-01 0.10264909E+03</pdfrwt>
<totfact> 0.98328187E+02</totfact>
</mgrwt>
</event>
<event>
 8    1  0.7366917E-004  0.1005311E+03  0.7546771E-02  0.1281057E+00
         -3   -1    0    0    0  501 -0.00000000000E+00  0.00000000000E+00  0.76607376732E+03  0.76607376732E+03  0.00000000000E+00 0.  1.
          3   -1    0    0  501    0  0.00000000000E+00 -0.00000000000E+00 -0.18330473642E+02  0.18330473642E+02  0.00000000000E+00 0. -1.
         23    2    1    2    0    0 -0.17473905972E+02  0.27461695565E+02  0.58591807901E+03  0.59389465378E+03  0.91385898090E+02 0.  0.
         23    2    1    2    0    0  0.17473905972E+02 -0.27461695565E+02  0.16182521467E+03  0.19050958718E+03  0.95115827239E+02 0.  0.
          5    1    4    4  502    0 -0.36367401244E+02 -0.27862297862E+02  0.83273424720E+02  0.95160121795E+02  0.47000000000E+01 0. -1.
         -5    1    3    3    0  503  0.35588395550E+02  0.13480651388E+02  0.32314715505E+03  0.32541425242E+03  0.47000000000E+01 0.  1.
          5    1    3    3  503    0 -0.53062301523E+02  0.13981044177E+02  0.26277092395E+03  0.26848040136E+03  0.47000000000E+01 0. -1.
         -5    1    4    4    0  502  0.53841307216E+02  0.40060229658E+00  0.78551789951E+02  0.95349465387E+02  0.47000000000E+01 0.  1.
<mgrwt>
<rscale>  0 0.99638923E+02</rscale>
<asrwt>0</asrwt>
<pdfrwt beam="1">  1        3 0.28200735E-02 0.10053110E+03</pdfrwt>
<pdfrwt beam="2">  1       -3 0.11785748E+00 0.10053110E+03</pdfrwt>
<totfact> 0.76309288E+02</totfact>
</mgrwt>
</event>
<event>
 8    1  0.7366917E-004  0.1103452E+03  0.7546771E-02  0.1264914E+00
          1   -1    0    0  501    0  0.00000000000E+00  0.00000000000E+00  0.92449981595E+03  0.92449981595E+03  0.00000000000E+00 0. -1.
         -1   -1    0    0    0  501 -0.00000000000E+00 -0.00000000000E+00 -0.13785407849E+02  0.13785407849E+02  0.00000000000E+00 0.  1.
         23    2    1    2    0    0 -0.11264993981E+02  0.44891475541E+02  0.30478846151E+03  0.32414820764E+03  0.10016940440E+03 0.  0.
         23    2    1    2    0    0  0.11264993981E+02 -0.44891475541E+02  0.60592594659E+03  0.61413701616E+03  0.88746139093E+02 0.  0.
          5    1    4    4  502    0  0.42207681196E+02 -0.51994390548E+02  0.37043579328E+03  0.37647001466E+03  0.47000000000E+01 0. -1.
         -5    1    3    3    0  503 -0.87331519192E+00 -0.30929425720E+02  0.12155757167E+03  0.12552181199E+03  0.47000000000E+01 0. -1.
          5    1    3    3  503    0 -0.10391678789E+02  0.75820901261E+02  0.18323088985E+03  0.19862639565E+03  0.47000000000E+01 0.  1.
         -5    1    4    4    0  502 -0.30942687215E+02  0.71029150065E+01  0.23549015332E+03  0.23766700150E+03  0.47000000000E+01 0.  1.
<mgrwt>
<rscale>  0 0.10768686E+03</rscale>
<asrwt>0</asrwt>
<pdfrwt beam="1">  1        1 0.14223069E+00 0.11034516E+03</pdfrwt>
<pdfrwt beam="2">  1       -1 0.21208327E-02 0.11034516E+03</pdfrwt>
<totfact> 0.10903436E+04</totfact>
</mgrwt>
</event>
<event>
 8    1  0.7366917E-004  0.1313392E+03  0.7546771E-02  0.1225691E+00
         -2   -1    0    0    0  501 -0.00000000000E+00  0.00000000000E+00  0.83541105145E+02  0.83541105145E+02  0.00000000000E+00 0.  1.
          2   -1    0    0  501    0  0.00000000000E+00 -0.00000000000E+00 -0.21184955803E+03  0.21184955803E+03  0.00000000000E+00 0. -1.
         23    2    1    2    0    0 -0.91385224987E+02 -0.12703739559E+02 -0.38904977526E+02  0.13698025094E+03  0.93473779891E+02 0.  0.
         23    2    1    2    0    0  0.91385224987E+02  0.12703739559E+02 -0.89403475361E+02  0.15841041223E+03  0.92672719571E+02 0.  0.
          5    1    4    4  502    0  0.62924311916E+02  0.19393407402E+02 -0.10569274401E+03  0.12461388132E+03  0.47000000000E+01 0. -1.
         -5    1    3    3    0  503 -0.77026885365E+02  0.32449081967E+02 -0.23944522225E+02  0.87071890609E+02  0.47000000000E+01 0.  1.
          5    1    3    3  503    0 -0.14358339622E+02 -0.45152821525E+02 -0.14960455301E+02  0.49908360334E+02  0.47000000000E+01 0. -1.
         -5    1    4    4    0  502  0.28460913071E+02 -0.66896678434E+01  0.16289268650E+02  0.33796530915E+02  0.47000000000E+01 0.  1.
<mgrwt>
<rscale>  0 0.13119677E+03</rscale>
<asrwt>0</asrwt>
<pdfrwt beam="1">  1        2 0.32592240E-01 0.13133922E+03</pdfrwt>
<pdfrwt beam="2">  1       -2 0.12852478E-01 0.13133922E+03</pdfrwt>
<totfact> 0.67079897E+03</totfact>
</mgrwt>
</event>
<event>
 8    1  0.7366917E-004  0.1076578E+03  0.7546771E-02  0.1264991E+00
          2   -1    0    0  501    0  0.00000000000E+00  0.00000000000E+00  0.22759652761E+03  0.22759652761E+03  0.00000000000E+00 0. -1.
         -2   -1    0    0    0  501 -0.00000000000E+00 -0.00000000000E+00 -0.62785022351E+02  0.62785022351E+02  0.00000000000E+00 0.  1.
         23    2    1    2    0    0  0.22528997206E+02 -0.53700777728E+02  0.19259036575E+02  0.10936682203E+03  0.90547567756E+02 0.  0.
         23    2    1    2    0    0 -0.22528997206E+02  0.53700777728E+02  0.14555246868E+03  0.18101472793E+03  0.90495753192E+02 0.  0.
          5    1    3    3  502    0  0.10160474635E+02 -0.28033742035E+02  0.55409687118E+02  0.63098727117E+02  0.47000000000E+01 0. -1.
         -5    1    4    4    0  503 -0.20290470414E+02  0.21842408891E+01 -0.52336833965E+01  0.21586003330E+02  0.47000000000E+01 0.  1.
          5    1    4    4  503    0 -0.22385267922E+01  0.51516536839E+02  0.15078615208E+03  0.15942872460E+03  0.47000000000E+01 0. -1.
         -5    1    3    3    0  502  0.12368522571E+02 -0.25667035693E+02 -0.36150650542E+02  0.46268094909E+02  0.47000000000E+01 0.  1.
<mgrwt>
<rscale>  0 0.10764685E+03</rscale>
<asrwt>0</asrwt>
<pdfrwt beam="1">  1        2 0.35014850E-01 0.10765775E+03</pdfrwt>
<pdfrwt beam="2">  1       -2 0.96592343E-02 0.10765775E+03</pdfrwt>
<totfact> 0.96143725E+03</totfact>
</mgrwt>
</event>
<event>
 8    1  0.7366917E-004  0.1070646E+03  0.7546771E-02  0.1267924E+00
          4   -1    0    0  501    0  0.00000000000E+00  0.00000000000E+00  0.78963302308E+02  0.78963302308E+02  0.00000000000E+00 0. -1.
         -4   -1    0    0    0  501 -0.00000000000E+00 -0.00000000000E+00 -0.16378808084E+03  0.16378808084E+03  0.00000000000E+00 0.  1.
         23    2    1    2    0    0 -0.39158938189E+02  0.23928566755E+02  0.30325324350E+01  0.10710751042E+03  0.96730676567E+02 0.  0.
         23    2    1    2    0    0  0.39158938189E+02 -0.23928566755E+02 -0.87857310965E+02  0.13564387272E+03  0.92597809746E+02 0.  0.
          5    1    4    4  502    0  0.66235937960E+02 -0.25617131851E+00 -0.49271781302E+02  0.82686537803E+02  0.47000000000E+01 0. -1.
         -5    1    3    3    0  503 -0.45015101979E+01 -0.35230627037E+02 -0.99167524706E+01  0.37173816794E+02  0.47000000000E+01 0.  1.
          5    1    3    3  503    0 -0.34657427992E+02  0.59159193792E+02  0.12949284906E+02  0.69933693629E+02  0.47000000000E+01 0. -1.
         -5    1    4    4    0  502 -0.27076999771E+02 -0.23672395436E+02 -0.38585529663E+02  0.52957334918E+02  0.47000000000E+01 0.  1.
<mgrwt>
<rscale>  0 0.10612252E+03</rscale>
<asrwt>0</asrwt>
<pdfrwt beam="1">  1        4 0.12148200E-01 0.10706457E+03</pdfrwt>
<pdfrwt beam="2">  1       -4 0.25198166E-01 0.10706457E+03</pdfrwt>
<totfact> 0.12546552E+03</totfact>
</mgrwt>
</event>
<event>
 8    1  0.7366917E-004  0.2015244E+03  0.7546771E-02  0.1148706E+00
         -1   -1    0    0    0  501 -0.00000000000E+00  0.00000000000E+00  0.73067777139E+02  0.73067777139E+02  0.00000000000E+00 0.  1.
          1   -1    0    0  501    0  0.00000000000E+00 -0.00000000000E+00 -0.55271154120E+03  0.55271154120E+03  0.00000000000E+00 0. -1.
         23    2    1    2    0    0 -0.12661413330E+03  0.12556423155E+03 -0.24406641577E+03  0.31576515628E+03  0.91332927343E+02 0.  0.
         23    2    1    2    0    0  0.12661413330E+03 -0.12556423155E+03 -0.23557734829E+03  0.31001416206E+03  0.93885987516E+02 0.  0.
          5    1    3    3  502    0 -0.54145749531E+02  0.11267232429E+03 -0.13445543403E+03  0.18364958098E+03  0.47000000000E+01 0. -1.
         -5    1    3    3    0  502 -0.72468383770E+02  0.12891907260E+02 -0.10961098174E+03  0.13211557530E+03  0.47000000000E+01 0.  1.
          5    1    4    4  503    0  0.77530251202E+02 -0.83135089919E+02 -0.21240978871E+03  0.24096138979E+03  0.47000000000E+01 0. -1.
         -5    1    4    4    0  503  0.49083882099E+02 -0.42429141634E+02 -0.23167559581E+02  0.69052772274E+02  0.47000000000E+01 0.  1.
<mgrwt>
<rscale>  0 0.20122961E+03</rscale>
<asrwt>0</asrwt>
<pdfrwt beam="1">  1        1 0.85032546E-01 0.20152442E+03</pdfrwt>
<pdfrwt beam="2">  1       -1 0.11241196E-01 0.20152442E+03</pdfrwt>
<totfact> 0.19867019E+03</totfact>
</mgrwt>
</event>
<event>
 8    1  0.7366917E-004  0.1428384E+03  0.7546771E-02  0.1210152E+00
         -2   -1    0    0    0  501 -0.00000000000E+00  0.00000000000E+00  0.26268734253E+02  0.26268734253E+02  0.00000000000E+00 0.  1.
          2   -1    0    0  501    0  0.00000000000E+00 -0.00000000000E+00 -0.76825204573E+03  0.76825204573E+03  0.00000000000E+00 0. -1.
         23    2    1    2    0    0 -0.10628382424E+03 -0.25213881279E+02 -0.38956681071E+03  0.41492782181E+03  0.92036982777E+02 0.  0.
         23    2    1    2    0    0  0.10628382424E+03  0.25213881279E+02 -0.35241650077E+03  0.37959295818E+03  0.89226861316E+02 0.  0.
          5    1    4    4  502    0  0.52613349426E+02  0.45257303630E+02 -0.27193786174E+03  0.28069321103E+03  0.47000000000E+01 0. -1.
         -5    1    3    3    0  503 -0.64681740859E+02 -0.59861899505E+02 -0.25256125583E+03  0.26753775913E+03  0.47000000000E+01 0.  1.
          5    1    3    3  503    0 -0.41602083380E+02  0.34648018225E+02 -0.13700555488E+03  0.14739006268E+03  0.47000000000E+01 0. -1.
         -5    1    4    4    0  502  0.53670474814E+02 -0.20043422350E+02 -0.80478639021E+02  0.98899747143E+02  0.47000000000E+01 0.  1.
<mgrwt>
<rscale>  0 0.14238765E+03</rscale>
<asrwt>0</asrwt>
<pdfrwt beam="1">  1        2 0.11819262E+00 0.14283836E+03</pdfrwt>
<pdfrwt beam="2">  1       -2 0.40413438E-02 0.14283836E+03</pdfrwt>
<totfact> 0.97312614E+03</totfact>
</mgrwt>
</event>
<event>
 8    1  0.1067559E-003  0.1204056E+03  0.7546771E-02  0.1243038E+00
          1   -1    0    0  501    0  0.00000000000E+00  0.00000000000E+00  0.11186103483E+03  0.11186103483E+03  0.00000000000E+00 0. -1.
         -1   -1    0    0    0  501 -0.00000000000E+00 -0.00000000000E+00 -0.10443227763E+04  0.10443227763E+04  0.00000000000E+00 0.  1.
         23    2    1    2    0    0  0.46017905273E+02 -0.61680512520E+02  0.75619124022E+02  0.14093776732E+03  0.90681139766E+02 0.  0.
         23    2    1    2    0    0 -0.46017905273E+02  0.61680512520E+02 -0.10080808655E+04  0.10152460438E+04  0.92603265969E+02 0.  0.
          5    1    3    3  502    0  0.27237096647E+00 -0.70937110351E+02  0.36818220054E+02  0.80061346097E+02  0.47000000000E+01 0. -1.
         -5    1    4    4    0  503  0.71464962775E+01  0.66274464888E+02 -0.55230828146E+03  0.55633614378E+03  0.47000000000E+01 0.  1.
          5    1    4    4  503    0 -0.53164401550E+02 -0.45939523684E+01 -0.45577258401E+03  0.45890990001E+03  0.47000000000E+01 0. -1.
         -5    1    3    3    0  502  0.45745534306E+02  0.92565978311E+01  0.38800903968E+02  0.60876421224E+02  0.47000000000E+01 0.  1.
<mgrwt>
<rscale>  0 0.12003587E+03</rscale>
<asrwt>0</asrwt>
<pdfrwt beam="1">  1        1 0.17209390E-01 0.12040556E+03</pdfrwt>
<pdfrwt beam="2">  1       -1 0.16066504E+00 0.12040556E+03</pdfrwt>
<totfact> 0.10107919E+02</totfact>
</mgrwt>
</event>
<event>
 7    1  0.7366917E-004  0.1470334E+03  0.7546771E-02  0.1219935E+00
          1   -1    0    0  501    0  0.00000000000E+00  0.00000000000E+00  0.16506027480E+03  0.16506027480E+03  0.00000000000E+00 0. -1.
         -1   -1    0    0    0  501 -0.00000000000E+00 -0.00000000000E+00 -0.21284836091E+03  0.21284836091E+03  0.00000000000E+00 0.  1.
         23    2    1    2    0    0  0.45115865262E+02  0.18755249867E+02  0.11684826526E+03  0.15717361596E+03  0.93074313134E+02 0.  0.
          5    1    3    3  502    0  0.28844202451E+02 -0.24917643477E+02  0.10045446241E+03  0.10754564607E+03  0.47000000000E+01 0. -1.
         -5    1    3    3    0  502  0.16271662811E+02  0.43672893344E+02  0.16393802851E+02  0.49627969892E+02  0.47000000000E+01 0.  1.
          5    1    1    2  503    0  0.25382693433E+02 -0.55662710497E+02 -0.10332496416E+03  0.12016969953E+03  0.47000000000E+01 0. -1.
         -5    1    1    2    0  503 -0.70498558694E+02  0.36907460629E+02 -0.61311387213E+02  0.10056532022E+03  0.47000000000E+01 0.  1.
<mgrwt>
<rscale>  0 0.13520178E+03</rscale>
<asrwt>0</asrwt>
<pdfrwt beam="1">  1        1 0.25393888E-01 0.14703340E+03</pdfrwt>
<pdfrwt beam="2">  1       -1 0.32745902E-01 0.14703340E+03</pdfrwt>
<totfact> 0.16179100E+03</totfact>
</mgrwt>
</event>
<event>
 8    1  0.7366917E-004  0.1331252E+03  0.7546771E-02  0.1223327E+00
         -1   -1    0    0    0  501 -0.00000000000E+00  0.00000000000E+00  0.41537662211E+02  0.41537662211E+02  0.00000000000E+00 0.  1.
          1   -1    0    0  501    0  0.00000000000E+00 -0.00000000000E+00 -0.47532953925E+03  0.47532953925E+03  0.00000000000E+00 0. -1.
         23    2    1    2    0    0 -0.61341161903E+02 -0.72698620969E+02 -0.13185893345E+03  0.18737421840E+03  0.93136951613E+02 0.  0.
         23    2    1    2    0    0  0.61341161903E+02  0.72698620969E+02 -0.30193294358E+03  0.32949298306E+03  0.91401837114E+02 0.  0.
          5    1    4    4  502    0  0.68889129193E+02  0.18503207741E+02 -0.21588248419E+03  0.22741024119E+03  0.47000000000E+01 0. -1.
         -5    1    4    4    0  502 -0.75479672897E+01  0.54195413228E+02 -0.86050459392E+02  0.10208274187E+03  0.47000000000E+01 0.  1.
          5    1    3    3  503    0 -0.19359701182E+02 -0.85070610930E+02 -0.10137432890E+03  0.13383068196E+03  0.47000000000E+01 0. -1.
         -5    1    3    3    0  503 -0.41981460721E+02  0.12371989961E+02 -0.30484604547E+02  0.53543536437E+02  0.47000000000E+01 0.  1.
<mgrwt>
<rscale>  0 0.13282215E+03</rscale>
<asrwt>0</asrwt>
<pdfrwt beam="1">  1        1 0.73127623E-01 0.13312520E+03</pdfrwt>
<pdfrwt beam="2">  1       -1 0.63904094E-02 0.13312520E+03</pdfrwt>
<totfact> 0.56335752E+03</totfact>
</mgrwt>
</event>
<event>
 8    1  0.7366917E-004  0.9245198E+02  0.7546771E-02  0.1298639E+00
          2   -1    0    0  501    0  0.00000000000E+00  0.00000000000E+00  0.38929271444E+03  0.38929271444E+03  0.00000000000E+00 0. -1.
         -2   -1    0    0    0  501 -0.00000000000E+00 -0.00000000000E+00 -0.21329823609E+02  0.21329823609E+02  0.00000000000E+00 0.  1.
         23    2    1    2    0    0  0.16900526667E+02  0.12256474906E+02  0.18097617897E+03  0.20322338757E+03  0.90063971289E+02 0.  0.
         23    2    1    2    0    0 -0.16900526667E+02 -0.12256474906E+02  0.18698671186E+03  0.20739915048E+03  0.87261264175E+02 0.  0.
          5    1    4    4  502    0  0.14396365676E+02  0.29201277699E+02  0.42209478593E+02  0.53513550126E+02  0.47000000000E+01 0. -1.
         -5    1    3    3    0  503  0.39191580064E+02 -0.12000164602E+02  0.15667981698E+03  0.16202048928E+03  0.47000000000E+01 0.  1.
          5    1    3    3  503    0 -0.22291053396E+02  0.24256639509E+02  0.24296361988E+02  0.41202898292E+02  0.47000000000E+01 0. -1.
         -5    1    4    4    0  502 -0.31296892344E+02 -0.41457752605E+02  0.14477723327E+03  0.15388560035E+03  0.47000000000E+01 0.  1.
<mgrwt>
<rscale>  0 0.91762276E+02</rscale>
<asrwt>0</asrwt>
<pdfrwt beam="1">  1        2 0.59891181E-01 0.92451976E+02</pdfrwt>
<pdfrwt beam="2">  1       -2 0.32815116E-02 0.92451976E+02</pdfrwt>
<totfact> 0.27266775E+04</totfact>
</mgrwt>
</event>
<event>
 8    1  0.7366917E-004  0.9377525E+02  0.7546771E-02  0.1295993E+00
          1   -1    0    0  501    0  0.00000000000E+00  0.00000000000E+00  0.40128031230E+03  0.40128031230E+03  0.00000000000E+00 0. -1.
         -1   -1    0    0    0  501 -0.00000000000E+00 -0.00000000000E+00 -0.22414508018E+02  0.22414508018E+02  0.00000000000E+00 0.  1.
         23    2    1    2    0    0 -0.95759795150E+00  0.49134770697E+01  0.14168629094E+03  0.16990821976E+03  0.93641544457E+02 0.  0.
         23    2    1    2    0    0  0.95759795150E+00 -0.49134770697E+01  0.23717951334E+03  0.25378660057E+03  0.90157960422E+02 0.  0.
          5    1    4    4  502    0  0.41710615410E+02  0.92995622709E+01  0.15489613536E+03  0.16075185861E+03  0.47000000000E+01 0. -1.
         -5    1    4    4    0  502 -0.40753017458E+02 -0.14213039341E+02  0.82283377976E+02  0.93034741953E+02  0.47000000000E+01 0.  1.
          5    1    3    3  503    0  0.20498648383E+02  0.13446188981E+02  0.14407680840E+03  0.14622315583E+03  0.47000000000E+01 0. -1.
         -5    1    3    3    0  503 -0.21456246335E+02 -0.85327119116E+01 -0.23905174533E+01  0.23685063923E+02  0.47000000000E+01 0.  1.
<mgrwt>
<rscale>  0 0.92893282E+02</rscale>
<asrwt>0</asrwt>
<pdfrwt beam="1">  1        1 0.61735428E-01 0.93775253E+02</pdfrwt>
<pdfrwt beam="2">  1       -1 0.34483861E-02 0.93775253E+02</pdfrwt>
<totfact> 0.16818686E+04</totfact>
</mgrwt>
</event>
<event>
 8    1  0.7366917E-004  0.9710337E+02  0.7546771E-02  0.1289249E+00
          1   -1    0    0  501    0  0.00000000000E+00  0.00000000000E+00  0.32641334624E+03  0.32641334624E+03  0.00000000000E+00 0. -1.
         -1   -1    0    0    0  501 -0.00000000000E+00 -0.00000000000E+00 -0.29443260291E+02  0.29443260291E+02  0.00000000000E+00 0.  1.
         23    2    1    2    0    0 -0.31865407188E+02 -0.12104044415E+02  0.10582292788E+03  0.14362296517E+03  0.90923880212E+02 0.  0.
         23    2    1    2    0    0  0.31865407188E+02  0.12104044415E+02  0.19114715807E+03  0.21223364136E+03  0.85696968562E+02 0.  0.
          5    1    4    4  502    0 -0.10433042439E+02  0.18341183593E+02  0.15367188834E+03  0.15518500784E+03  0.47000000000E+01 0. -1.
         -5    1    3    3    0  503  0.16335814019E+02 -0.22848658651E+02  0.19892196918E+01  0.28547627165E+02  0.47000000000E+01 0.  1.
          5    1    3    3  503    0 -0.48201221207E+02  0.10744614236E+02  0.10383370819E+03  0.11507533800E+03  0.47000000000E+01 0. -1.
         -5    1    4    4    0  502  0.42298449627E+02 -0.62371391778E+01  0.37475269726E+02  0.57048633524E+02  0.47000000000E+01 0.  1.
<mgrwt>
<rscale>  0 0.95860710E+02</rscale>
<asrwt>0</asrwt>
<pdfrwt beam="1">  1        1 0.50217435E-01 0.97103368E+02</pdfrwt>
<pdfrwt beam="2">  1       -1 0.45297326E-02 0.97103368E+02</pdfrwt>
<totfact> 0.14648675E+04</totfact>
</mgrwt>
</event>
<event>
 8    1  0.7366917E-004  0.1016100E+03  0.7546771E-02  0.1280088E+00
          1   -1    0    0  501    0  0.00000000000E+00  0.00000000000E+00  0.40559837158E+03  0.40559837158E+03  0.00000000000E+00 0. -1.
         -1   -1    0    0    0  501 -0.00000000000E+00 -0.00000000000E+00 -0.70228619832E+02  0.70228619832E+02  0.00000000000E+00 0.  1.
         23    2    1    2    0    0  0.25066738829E+02  0.17186861719E+02 -0.23604065980E+02  0.10431557357E+03  0.96958018476E+02 0.  0.
         23    2    1    2    0    0 -0.25066738829E+02 -0.17186861719E+02  0.35897381773E+03  0.37151141784E+03  0.90745810720E+02 0.  0.
          5    1    3    3  502    0 -0.88441710613E+01  0.31375005773E+02  0.26306436736E+02  0.42151262885E+02  0.47000000000E+01 0. -1.
         -5    1    3    3    0  502  0.33910909890E+02 -0.14188144055E+02 -0.49910502716E+02  0.62164310683E+02  0.47000000000E+01 0.  1.
          5    1    4    4  503    0  0.13923639499E+02 -0.35851954305E+02  0.26676692473E+03  0.26956615606E+03  0.47000000000E+01 0. -1.
         -5    1    4    4    0  503 -0.38990378328E+02  0.18665092586E+02  0.92206892997E+02  0.10194526178E+03  0.47000000000E+01 0.  1.
<mgrwt>
<rscale>  0 0.10009917E+03</rscale>
<asrwt>0</asrwt>
<pdfrwt beam="1">  1        1 0.62399748E-01 0.10160997E+03</pdfrwt>
<pdfrwt beam="2">  1       -1 0.10804403E-01 0.10160997E+03</pdfrwt>
<totfact> 0.30805426E+03</totfact>
</mgrwt>
</event>
<event>
 8    1  0.7366917E-004  0.9950910E+02  0.7546771E-02  0.1284058E+00
          1   -1    0    0  501    0  0.00000000000E+00  0.00000000000E+00  0.13223211201E+03  0.13223211201E+03  0.00000000000E+00 0. -1.
         -1   -1    0    0    0  501 -0.00000000000E+00 -0.00000000000E+00 -0.71160896415E+02  0.71160896415E+02  0.00000000000E+00 0.  1.
         23    2    1    2    0    0  0.28190192891E+02 -0.51659412162E+01  0.31551220659E+02  0.10439128495E+03  0.95292638355E+02 0.  0.
         23    2    1    2    0    0 -0.28190192891E+02  0.51659412162E+01  0.29519994940E+02  0.99001723478E+02  0.90047416546E+02 0.  0.
          5    1    4    4  502    0  0.20863407526E+02 -0.11219989524E+02  0.39329053124E+02  0.46152295264E+02  0.47000000000E+01 0. -1.
         -5    1    4    4    0  502 -0.49053600418E+02  0.16385930740E+02 -0.98090581835E+01  0.52849428214E+02  0.47000000000E+01 0.  1.
          5    1    3    3  503    0  0.24609593273E+02 -0.47479064058E+02  0.30309884231E+02  0.61649596000E+02  0.47000000000E+01 0. -1.
         -5    1    3    3    0  503  0.35805996179E+01  0.42313122841E+02  0.12413364285E+01  0.42741688951E+02  0.47000000000E+01 0.  1.
<mgrwt>
<rscale>  0 0.98232001E+02</rscale>
<asrwt>0</asrwt>
<pdfrwt beam="1">  1        1 0.20343402E-01 0.99509099E+02</pdfrwt>
<pdfrwt beam="2">  1       -1 0.10947830E-01 0.99509099E+02</pdfrwt>
<totfact> 0.12032696E+04</totfact>
</mgrwt>
</event>
<event>
 8    1  0.7366917E-004  0.1511044E+03  0.7546771E-02  0.1199995E+00
          1   -1    0    0  501    0  0.00000000000E+00  0.00000000000E+00  0.85210410178E+02  0.85210410178E+02  0.00000000000E+00 0. -1.
         -1   -1    0    0    0  501 -0.00000000000E+00 -0.00000000000E+00 -0.32360508847E+03  0.32360508847E+03  0.00000000000E+00 0.  1.
         23    2    1    2    0    0  0.72786277946E+02  0.96174420792E+02 -0.20861056360E+03  0.25758668478E+03  0.91022917213E+02 0.  0.
         23    2    1    2    0    0 -0.72786277946E+02 -0.96174420792E+02 -0.29784114693E+02  0.15122881387E+03  0.86230500313E+02 0.  0.
          5    1    3    3  502    0 -0.11646736327E+02  0.34588929750E+02 -0.19938063773E+02  0.41852800567E+02  0.47000000000E+01 0. -1.
         -5    1    3    3    0  502  0.84433014273E+02  0.61585491043E+02 -0.18867249982E+03  0.21573388421E+03  0.47000000000E+01 0.  1.
          5    1    4    4  503    0 -0.74169264413E+02 -0.69039715076E+02  0.10963399286E+02  0.10202866345E+03  0.47000000000E+01 0. -1.
         -5    1    4    4    0  503  0.13829864668E+01 -0.27134705716E+02 -0.40747513979E+02  0.49200150420E+02  0.47000000000E+01 0.  1.
<mgrwt>
<rscale>  0 0.15038995E+03</rscale>
<asrwt>0</asrwt>
<pdfrwt beam="1">  1        1 0.13109294E-01 0.15110438E+03</pdfrwt>
<pdfrwt beam="2">  1       -1 0.49785398E-01 0.15110438E+03</pdfrwt>
<totfact> 0.18073773E+03</totfact>
</mgrwt>
</event>
<event>
 8    1  0.7366917E-004  0.1343589E+03  0.7546771E-02  0.1222781E+00
         -1   -1    0    0    0  501 -0.00000000000E+00  0.00000000000E+00  0.19667769310E+03  0.19667769310E+03  0.00000000000E+00 0.  1.
          1   -1    0    0  501    0  0.00000000000E+00 -0.00000000000E+00 -0.43680710772E+03  0.43680710772E+03  0.00000000000E+00 0. -1.
         23    2    1    2    0    0 -0.97776309792E+02 -0.74320854773E+01  0.16226857631E+03  0.21067367679E+03  0.91852406520E+02 0.  0.
         23    2    1    2    0    0  0.97776309792E+02  0.74320854773E+01 -0.40239799093E+03  0.42281112404E+03  0.85027412391E+02 0.  0.
          5    1    4    4  502    0  0.55470699285E+02  0.24999939893E+02 -0.33903058042E+03  0.34447905587E+03  0.47000000000E+01 0. -1.
         -5    1    4    4    0  502  0.42305610506E+02 -0.17567854415E+02 -0.63367410505E+02  0.78332068166E+02  0.47000000000E+01 0.  1.
          5    1    3    3  503    0 -0.66657053286E+02 -0.28061085252E+02  0.40075301219E+02  0.82817311150E+02  0.47000000000E+01 0. -1.
         -5    1    3    3    0  503 -0.31119256505E+02  0.20628999775E+02  0.12219327509E+03  0.12785636564E+03  0.47000000000E+01 0.  1.
<mgrwt>
<rscale>  0 0.13320146E+03</rscale>
<asrwt>0</asrwt>
<pdfrwt beam="1">  1        1 0.67201093E-01 0.13435887E+03</pdfrwt>
<pdfrwt beam="2">  1       -1 0.30258107E-01 0.13435887E+03</pdfrwt>
<totfact> 0.54902864E+02</totfact>
</mgrwt>
</event>
<event>
 8    1  0.7366917E-004  0.9607661E+02  0.7546771E-02  0.1290278E+00
          1   -1    0    0  501    0  0.00000000000E+00  0.00000000000E+00  0.10032045920E+03  0.10032045920E+03  0.00000000000E+00 0. -1.
         -1   -1    0    0    0  501 -0.00000000000E+00 -0.00000000000E+00 -0.11386869496E+03  0.11386869496E+03  0.00000000000E+00 0.  1.
         23    2    1    2    0    0  0.21671195689E+02  0.18710370990E+02  0.42724983529E+02  0.10514817420E+03  0.91711480276E+02 0.  0.
         23    2    1    2    0    0 -0.21671195689E+02 -0.18710370990E+02 -0.56273219284E+02  0.10904097997E+03  0.88901863863E+02 0.  0.
          5    1    4    4  502    0  0.26072984426E+02  0.15611745859E+02 -0.55589069404E+01  0.31249297144E+02  0.47000000000E+01 0. -1.
         -5    1    4    4    0  502 -0.47744180114E+02 -0.34322116849E+02 -0.50714312344E+02  0.77791682822E+02  0.47000000000E+01 0.  1.
          5    1    3    3  503    0 -0.20865736838E+02  0.12670931549E+02 -0.17943389209E+02  0.30659202475E+02  0.47000000000E+01 0. -1.
         -5    1    3    3    0  503  0.42536932527E+02  0.60394394407E+01  0.60668372738E+02  0.74488971723E+02  0.47000000000E+01 0.  1.
<mgrwt>
<rscale>  0 0.95399938E+02</rscale>
<asrwt>0</asrwt>
<pdfrwt beam="1">  1        1 0.15433917E-01 0.96076607E+02</pdfrwt>
<pdfrwt beam="2">  1       -1 0.17518261E-01 0.96076607E+02</pdfrwt>
<totfact> 0.82346059E+03</totfact>
</mgrwt>
</event>
<event>
 8    1  0.7366917E-004  0.1052941E+03  0.7546771E-02  0.1270438E+00
          2   -1    0    0  501    0  0.00000000000E+00  0.00000000000E+00  0.29489024346E+03  0.29489024346E+03  0.00000000000E+00 0. -1.
         -2   -1    0    0    0  501 -0.00000000000E+00 -0.00000000000E+00 -0.38313124502E+02  0.38313124502E+02  0.00000000000E+00 0.  1.
         23    2    1    2    0    0  0.14864358143E+02  0.43409074804E+02  0.15860778755E+03  0.18938110801E+03  0.92754929148E+02 0.  0.
         23    2    1    2    0    0 -0.14864358143E+02 -0.43409074804E+02  0.97969331403E+02  0.14382225995E+03  0.94771069650E+02 0.  0.
          5    1    3    3  502    0 -0.20375745007E+02  0.49720992665E+02  0.45232383530E+02  0.70394649058E+02  0.47000000000E+01 0. -1.
         -5    1    3    3    0  502  0.35240103150E+02 -0.63119178610E+01  0.11337540403E+03  0.11898645896E+03  0.47000000000E+01 0.  1.
          5    1    4    4  503    0 -0.43027883714E+02 -0.99756758381E+00  0.77452184820E+02  0.88731757852E+02  0.47000000000E+01 0. -1.
         -5    1    4    4    0  503  0.28163525572E+02 -0.42411507220E+02  0.20517146583E+02  0.55090502096E+02  0.47000000000E+01 0.  1.
<mgrwt>
<rscale>  0 0.10483844E+03</rscale>
<asrwt>0</asrwt>
<pdfrwt beam="1">  1        2 0.45367728E-01 0.10529412E+03</pdfrwt>
<pdfrwt beam="2">  1       -2 0.58943270E-02 0.10529412E+03</pdfrwt>
<totfact> 0.15538648E+04</totfact>
</mgrwt>
</event>
<event>
 8    1  0.7366917E-004  0.1219428E+03  0.7546771E-02  0.1240128E+00
         -1   -1    0    0    0  501 -0.00000000000E+00  0.00000000000E+00  0.10161291342E+03  0.10161291342E+03  0.00000000000E+00 0.  1.
          1   -1    0    0  501    0  0.00000000000E+00 -0.00000000000E+00 -0.14966831615E+03  0.14966831615E+03  0.00000000000E+00 0. -1.
         23    2    1    2    0    0 -0.61222946957E+02 -0.54636104269E+02 -0.37233652614E+01  0.12199964562E+03  0.90203641599E+02 0.  0.
         23    2    1    2    0    0  0.61222946957E+02  0.54636104269E+02 -0.44332037465E+02  0.12928158396E+03  0.89526785276E+02 0.  0.
          5    1    3    3  502    0 -0.31754553868E+02 -0.77606661594E+02  0.13969953365E+01  0.83995161831E+02  0.47000000000E+01 0. -1.
         -5    1    4    4    0  503  0.20664453479E+02  0.54386154659E+01  0.26168040357E+02  0.34109449012E+02  0.47000000000E+01 0.  1.
          5    1    4    4  503    0  0.40558493478E+02  0.49197488803E+02 -0.70500077822E+02  0.95172134949E+02  0.47000000000E+01 0. -1.
         -5    1    3    3    0  502 -0.29468393089E+02  0.22970557325E+02 -0.51203605978E+01  0.38004483784E+02  0.47000000000E+01 0.  1.
<mgrwt>
<rscale>  0 0.12181766E+03</rscale>
<asrwt>0</asrwt>
<pdfrwt beam="1">  1        1 0.23025895E-01 0.12194281E+03</pdfrwt>
<pdfrwt beam="2">  1       -1 0.15632756E-01 0.12194281E+03</pdfrwt>
<totfact> 0.60415592E+03</totfact>
</mgrwt>
</event>
<event>
 8    1  0.7366917E-004  0.1210104E+03  0.7546771E-02  0.1246357E+00
          1   -1    0    0  501    0  0.00000000000E+00  0.00000000000E+00  0.51347721656E+02  0.51347721656E+02  0.00000000000E+00 0. -1.
         -1   -1    0    0    0  501 -0.00000000000E+00 -0.00000000000E+00 -0.43583289599E+03  0.43583289599E+03  0.00000000000E+00 0.  1.
         23    2    1    2    0    0 -0.57533777530E+02 -0.29410441934E+02 -0.35300299215E+03  0.37316837191E+03  0.10231525632E+03 0.  0.
         23    2    1    2    0    0  0.57533777530E+02  0.29410441934E+02 -0.31482182188E+02  0.11401224574E+03  0.88501721633E+02 0.  0.
          5    1    4    4  502    0  0.78522637013E+02  0.27301519618E+02 -0.10561696497E+02  0.83933407710E+02  0.47000000000E+01 0. -1.
         -5    1    3    3    0  503 -0.58458596427E+02 -0.33417431636E+00 -0.33160324828E+03  0.33674964505E+03  0.47000000000E+01 0.  1.
          5    1    3    3  503    0  0.92481889687E+00 -0.29076267617E+02 -0.21399743867E+02  0.36418726860E+02  0.47000000000E+01 0. -1.
         -5    1    4    4    0  502 -0.20988859483E+02  0.21089223157E+01 -0.20920485691E+02  0.30078838031E+02  0.47000000000E+01 0.  1.
<mgrwt>
<rscale>  0 0.11804549E+03</rscale>
<asrwt>0</asrwt>
<pdfrwt beam="1">  1        1 0.78996496E-02 0.12101042E+03</pdfrwt>
<pdfrwt beam="2">  1       -1 0.67051214E-01 0.12101042E+03</pdfrwt>
<totfact> 0.19983210E+03</totfact>
</mgrwt>
</event>
<event>
 8    1  0.7366917E-004  0.1031826E+03  0.7546771E-02  0.1273919E+00
          3   -1    0    0  501    0  0.00000000000E+00  0.00000000000E+00  0.74753348563E+02  0.74753348563E+02  0.00000000000E+00 0. -1.
         -3   -1    0    0    0  501 -0.00000000000E+00 -0.00000000000E+00 -0.26803806111E+03  0.26803806111E+03  0.00000000000E+00 0.  1.
         23    2    1    2    0    0 -0.24123911178E+02  0.42068074895E+02 -0.21411406736E+03  0.23752744274E+03  0.90679469555E+02 0.  0.
         23    2    1    2    0    0  0.24123911178E+02 -0.42068074895E+02  0.20829354818E+02  0.10526396692E+03  0.91076641872E+02 0.  0.
          5    1    3    3  502    0  0.27746141789E+02 -0.93127693232E+01 -0.59229301104E+02  0.66232742401E+02  0.47000000000E+01 0. -1.
         -5    1    4    4    0  503  0.28793564226E+02 -0.18476095604E+02 -0.31967286203E+02  0.47057760644E+02  0.47000000000E+01 0.  1.
          5    1    4    4  503    0 -0.46696530486E+01 -0.23591979291E+02  0.52796641021E+02  0.58206206281E+02  0.47000000000E+01 0. -1.
         -5    1    3    3    0  502 -0.51870052967E+02  0.51380844218E+02 -0.15488476626E+03  0.17129470034E+03  0.47000000000E+01 0.  1.
<mgrwt>
<rscale>  0 0.10309485E+03</rscale>
<asrwt>0</asrwt>
<pdfrwt beam="1">  1        3 0.11500515E-01 0.10318256E+03</pdfrwt>
<pdfrwt beam="2">  1       -3 0.41236625E-01 0.10318256E+03</pdfrwt>
<totfact> 0.75527040E+02</totfact>
</mgrwt>
</event>
<event>
 8    1  0.7366917E-004  0.1132939E+03  0.7546771E-02  0.1255931E+00
         -2   -1    0    0    0  501 -0.00000000000E+00  0.00000000000E+00  0.48298730330E+02  0.48298730330E+02  0.00000000000E+00 0.  1.
          2   -1    0    0  501    0  0.00000000000E+00 -0.00000000000E+00 -0.28277083356E+03  0.28277083356E+03  0.00000000000E+00 0. -1.
         23    2    1    2    0    0 -0.62595507789E+02 -0.12454535592E+02 -0.16682959258E+03  0.20166214587E+03  0.93606597323E+02 0.  0.
         23    2    1    2    0    0  0.62595507789E+02  0.12454535592E+02 -0.67642510650E+02  0.12940741802E+03  0.89985874116E+02 0.  0.
          5    1    4    4  502    0  0.31685157469E+02 -0.90102249815E+01  0.16479239889E+02  0.37132044185E+02  0.47000000000E+01 0.  1.
         -5    1    3    3    0  503  0.19268194317E+02 -0.23052351570E+02 -0.50357305140E+02  0.58827055052E+02  0.47000000000E+01 0.  1.
          5    1    3    3  503    0 -0.81863702106E+02  0.10597815978E+02 -0.11647228744E+03  0.14283509081E+03  0.47000000000E+01 0. -1.
         -5    1    4    4    0  502  0.30910350320E+02  0.21464760574E+02 -0.84121750539E+02  0.92275373839E+02  0.47000000000E+01 0. -1.
<mgrwt>
<rscale>  0 0.11254330E+03</rscale>
<asrwt>0</asrwt>
<pdfrwt beam="1">  1        2 0.43503205E-01 0.11329390E+03</pdfrwt>
<pdfrwt beam="2">  1       -2 0.74305739E-02 0.11329390E+03</pdfrwt>
<totfact> 0.11503533E+04</totfact>
</mgrwt>
</event>
<event>
 8    1  0.7366917E-004  0.1217849E+03  0.7546771E-02  0.1242976E+00
         -2   -1    0    0    0  501 -0.00000000000E+00  0.00000000000E+00  0.14275354938E+02  0.14275354938E+02  0.00000000000E+00 0.  1.
          2   -1    0    0  501    0  0.00000000000E+00 -0.00000000000E+00 -0.10938430162E+04  0.10938430162E+04  0.00000000000E+00 0. -1.
         23    2    1    2    0    0 -0.77669529451E+02 -0.19350697967E+02 -0.70271471892E+03  0.71207581220E+03  0.82686037601E+02 0.  0.
         23    2    1    2    0    0  0.77669529451E+02  0.19350697967E+02 -0.37685294238E+03  0.39604255898E+03  0.91785418365E+02 0.  0.
          5    1    4    4  502    0  0.23073084958E+02  0.18879857000E+02 -0.30075915241E+03  0.30226970409E+03  0.47000000000E+01 0. -1.
         -5    1    3    3    0  503 -0.12577946111E+02  0.29366498847E+02 -0.25227724756E+03  0.25433539986E+03  0.47000000000E+01 0.  1.
          5    1    3    3  503    0 -0.65091583340E+02 -0.48717196814E+02 -0.45043747136E+03  0.45774041234E+03  0.47000000000E+01 0. -1.
         -5    1    4    4    0  502  0.54596444493E+02  0.47084096733E+00 -0.76093789967E+02  0.93772854889E+02  0.47000000000E+01 0.  1.
<mgrwt>
<rscale>  0 0.12007359E+03</rscale>
<asrwt>0</asrwt>
<pdfrwt beam="1">  1        2 0.16828364E+00 0.12178493E+03</pdfrwt>
<pdfrwt beam="2">  1       -2 0.21962071E-02 0.12178493E+03</pdfrwt>
<totfact> 0.14792639E+04</totfact>
</mgrwt>
</event>
<event>
 8    1  0.7366917E-004  0.9143080E+02  0.7546771E-02  0.1300010E+00
         -1   -1    0    0    0  501 -0.00000000000E+00  0.00000000000E+00  0.25473389323E+03  0.25473389323E+03  0.00000000000E+00 0.  1.
          1   -1    0    0  501    0  0.00000000000E+00 -0.00000000000E+00 -0.35242128781E+02  0.35242128781E+02  0.00000000000E+00 0. -1.
         23    2    1    2    0    0  0.34598253650E+01 -0.81340338389E+01  0.69589446326E+02  0.11490118103E+03  0.91002513500E+02 0.  0.
         23    2    1    2    0    0 -0.34598253650E+01  0.81340338389E+01  0.14990231812E+03  0.17507484098E+03  0.90013121648E+02 0.  0.
          5    1    4    4  502    0  0.20128366854E+02 -0.14456845669E+02  0.40628327003E+01  0.25548936347E+02  0.47000000000E+01 0. -1.
         -5    1    4    4    0  502 -0.23588192219E+02  0.22590879508E+02  0.14583948542E+03  0.14952590464E+03  0.47000000000E+01 0.  1.
          5    1    3    3  503    0  0.31870349596E+02 -0.36646543505E+02  0.50099306004E+02  0.69933674266E+02  0.47000000000E+01 0. -1.
         -5    1    3    3    0  503 -0.28410524231E+02  0.28512509666E+02  0.19490140322E+02  0.44967506761E+02  0.47000000000E+01 0.  1.
<mgrwt>
<rscale>  0 0.91183618E+02</rscale>
<asrwt>0</asrwt>
<pdfrwt beam="1">  1        1 0.54218661E-02 0.91430795E+02</pdfrwt>
<pdfrwt beam="2">  1       -1 0.39189829E-01 0.91430795E+02</pdfrwt>
<totfact> 0.86669099E+03</totfact>
</mgrwt>
</event>
