<event>
 7    1  0.1378876E-005  0.3223890E+03  0.7546771E-02  0.1075994E+00
          1   -1    0    0  501    0  0.00000000000E+00  0.00000000000E+00  0.18426291402E+04  0.18426291402E+04  0.00000000000E+00 0. -1.
         -1   -1    0    0    0  501 -0.00000000000E+00 -0.00000000000E+00 -0.10615656527E+03  0.10615656527E+03  0.00000000000E+00 0.  1.
         23    2    1    2    0    0  0.22271417508E+03  0.19366845604E+03  0.17835936766E+03  0.35766928559E+03  0.94900891335E+02 0.  0.
          5    1    1    2  502    0 -0.99452260515E+02 -0.40053076038E+02  0.32228150254E+03  0.33967993450E+03  0.47000000000E+01 0. -1.
         -5    1    1    2    0  502 -0.12326191456E+03 -0.15361538000E+03  0.12358317048E+04  0.12514364854E+04  0.47000000000E+01 0.  1.
          5    1    3    3  503    0  0.13564866473E+03  0.15058825522E+03  0.76086938719E+02  0.21653797610E+03  0.47000000000E+01 0. -1.
         -5    1    3    3    0  503  0.87065510348E+02  0.43080200823E+02  0.10227242894E+03  0.14113130948E+03  0.47000000000E+01 0.  1.
<mgrwt>
<rscale>  0 0.31925245E+03</rscale>
<asrwt>0</asrwt>
<pdfrwt beam="1">  1        1 0.28348138E+00 0.32238904E+03</pdfrwt>
<pdfrwt beam="2">  1       -1 0.16331781E-01 0.32238904E+03</pdfrwt>
<totfact> 0.11891453E+02</totfact>
</mgrwt>
</event>
<event>
 7    1  0.1378876E-005  0.1356658E+03  0.7546771E-02  0.1232749E+00
          2   -1    0    0  501    0  0.00000000000E+00  0.00000000000E+00  0.11241037728E+02  0.11241037728E+02  0.00000000000E+00 0. -1.
         -2   -1    0    0    0  501 -0.00000000000E+00 -0.00000000000E+00 -0.12712603081E+04  0.12712603081E+04  0.00000000000E+00 0.  1.
         23    2    1    2    0    0 -0.58554731110E+02  0.81209177320E+02 -0.77131759582E+03  0.78315773144E+03  0.91551142412E+02 0.  0.
          5    1    3    3  502    0 -0.48824102370E+02 -0.28261120564E+01 -0.22434461724E+03  0.22966144031E+03  0.47000000000E+01 0.  1.
         -5    1    3    3    0  502 -0.97306287406E+01  0.84035289376E+02 -0.54697297858E+03  0.55349629113E+03  0.47000000000E+01 0.  1.
          5    1    1    2  503    0  0.25114914525E+02 -0.22469223474E+02 -0.19325198727E+03  0.19622447737E+03  0.47000000000E+01 0. -1.
         -5    1    1    2    0  503  0.33439816585E+02 -0.58739953846E+02 -0.29544968725E+03  0.30311913699E+03  0.47000000000E+01 0. -1.
<mgrwt>
<rscale>  0 0.12649618E+03</rscale>
<asrwt>0</asrwt>
<pdfrwt beam="1">  1        2 0.17293911E-02 0.13566576E+03</pdfrwt>
<pdfrwt beam="2">  1       -2 0.19557843E+00 0.13566576E+03</pdfrwt>
<totfact> 0.99807225E+02</totfact>
</mgrwt>
</event>
<event>
 7    1  0.1378876E-005  0.9773621E+02  0.7546771E-02  0.1294021E+00
         -3   -1    0    0    0  501 -0.00000000000E+00  0.00000000000E+00  0.22506172431E+02  0.22506172431E+02  0.00000000000E+00 0.  1.
          3   -1    0    0  501    0  0.00000000000E+00 -0.00000000000E+00 -0.39621981516E+03  0.39621981516E+03  0.00000000000E+00 0. -1.
         23    2    1    2    0    0 -0.17567986163E+02 -0.91036135230E+01 -0.26256545679E+03  0.28016599716E+03  0.95712365711E+02 0.  0.
          5    1    1    2  502    0  0.92520330411E+00  0.21816880793E+02 -0.11465587509E+03  0.11681135211E+03  0.47000000000E+01 0. -1.
         -5    1    3    3    0  503  0.33637531178E+02 -0.26894899352E+02 -0.11567718719E+03  0.12352376593E+03  0.47000000000E+01 0.  1.
          5    1    3    3  503    0 -0.51205517341E+02  0.17791285829E+02 -0.14688826960E+03  0.15664223123E+03  0.47000000000E+01 0. -1.
         -5    1    1    2    0  502  0.16642782859E+02 -0.12713267270E+02  0.35076891439E+01  0.21748638328E+02  0.47000000000E+01 0.  1.
<mgrwt>
<rscale>  0 0.93748196E+02</rscale>
<asrwt>0</asrwt>
<pdfrwt beam="1">  1        3 0.60956894E-01 0.97736211E+02</pdfrwt>
<pdfrwt beam="2">  1       -3 0.34624881E-02 0.97736211E+02</pdfrwt>
<totfact> 0.23369292E+03</totfact>
</mgrwt>
</event>
<event>
 7    1  0.1378876E-005  0.4405095E+03  0.7546771E-02  0.1036935E+00
         -2   -1    0    0    0  501 -0.00000000000E+00  0.00000000000E+00  0.32018092325E+03  0.32018092325E+03  0.00000000000E+00 0.  1.
          2   -1    0    0  501    0  0.00000000000E+00 -0.00000000000E+00 -0.52730927415E+03  0.52730927415E+03  0.00000000000E+00 0. -1.
         23    2    1    2    0    0 -0.33697560897E+03  0.10718514010E+03 -0.11793178580E+02  0.36561423714E+03  0.92160056630E+02 0.  0.
          5    1    1    2  502    0  0.27938694075E+03 -0.18193207292E+02 -0.23801764067E+03  0.36750856143E+03  0.47000000000E+01 0. -1.
         -5    1    3    3    0  503 -0.30578737340E+03  0.11753044957E+03  0.65379474187E+01  0.32769522283E+03  0.47000000000E+01 0.  1.
          5    1    3    3  503    0 -0.31188235569E+02 -0.10345309469E+02 -0.18331125999E+02  0.37919014311E+02  0.47000000000E+01 0. -1.
         -5    1    1    2    0  502  0.57588668218E+02 -0.88991932812E+02  0.42682468339E+02  0.11436739883E+03  0.47000000000E+01 0.  1.
<mgrwt>
<rscale>  0 0.42040291E+03</rscale>
<asrwt>0</asrwt>
<pdfrwt beam="1">  1        2 0.81124503E-01 0.44050949E+03</pdfrwt>
<pdfrwt beam="2">  1       -2 0.49258604E-01 0.44050949E+03</pdfrwt>
<totfact> 0.23114660E+02</totfact>
</mgrwt>
</event>
<event>
 7    1  0.1378876E-005  0.1349146E+03  0.7546771E-02  0.1229190E+00
         -2   -1    0    0    0  501 -0.00000000000E+00  0.00000000000E+00  0.30391187075E+02  0.30391187075E+02  0.00000000000E+00 0.  1.
          2   -1    0    0  501    0  0.00000000000E+00 -0.00000000000E+00 -0.78002272960E+03  0.78002272960E+03  0.00000000000E+00 0. -1.
         23    2    1    2    0    0  0.22939872214E+02  0.10189595252E+03 -0.63811362880E+03  0.65222002153E+03  0.85398655446E+02 0.  0.
          5    1    3    3  502    0 -0.22549771356E+02  0.46457364501E+01 -0.18761008926E+03  0.18907593884E+03  0.47000000000E+01 0. -1.
         -5    1    3    3    0  502  0.45489643571E+02  0.97250216071E+02 -0.45050353954E+03  0.46314408270E+03  0.47000000000E+01 0.  1.
          5    1    1    2  503    0 -0.30696064046E+02 -0.46648615049E+02 -0.51373152002E+02  0.76023893484E+02  0.47000000000E+01 0. -1.
         -5    1    1    2    0  503  0.77561918316E+01 -0.55247337472E+02 -0.60144761719E+02  0.82170001653E+02  0.47000000000E+01 0.  1.
<mgrwt>
<rscale>  0 0.12883784E+03</rscale>
<asrwt>0</asrwt>
<pdfrwt beam="1">  1        2 0.12000348E+00 0.13491461E+03</pdfrwt>
<pdfrwt beam="2">  1       -2 0.46755678E-02 0.13491461E+03</pdfrwt>
<totfact> 0.76589774E+03</totfact>
</mgrwt>
</event>
<event>
 7    1  0.1378876E-005  0.9165761E+02  0.7546771E-02  0.1312128E+00
         -2   -1    0    0    0  501 -0.00000000000E+00  0.00000000000E+00  0.81276258650E+02  0.81276258650E+02  0.00000000000E+00 0. -1.
          2   -1    0    0  501    0  0.00000000000E+00 -0.00000000000E+00 -0.82876992329E+02  0.82876992329E+02  0.00000000000E+00 0.  1.
         23    2    1    2    0    0 -0.16392002941E+02  0.80945412732E+01  0.56622314762E+01  0.91832340008E+02  0.89815914220E+02 0.  0.
          5    1    1    2  502    0 -0.19893382155E+02 -0.24027263062E+02 -0.74488780365E+01  0.32413451032E+02  0.47000000000E+01 0. -1.
         -5    1    1    2    0  502  0.36285385097E+02  0.15932721789E+02  0.18591288176E+00  0.39907459939E+02  0.47000000000E+01 0.  1.
          5    1    3    3  503    0 -0.66420617045E+01 -0.40632254597E+02 -0.11516394598E+01  0.41454955925E+02  0.47000000000E+01 0. -1.
         -5    1    3    3    0  503 -0.97499412370E+01  0.48726795870E+02  0.68138709359E+01  0.50377384083E+02  0.47000000000E+01 0.  1.
<mgrwt>
<rscale>  0 0.86276413E+02</rscale>
<asrwt>0</asrwt>
<pdfrwt beam="1">  1        2 0.12750307E-01 0.91657612E+02</pdfrwt>
<pdfrwt beam="2">  1       -2 0.12504040E-01 0.91657612E+02</pdfrwt>
<totfact> 0.19469426E+04</totfact>
</mgrwt>
</event>
<event>
 7    1  0.1378876E-005  0.1819277E+03  0.7546771E-02  0.1183723E+00
          2   -1    0    0  501    0  0.00000000000E+00  0.00000000000E+00  0.17056617556E+03  0.17056617556E+03  0.00000000000E+00 0. -1.
         -2   -1    0    0    0  501 -0.00000000000E+00 -0.00000000000E+00 -0.14107985032E+03  0.14107985032E+03  0.00000000000E+00 0.  1.
         23    2    1    2    0    0  0.73154335873E+02  0.29611361352E+02 -0.19778608529E+02  0.12316598897E+03  0.92467712769E+02 0.  0.
          5    1    3    3  502    0  0.34672681363E+02 -0.31426682474E+02  0.36079860073E+01  0.47169256590E+02  0.47000000000E+01 0. -1.
         -5    1    1    2    0  503 -0.43330639839E+02 -0.25869924020E+02 -0.57976108472E+02  0.77007249472E+02  0.47000000000E+01 0.  1.
          5    1    1    2  503    0 -0.29823696034E+02 -0.37414373314E+01  0.10724104225E+03  0.11147278744E+03  0.47000000000E+01 0. -1.
         -5    1    3    3    0  502  0.38481654510E+02  0.61038043826E+02 -0.23386594537E+02  0.75996732377E+02  0.47000000000E+01 0.  1.
<mgrwt>
<rscale>  0 0.16448585E+03</rscale>
<asrwt>0</asrwt>
<pdfrwt beam="1">  1        2 0.26240950E-01 0.18192771E+03</pdfrwt>
<pdfrwt beam="2">  1       -2 0.21704592E-01 0.18192771E+03</pdfrwt>
<totfact> 0.36266968E+03</totfact>
</mgrwt>
</event>
<event>
 6    1  0.1378876E-005  0.2331705E+03  0.7546771E-02  0.1165451E+00
         -2   -1    0    0    0  501 -0.00000000000E+00  0.00000000000E+00  0.17551481151E+03  0.17551481151E+03  0.00000000000E+00 0.  1.
          2   -1    0    0  501    0  0.00000000000E+00 -0.00000000000E+00 -0.15281072605E+03  0.15281072605E+03  0.00000000000E+00 0. -1.
          5    1    1    2  502    0 -0.17670570672E+01 -0.21027178171E+02 -0.20829830464E+01  0.21718506645E+02  0.47000000000E+01 0. -1.
         -5    1    1    2    0  502 -0.52080359838E+02 -0.39220270068E+02 -0.21649037154E+02  0.68857565123E+02  0.47000000000E+01 0.  1.
          5    1    1    2  503    0  0.84502571073E+02 -0.47952269541E+02 -0.29880420338E+02  0.10175968844E+03  0.47000000000E+01 0. -1.
         -5    1    1    2    0  503 -0.30655154168E+02  0.10819971778E+03  0.76316525992E+02  0.13598977735E+03  0.47000000000E+01 0.  1.
<mgrwt>
<rscale>  0 0.18245162E+03</rscale>
<asrwt>0</asrwt>
<pdfrwt beam="1">  1        2 0.23509342E-01 0.23317053E+03</pdfrwt>
<pdfrwt beam="2">  1       -2 0.27002279E-01 0.23317053E+03</pdfrwt>
<totfact> 0.28267171E+03</totfact>
</mgrwt>
</event>
<event>
 7    1  0.1378876E-005  0.1881187E+03  0.7546771E-02  0.1188474E+00
         -1   -1    0    0    0  501 -0.00000000000E+00  0.00000000000E+00  0.45760840603E+02  0.45760840603E+02  0.00000000000E+00 0.  1.
          1   -1    0    0  501    0  0.00000000000E+00 -0.00000000000E+00 -0.45720062961E+03  0.45720062961E+03  0.00000000000E+00 0. -1.
         23    2    1    2    0    0  0.30193932913E+02 -0.25106333948E+02 -0.11307870817E+03  0.15024629276E+03  0.90802822959E+02 0.  0.
          5    1    3    3  502    0 -0.13930377668E+02  0.25806650971E+02 -0.22499827893E+02  0.37260849581E+02  0.47000000000E+01 0. -1.
         -5    1    3    3    0  502  0.44124310581E+02 -0.50912984920E+02 -0.90578880275E+02  0.11298544318E+03  0.47000000000E+01 0.  1.
          5    1    1    2  503    0 -0.55596991279E+02 -0.39908969490E+02 -0.29103754247E+02  0.74517580451E+02  0.47000000000E+01 0. -1.
         -5    1    1    2    0  503  0.25403058366E+02  0.65015303438E+02 -0.26925732660E+03  0.27819759701E+03  0.47000000000E+01 0.  1.
<mgrwt>
<rscale>  0 0.16019764E+03</rscale>
<asrwt>0</asrwt>
<pdfrwt beam="1">  1        1 0.70338561E-01 0.18811874E+03</pdfrwt>
<pdfrwt beam="2">  1       -1 0.70401291E-02 0.18811874E+03</pdfrwt>
<totfact> 0.52145319E+03</totfact>
</mgrwt>
</event>
<event>
 7    1  0.1378876E-005  0.9804645E+02  0.7546771E-02  0.1330906E+00
         -2   -1    0    0    0  501 -0.00000000000E+00  0.00000000000E+00  0.66077586218E+01  0.66077586218E+01  0.00000000000E+00 0. -1.
          2   -1    0    0  501    0  0.00000000000E+00 -0.00000000000E+00 -0.77610745592E+03  0.77610745592E+03  0.00000000000E+00 0.  1.
         23    2    1    2    0    0 -0.29959394543E+02  0.21297249153E+02 -0.60659740445E+03  0.61447011066E+03  0.90895366558E+02 0.  0.
          5    1    1    2  502    0  0.10178413200E+02 -0.17935478899E+02 -0.72406838346E+02  0.75432895596E+02  0.47000000000E+01 0. -1.
         -5    1    1    2    0  502  0.19780981343E+02 -0.33617702544E+01 -0.90495454498E+02  0.92812208286E+02  0.47000000000E+01 0.  1.
          5    1    3    3  503    0  0.25111468156E+02  0.61575926032E-01 -0.68223232529E+02  0.72849770633E+02  0.47000000000E+01 0. -1.
         -5    1    3    3    0  503 -0.55070862699E+02  0.21235673227E+02 -0.53837417192E+03  0.54162034003E+03  0.47000000000E+01 0.  1.
<mgrwt>
<rscale>  0 0.79350157E+02</rscale>
<asrwt>0</asrwt>
<pdfrwt beam="1">  1        2 0.11940107E+00 0.98046447E+02</pdfrwt>
<pdfrwt beam="2">  1       -2 0.10165789E-02 0.98046447E+02</pdfrwt>
<totfact> 0.68661255E+04</totfact>
</mgrwt>
</event>
<event>
 7    1  0.1378876E-005  0.1066135E+03  0.7546771E-02  0.1293509E+00
         -2   -1    0    0    0  501 -0.00000000000E+00  0.00000000000E+00  0.23267334526E+03  0.23267334526E+03  0.00000000000E+00 0. -1.
          2   -1    0    0  501    0  0.00000000000E+00 -0.00000000000E+00 -0.34691447578E+02  0.34691447578E+02  0.00000000000E+00 0.  1.
         23    2    1    2    0    0  0.17953504022E+02  0.48682077375E+02  0.81154065942E+02  0.13398663210E+03  0.93135182385E+02 0.  0.
          5    1    3    3  502    0 -0.25997958038E+02  0.45392874876E+02  0.71340933235E+02  0.88589083224E+02  0.47000000000E+01 0. -1.
         -5    1    3    3    0  502  0.43951462060E+02  0.32892024990E+01  0.98131327078E+01  0.45397548875E+02  0.47000000000E+01 0.  1.
          5    1    1    2  503    0 -0.14690415040E+02 -0.25111630943E+02  0.98953086280E+02  0.10324827159E+03  0.47000000000E+01 0. -1.
         -5    1    1    2    0  503 -0.32630889828E+01 -0.23570446432E+02  0.17874745458E+02  0.30129889145E+02  0.47000000000E+01 0.  1.
<mgrwt>
<rscale>  0 0.93971714E+02</rscale>
<asrwt>0</asrwt>
<pdfrwt beam="1">  1        2 0.53371459E-02 0.10661348E+03</pdfrwt>
<pdfrwt beam="2">  1       -2 0.35795898E-01 0.10661348E+03</pdfrwt>
<totfact> 0.97230761E+03</totfact>
</mgrwt>
</event>
<event>
 7    1  0.1378876E-005  0.9829627E+02  0.7546771E-02  0.1307588E+00
          4   -1    0    0  501    0  0.00000000000E+00  0.00000000000E+00  0.51917085131E+02  0.51917085131E+02  0.00000000000E+00 0. -1.
         -4   -1    0    0    0  501 -0.00000000000E+00 -0.00000000000E+00 -0.12605409476E+03  0.12605409476E+03  0.00000000000E+00 0.  1.
         23    2    1    2    0    0 -0.54871540324E+01 -0.34624045200E+02 -0.48782851832E+02  0.10973569712E+03  0.91832582585E+02 0.  0.
          5    1    3    3  502    0 -0.33502457488E+02  0.17769135643E+02 -0.13800346334E+02  0.40628763188E+02  0.47000000000E+01 0. -1.
         -5    1    3    3    0  502  0.28015303456E+02 -0.52393180843E+02 -0.34982505498E+02  0.69106933932E+02  0.47000000000E+01 0.  1.
          5    1    1    2  503    0 -0.15821388768E+02  0.18561241998E+02 -0.31832771383E+02  0.40376371568E+02  0.47000000000E+01 0.  1.
         -5    1    1    2    0  503  0.21308542801E+02  0.16062803203E+02  0.64786135855E+01  0.27859111203E+02  0.47000000000E+01 0. -1.
<mgrwt>
<rscale>  0 0.88072388E+02</rscale>
<asrwt>0</asrwt>
<pdfrwt beam="1">  1        4 0.79872439E-02 0.98296269E+02</pdfrwt>
<pdfrwt beam="2">  1       -4 0.19392937E-01 0.98296269E+02</pdfrwt>
<totfact> 0.39763850E+03</totfact>
</mgrwt>
</event>
<event>
 7    1  0.1378876E-005  0.1497694E+03  0.7546771E-02  0.1220482E+00
          2   -1    0    0  501    0  0.00000000000E+00  0.00000000000E+00  0.59373869481E+02  0.59373869481E+02  0.00000000000E+00 0. -1.
         -2   -1    0    0    0  501 -0.00000000000E+00 -0.00000000000E+00 -0.33549598288E+03  0.33549598288E+03  0.00000000000E+00 0.  1.
         23    2    1    2    0    0 -0.76855900673E+02 -0.45900794389E+02 -0.25276925937E+03  0.29380806402E+03  0.12007151039E+03 0.  0.
          5    1    1    2  502    0  0.59384357732E+02  0.15220181705E+02 -0.70386342608E+01  0.61885282956E+02  0.47000000000E+01 0. -1.
         -5    1    1    2    0  502  0.17471542942E+02  0.30680612684E+02 -0.16314219767E+02  0.39176505383E+02  0.47000000000E+01 0.  1.
          5    1    3    3  503    0 -0.76809952937E+02 -0.15707354027E+02 -0.60538985899E+02  0.99164250889E+02  0.47000000000E+01 0. -1.
         -5    1    3    3    0  503 -0.45947736415E-01 -0.30193440361E+02 -0.19223027347E+03  0.19464381313E+03  0.47000000000E+01 0.  1.
<mgrwt>
<rscale>  0 0.13481406E+03</rscale>
<asrwt>0</asrwt>
<pdfrwt beam="1">  1        2 0.91344418E-02 0.14976942E+03</pdfrwt>
<pdfrwt beam="2">  1       -2 0.51614764E-01 0.14976942E+03</pdfrwt>
<totfact> 0.25032537E+03</totfact>
</mgrwt>
</event>
<event>
 7    1  0.1378876E-005  0.3181643E+03  0.7546771E-02  0.1103620E+00
         -2   -1    0    0    0  501 -0.00000000000E+00  0.00000000000E+00  0.39729765805E+02  0.39729765805E+02  0.00000000000E+00 0.  1.
          2   -1    0    0  501    0  0.00000000000E+00 -0.00000000000E+00 -0.14228324003E+04  0.14228324003E+04  0.00000000000E+00 0. -1.
         23    2    1    2    0    0 -0.64692724834E+01  0.12561854214E+03 -0.51908941767E+03  0.54183020855E+03  0.91127831842E+02 0.  0.
          5    1    1    2  502    0  0.13078670565E+03 -0.13988726034E+03 -0.47978370736E+03  0.51661214061E+03  0.47000000000E+01 0. -1.
         -5    1    3    3    0  503 -0.20928207895E+02  0.53558425512E+01 -0.18711362157E+03  0.18841515945E+03  0.47000000000E+01 0.  1.
          5    1    3    3  503    0  0.14458935411E+02  0.12026269959E+03 -0.33197579611E+03  0.35341504910E+03  0.47000000000E+01 0. -1.
         -5    1    1    2    0  502 -0.12431743317E+03  0.14268718191E+02 -0.38422950945E+03  0.40411981693E+03  0.47000000000E+01 0.  1.
<mgrwt>
<rscale>  0 0.26594973E+03</rscale>
<asrwt>0</asrwt>
<pdfrwt beam="1">  1        2 0.21889726E+00 0.31816426E+03</pdfrwt>
<pdfrwt beam="2">  1       -2 0.61122724E-02 0.31816426E+03</pdfrwt>
<totfact> 0.21587255E+03</totfact>
</mgrwt>
</event>
<event>
 7    1  0.1378876E-005  0.9536815E+02  0.7546771E-02  0.1315303E+00
          2   -1    0    0  501    0  0.00000000000E+00  0.00000000000E+00  0.24363816445E+03  0.24363816445E+03  0.00000000000E+00 0. -1.
         -2   -1    0    0    0  501 -0.00000000000E+00 -0.00000000000E+00 -0.72739195397E+02  0.72739195397E+02  0.00000000000E+00 0.  1.
         23    2    1    2    0    0 -0.10739818522E+02 -0.31951155057E+02  0.21923396973E+03  0.23907868320E+03  0.89212461400E+02 0.  0.
          5    1    3    3  502    0  0.18191038568E+02 -0.22258326441E+02  0.20125849035E+03  0.20335539560E+03  0.47000000000E+01 0. -1.
         -5    1    3    3    0  502 -0.28930857090E+02 -0.96928286156E+01  0.17975479373E+02  0.35723287604E+02  0.47000000000E+01 0.  1.
          5    1    1    2  503    0  0.20356074550E+02 -0.65135822163E+00 -0.34421624877E+02  0.40270737488E+02  0.47000000000E+01 0.  1.
         -5    1    1    2    0  503 -0.96162560283E+01  0.32602513278E+02 -0.13913375797E+02  0.37027939156E+02  0.47000000000E+01 0. -1.
<mgrwt>
<rscale>  0 0.85049639E+02</rscale>
<asrwt>0</asrwt>
<pdfrwt beam="1">  1        2 0.37482794E-01 0.95368146E+02</pdfrwt>
<pdfrwt beam="2">  1       -2 0.11190646E-01 0.95368146E+02</pdfrwt>
<totfact> 0.70367602E+03</totfact>
</mgrwt>
</event>
<event>
 7    1  0.1378876E-005  0.1467023E+03  0.7546771E-02  0.1215316E+00
          1   -1    0    0  501    0  0.00000000000E+00  0.00000000000E+00  0.79727690151E+03  0.79727690151E+03  0.00000000000E+00 0. -1.
         -1   -1    0    0    0  501 -0.00000000000E+00 -0.00000000000E+00 -0.32193943734E+02  0.32193943734E+02  0.00000000000E+00 0.  1.
         23    2    1    2    0    0 -0.27154003113E+02  0.10947659944E+03  0.17682548190E+03  0.22975818394E+03  0.93803551789E+02 0.  0.
          5    1    3    3  502    0  0.31371892325E+02  0.14279995022E+02  0.44953349964E+02  0.56841952455E+02  0.47000000000E+01 0. -1.
         -5    1    1    2    0  503  0.24666905459E+02 -0.83083261738E+02  0.49866423830E+03  0.50616143389E+03  0.47000000000E+01 0. -1.
          5    1    1    2  503    0  0.24870976540E+01 -0.26393337704E+02  0.89593237579E+02  0.93551227410E+02  0.47000000000E+01 0.  1.
         -5    1    3    3    0  502 -0.58525895438E+02  0.95196604420E+02  0.13187213194E+03  0.17291623149E+03  0.47000000000E+01 0.  1.
<mgrwt>
<rscale>  0 0.13853315E+03</rscale>
<asrwt>0</asrwt>
<pdfrwt beam="1">  1        1 0.12265797E+00 0.14670232E+03</pdfrwt>
<pdfrwt beam="2">  1       -1 0.49529150E-02 0.14670232E+03</pdfrwt>
<totfact> 0.40454867E+03</totfact>
</mgrwt>
</event>
<event>
 7    1  0.1378876E-005  0.1139675E+03  0.7546771E-02  0.1267024E+00
         -2   -1    0    0    0  501 -0.00000000000E+00  0.00000000000E+00  0.15976179066E+02  0.15976179066E+02  0.00000000000E+00 0.  1.
          2   -1    0    0  501    0  0.00000000000E+00 -0.00000000000E+00 -0.67728289274E+03  0.67728289274E+03  0.00000000000E+00 0. -1.
         23    2    1    2    0    0 -0.60693927809E+02 -0.50885517392E+02 -0.28410946717E+03  0.30611563302E+03  0.81948170744E+02 0.  0.
          5    1    3    3  502    0 -0.49294563106E+02  0.61134214587E+01 -0.17998184697E+03  0.18676959901E+03  0.47000000000E+01 0. -1.
         -5    1    3    3    0  502 -0.11399364704E+02 -0.56998938851E+02 -0.10412762020E+03  0.11934603401E+03  0.47000000000E+01 0.  1.
          5    1    1    2  503    0  0.51580393328E+01  0.22592544596E+02 -0.13224324104E+03  0.13434058673E+03  0.47000000000E+01 0. -1.
         -5    1    1    2    0  503  0.55535888477E+02  0.28292972797E+02 -0.24495400546E+03  0.25280285206E+03  0.47000000000E+01 0.  1.
<mgrwt>
<rscale>  0 0.10658688E+03</rscale>
<asrwt>0</asrwt>
<pdfrwt beam="1">  1        2 0.10419737E+00 0.11396750E+03</pdfrwt>
<pdfrwt beam="2">  1       -2 0.24578736E-02 0.11396750E+03</pdfrwt>
<totfact> 0.23111874E+04</totfact>
</mgrwt>
</event>
<event>
 7    1  0.1378876E-005  0.1012206E+03  0.7546771E-02  0.1280961E+00
         -2   -1    0    0    0  501 -0.00000000000E+00  0.00000000000E+00  0.40157225643E+02  0.40157225643E+02  0.00000000000E+00 0.  1.
          2   -1    0    0  501    0  0.00000000000E+00 -0.00000000000E+00 -0.29359139922E+03  0.29359139922E+03  0.00000000000E+00 0. -1.
         23    2    1    2    0    0  0.10056633207E+02  0.21274942433E+02 -0.52427369457E+02  0.10869452345E+03  0.92261104006E+02 0.  0.
          5    1    1    2  502    0  0.22194110825E+02 -0.51070952687E+02 -0.95001013067E+02  0.11021843424E+03  0.47000000000E+01 0. -1.
         -5    1    1    2    0  502 -0.32250744032E+02  0.29796010254E+02 -0.10600579105E+03  0.11483566717E+03  0.47000000000E+01 0.  1.
          5    1    3    3  503    0  0.97810663993E+01 -0.33774138372E+02 -0.48930682095E+01  0.35810526374E+02  0.47000000000E+01 0. -1.
         -5    1    3    3    0  503  0.27556680761E+00  0.55049080804E+02 -0.47534301248E+02  0.72883997075E+02  0.47000000000E+01 0.  1.
<mgrwt>
<rscale>  0 0.99684566E+02</rscale>
<asrwt>0</asrwt>
<pdfrwt beam="1">  1        2 0.45167908E-01 0.10122062E+03</pdfrwt>
<pdfrwt beam="2">  1       -2 0.61780347E-02 0.10122062E+03</pdfrwt>
<totfact> 0.14490142E+04</totfact>
</mgrwt>
</event>
<event>
 7    1  0.1378876E-005  0.3808505E+03  0.7546771E-02  0.1051512E+00
          3   -1    0    0  501    0  0.00000000000E+00  0.00000000000E+00  0.12043118958E+03  0.12043118958E+03  0.00000000000E+00 0. -1.
         -3   -1    0    0    0  501 -0.00000000000E+00 -0.00000000000E+00 -0.14557673572E+04  0.14557673572E+04  0.00000000000E+00 0.  1.
         23    2    1    2    0    0 -0.31268165716E+03  0.17795883758E+03 -0.10072918324E+04  0.10735453972E+04  0.91780813723E+02 0.  0.
          5    1    1    2  502    0  0.17557750583E+03 -0.40858746253E+02 -0.20471556104E+03  0.27281394508E+03  0.47000000000E+01 0. -1.
         -5    1    1    2    0  502  0.13710415133E+03 -0.13710009133E+03 -0.12332877416E+03  0.22983920443E+03  0.47000000000E+01 0. -1.
          5    1    3    3  503    0 -0.24271009098E+02  0.15849028718E+02 -0.30972964796E+02  0.42681238761E+02  0.47000000000E+01 0. -1.
         -5    1    3    3    0  503 -0.28841064806E+03  0.16210980887E+03 -0.97631886759E+03  0.10308641585E+04  0.47000000000E+01 0.  1.
<mgrwt>
<rscale>  0 0.37843981E+03</rscale>
<asrwt>0</asrwt>
<pdfrwt beam="1">  1        3 0.18527874E-01 0.38085050E+03</pdfrwt>
<pdfrwt beam="2">  1       -3 0.22396422E+00 0.38085050E+03</pdfrwt>
<totfact> 0.73131877E+00</totfact>
</mgrwt>
</event>
<event>
 7    1  0.1378876E-005  0.1719819E+03  0.7546771E-02  0.1181155E+00
         -2   -1    0    0    0  501 -0.00000000000E+00  0.00000000000E+00  0.84484346825E+02  0.84484346825E+02  0.00000000000E+00 0.  1.
          2   -1    0    0  501    0  0.00000000000E+00 -0.00000000000E+00 -0.84070596718E+03  0.84070596718E+03  0.00000000000E+00 0. -1.
         23    2    1    2    0    0  0.15922046650E+02 -0.14630112042E+03 -0.19750056840E+02  0.17311219080E+03  0.88995710316E+02 0.  0.
          5    1    3    3  502    0  0.50741244212E+02 -0.62053803528E+02 -0.15175640059E+02  0.81717430501E+02  0.47000000000E+01 0. -1.
         -5    1    3    3    0  502 -0.34819197562E+02 -0.84247316888E+02 -0.45744167814E+01  0.91394760301E+02  0.47000000000E+01 0.  1.
          5    1    1    2  503    0  0.95060479774E+01  0.25826251472E+02 -0.10197129421E+03  0.10572414605E+03  0.47000000000E+01 0. -1.
         -5    1    1    2    0  503 -0.25428094627E+02  0.12047486894E+03 -0.63450026930E+03  0.64635397715E+03  0.47000000000E+01 0. -1.
<mgrwt>
<rscale>  0 0.16686714E+03</rscale>
<asrwt>0</asrwt>
<pdfrwt beam="1">  1        2 0.12933938E+00 0.17198188E+03</pdfrwt>
<pdfrwt beam="2">  1       -2 0.12997592E-01 0.17198188E+03</pdfrwt>
<totfact> 0.14402582E+03</totfact>
</mgrwt>
</event>
<event>
 7    1  0.1449483E-005  0.3619792E+03  0.7546771E-02  0.1089295E+00
          4   -1    0    0  501    0  0.00000000000E+00  0.00000000000E+00  0.62236495470E+03  0.62236495470E+03  0.00000000000E+00 0. -1.
         -4   -1    0    0    0  501 -0.00000000000E+00 -0.00000000000E+00 -0.10897854020E+03  0.10897854020E+03  0.00000000000E+00 0.  1.
         23    2    1    2    0    0 -0.32695812610E+02  0.11935747875E+03  0.20372897085E+03  0.25498574223E+03  0.90537347435E+02 0.  0.
          5    1    1    2  502    0  0.10150354804E+03 -0.65834716829E+02  0.35705241248E+03  0.37702214188E+03  0.47000000000E+01 0. -1.
         -5    1    3    3    0  503 -0.42523984989E+02  0.17969602578E+02  0.96128401711E+02  0.10674247295E+03  0.47000000000E+01 0.  1.
          5    1    3    3  503    0  0.98281723785E+01  0.10138787618E+03  0.10760056914E+03  0.14824326928E+03  0.47000000000E+01 0. -1.
         -5    1    1    2    0  502 -0.68807735431E+02 -0.53522761926E+02 -0.47394968836E+02  0.99335610786E+02  0.47000000000E+01 0.  1.
<mgrwt>
<rscale>  0 0.29202800E+03</rscale>
<asrwt>0</asrwt>
<pdfrwt beam="1">  1        4 0.95748453E-01 0.36197925E+03</pdfrwt>
<pdfrwt beam="2">  1       -4 0.16765930E-01 0.36197925E+03</pdfrwt>
<totfact> 0.55364966E+01</totfact>
</mgrwt>
</event>
<event>
 7    1  0.1378876E-005  0.1042650E+03  0.7546771E-02  0.1285725E+00
         -2   -1    0    0    0  501 -0.00000000000E+00  0.00000000000E+00  0.24499397623E+02  0.24499397623E+02  0.00000000000E+00 0.  1.
          2   -1    0    0  501    0  0.00000000000E+00 -0.00000000000E+00 -0.34606305687E+03  0.34606305687E+03  0.00000000000E+00 0. -1.
         23    2    1    2    0    0  0.44190661212E+02  0.99117505923E+01 -0.19254511477E+03  0.21896305623E+03  0.93915608032E+02 0.  0.
          5    1    1    2  502    0 -0.33392484370E+01  0.24160194563E+02 -0.54787612334E+02  0.60155116547E+02  0.47000000000E+01 0.  1.
         -5    1    3    3    0  503 -0.18504913428E+02  0.17543951611E+02 -0.13891528131E+02  0.29415754502E+02  0.47000000000E+01 0.  1.
          5    1    3    3  503    0  0.62695574640E+02 -0.76322010188E+01 -0.17865358664E+03  0.18954730173E+03  0.47000000000E+01 0. -1.
         -5    1    1    2    0  502 -0.40851412775E+02 -0.34071945155E+02 -0.74230932134E+02  0.91444281713E+02  0.47000000000E+01 0. -1.
<mgrwt>
<rscale>  0 0.97462156E+02</rscale>
<asrwt>0</asrwt>
<pdfrwt beam="1">  1        2 0.53240469E-01 0.10426504E+03</pdfrwt>
<pdfrwt beam="2">  1       -2 0.37691382E-02 0.10426504E+03</pdfrwt>
<totfact> 0.25517066E+04</totfact>
</mgrwt>
</event>
<event>
 7    1  0.1378876E-005  0.1328908E+03  0.7546771E-02  0.1237038E+00
          2   -1    0    0  501    0  0.00000000000E+00  0.00000000000E+00  0.66049133431E+02  0.66049133431E+02  0.00000000000E+00 0. -1.
         -2   -1    0    0    0  501 -0.00000000000E+00 -0.00000000000E+00 -0.29098851264E+03  0.29098851264E+03  0.00000000000E+00 0.  1.
         23    2    1    2    0    0 -0.20610203488E+02 -0.93756500949E+02 -0.27433917468E+02  0.13569296961E+03  0.91896138205E+02 0.  0.
          5    1    1    2  502    0  0.25071301895E+02  0.54981202863E+02 -0.12049256655E+03  0.13487791309E+03  0.47000000000E+01 0.  1.
         -5    1    3    3    0  503 -0.28365631896E+02 -0.69453709335E+02 -0.58478380786E+02  0.95237796240E+02  0.47000000000E+01 0.  1.
          5    1    3    3  503    0  0.77554284073E+01 -0.24302791615E+02  0.31044463319E+02  0.40455173375E+02  0.47000000000E+01 0. -1.
         -5    1    1    2    0  502 -0.44610984068E+01  0.38775298086E+02 -0.77012895197E+02  0.86466763368E+02  0.47000000000E+01 0. -1.
<mgrwt>
<rscale>  0 0.12374851E+03</rscale>
<asrwt>0</asrwt>
<pdfrwt beam="1">  1        2 0.10161405E-01 0.13289079E+03</pdfrwt>
<pdfrwt beam="2">  1       -2 0.44767463E-01 0.13289079E+03</pdfrwt>
<totfact> 0.28831708E+03</totfact>
</mgrwt>
</event>
<event>
 7    1  0.1378876E-005  0.2395346E+03  0.7546771E-02  0.1151179E+00
         -2   -1    0    0    0  501 -0.00000000000E+00  0.00000000000E+00  0.50937510270E+02  0.50937510270E+02  0.00000000000E+00 0.  1.
          2   -1    0    0  501    0  0.00000000000E+00 -0.00000000000E+00 -0.61470128634E+03  0.61470128634E+03  0.00000000000E+00 0. -1.
         23    2    1    2    0    0 -0.55706409304E+02 -0.35308281038E+02 -0.21297021333E+03  0.24086478962E+03  0.91157316587E+02 0.  0.
          5    1    1    2  502    0 -0.42001760559E+02 -0.30283525997E+02  0.28126191244E+01  0.52069575216E+02  0.47000000000E+01 0. -1.
         -5    1    1    2    0  502  0.97708169863E+02  0.65591807036E+02 -0.35360618187E+03  0.37270443177E+03  0.47000000000E+01 0.  1.
          5    1    3    3  503    0 -0.31600644986E+02  0.21114381492E+02 -0.32618081552E+02  0.50303549711E+02  0.47000000000E+01 0. -1.
         -5    1    3    3    0  503 -0.24105764317E+02 -0.56422662531E+02 -0.18035213178E+03  0.19056123991E+03  0.47000000000E+01 0.  1.
<mgrwt>
<rscale>  0 0.19830261E+03</rscale>
<asrwt>0</asrwt>
<pdfrwt beam="1">  1        2 0.94569431E-01 0.23953462E+03</pdfrwt>
<pdfrwt beam="2">  1       -2 0.78365398E-02 0.23953462E+03</pdfrwt>
<totfact> 0.47486025E+03</totfact>
</mgrwt>
</event>
<event>
 7    1  0.1378876E-005  0.1254543E+03  0.7546771E-02  0.1254759E+00
          2   -1    0    0  501    0  0.00000000000E+00  0.00000000000E+00  0.31852740392E+03  0.31852740392E+03  0.00000000000E+00 0. -1.
         -2   -1    0    0    0  501 -0.00000000000E+00 -0.00000000000E+00 -0.60882531671E+02  0.60882531671E+02  0.00000000000E+00 0.  1.
         23    2    1    2    0    0 -0.79238014762E+01  0.67068410828E+00 -0.10061893851E+02  0.83765391353E+02  0.82777790703E+02 0.  0.
          5    1    1    2  502    0  0.41155064847E+02  0.82650013597E+01  0.25528969020E+03  0.25876044043E+03  0.47000000000E+01 0. -1.
         -5    1    1    2    0  502 -0.33231263371E+02 -0.89356854679E+01  0.12417075906E+02  0.36884103813E+02  0.47000000000E+01 0.  1.
          5    1    3    3  503    0  0.32658836346E+02  0.18413037305E+02  0.12685600745E+01  0.37806597029E+02  0.47000000000E+01 0. -1.
         -5    1    3    3    0  503 -0.40582637822E+02 -0.17742353196E+02 -0.11330453925E+02  0.45958794324E+02  0.47000000000E+01 0.  1.
<mgrwt>
<rscale>  0 0.11319868E+03</rscale>
<asrwt>0</asrwt>
<pdfrwt beam="1">  1        2 0.49004215E-01 0.12545431E+03</pdfrwt>
<pdfrwt beam="2">  1       -2 0.93665435E-02 0.12545431E+03</pdfrwt>
<totfact> 0.71506453E+03</totfact>
</mgrwt>
</event>
<event>
 7    1  0.1378876E-005  0.2656673E+03  0.7546771E-02  0.1125526E+00
          2   -1    0    0  501    0  0.00000000000E+00  0.00000000000E+00  0.72849421584E+03  0.72849421584E+03  0.00000000000E+00 0. -1.
         -2   -1    0    0    0  501 -0.00000000000E+00 -0.00000000000E+00 -0.60481738241E+02  0.60481738241E+02  0.00000000000E+00 0.  1.
         23    2    1    2    0    0 -0.48204901949E+02  0.11027631564E+03  0.22240691508E+03  0.27018560226E+03  0.95135931332E+02 0.  0.
          5    1    3    3  502    0 -0.71953721227E+02  0.96899787814E+02  0.14942032239E+03  0.19213388462E+03  0.47000000000E+01 0. -1.
         -5    1    3    3    0  502  0.23748819277E+02  0.13376527822E+02  0.72986592690E+02  0.78051717637E+02  0.47000000000E+01 0.  1.
          5    1    1    2  503    0  0.14216047701E+03 -0.41893904779E+02  0.27278245768E+03  0.31047875885E+03  0.47000000000E+01 0. -1.
         -5    1    1    2    0  503 -0.93955575058E+02 -0.68382410858E+02  0.17282310483E+03  0.20831159296E+03  0.47000000000E+01 0.  1.
<mgrwt>
<rscale>  0 0.23158948E+03</rscale>
<asrwt>0</asrwt>
<pdfrwt beam="1">  1        2 0.11207603E+00 0.26566730E+03</pdfrwt>
<pdfrwt beam="2">  1       -2 0.93048833E-02 0.26566730E+03</pdfrwt>
<totfact> 0.29638025E+03</totfact>
</mgrwt>
</event>
<event>
 7    1  0.1378876E-005  0.3419939E+03  0.7546771E-02  0.1087989E+00
         -2   -1    0    0    0  501 -0.00000000000E+00  0.00000000000E+00  0.43442673595E+03  0.43442673595E+03  0.00000000000E+00 0.  1.
          2   -1    0    0  501    0  0.00000000000E+00 -0.00000000000E+00 -0.23179752794E+03  0.23179752794E+03  0.00000000000E+00 0. -1.
         23    2    1    2    0    0 -0.15374915816E+03  0.50095412558E+02 -0.96815289064E+02  0.21166205230E+03  0.96328968604E+02 0.  0.
          5    1    3    3  502    0 -0.13387600995E+03  0.19554637745E+02 -0.10808535109E+03  0.17323308869E+03  0.47000000000E+01 0. -1.
         -5    1    1    2    0  503  0.16044287451E+03  0.10167354361E+03  0.16681664895E+03  0.25284246048E+03  0.47000000000E+01 0.  1.
          5    1    1    2  503    0 -0.66937163522E+01 -0.15176895617E+03  0.13262784812E+03  0.20171975112E+03  0.47000000000E+01 0. -1.
         -5    1    3    3    0  502 -0.19873148207E+02  0.30540774813E+02  0.11270062023E+02  0.38428963606E+02  0.47000000000E+01 0.  1.
<mgrwt>
<rscale>  0 0.29456523E+03</rscale>
<asrwt>0</asrwt>
<pdfrwt beam="1">  1        2 0.35661158E-01 0.34199386E+03</pdfrwt>
<pdfrwt beam="2">  1       -2 0.66834882E-01 0.34199386E+03</pdfrwt>
<totfact> 0.30630186E+02</totfact>
</mgrwt>
</event>
<event>
 7    1  0.1378876E-005  0.1129831E+03  0.7546771E-02  0.1264341E+00
          2   -1    0    0  501    0  0.00000000000E+00  0.00000000000E+00  0.53166289644E+03  0.53166289644E+03  0.00000000000E+00 0.  1.
         -2   -1    0    0    0  501 -0.00000000000E+00 -0.00000000000E+00 -0.21036113366E+02  0.21036113366E+02  0.00000000000E+00 0. -1.
         23    2    1    2    0    0  0.33301266726E+02  0.55629490535E+02  0.22261001160E+03  0.24964054889E+03  0.92528762007E+02 0.  0.
          5    1    1    2  502    0  0.13745418374E+02 -0.22216441366E+02  0.37533171840E+02  0.45971031983E+02  0.47000000000E+01 0. -1.
         -5    1    3    3    0  503 -0.28326042321E+02  0.36532474255E+02  0.71573581196E+02  0.85333779208E+02  0.47000000000E+01 0.  1.
          5    1    3    3  503    0  0.61627309047E+02  0.19097016281E+02  0.15103643041E+03  0.16430676968E+03  0.47000000000E+01 0. -1.
         -5    1    1    2    0  502 -0.47046685100E+02 -0.33413049169E+02  0.25048359963E+03  0.25708742894E+03  0.47000000000E+01 0.  1.
<mgrwt>
<rscale>  0 0.10798852E+03</rscale>
<asrwt>0</asrwt>
<pdfrwt beam="1">  1        2 0.81794282E-01 0.11298312E+03</pdfrwt>
<pdfrwt beam="2">  1       -2 0.32363255E-02 0.11298312E+03</pdfrwt>
<totfact> 0.20321708E+04</totfact>
</mgrwt>
</event>
<event>
 7    1  0.1378876E-005  0.1171779E+03  0.7546771E-02  0.1271895E+00
          2   -1    0    0  501    0  0.00000000000E+00  0.00000000000E+00  0.83156067659E+03  0.83156067659E+03  0.00000000000E+00 0.  1.
         -2   -1    0    0    0  501 -0.00000000000E+00 -0.00000000000E+00 -0.11111821610E+02  0.11111821610E+02  0.00000000000E+00 0. -1.
         23    2    1    2    0    0 -0.66355731646E+02  0.23287625771E+02  0.56351067383E+03  0.57556489162E+03  0.93729762142E+02 0.  0.
          5    1    3    3  502    0 -0.88439324983E+02  0.10812655751E+02  0.47770845069E+03  0.48596901300E+03  0.47000000000E+01 0. -1.
         -5    1    1    2    0  503  0.26387292905E+02 -0.36645507521E+01  0.74618511438E+02  0.79370841046E+02  0.47000000000E+01 0. -1.
          5    1    1    2  503    0  0.39968438740E+02 -0.19623075019E+02  0.18231966972E+03  0.18773676554E+03  0.47000000000E+01 0.  1.
         -5    1    3    3    0  502  0.22083593337E+02  0.12474970020E+02  0.85802223131E+02  0.89595878622E+02  0.47000000000E+01 0.  1.
<mgrwt>
<rscale>  0 0.10410403E+03</rscale>
<asrwt>0</asrwt>
<pdfrwt beam="1">  1        2 0.12793236E+00 0.11717792E+03</pdfrwt>
<pdfrwt beam="2">  1       -2 0.17095117E-02 0.11717792E+03</pdfrwt>
<totfact> 0.30580006E+04</totfact>
</mgrwt>
</event>
<event>
 7    1  0.1378876E-005  0.4806481E+03  0.7546771E-02  0.1018957E+00
         -2   -1    0    0    0  501 -0.00000000000E+00  0.00000000000E+00  0.24195016000E+03  0.24195016000E+03  0.00000000000E+00 0.  1.
          2   -1    0    0  501    0  0.00000000000E+00 -0.00000000000E+00 -0.23870882190E+03  0.23870882190E+03  0.00000000000E+00 0. -1.
         23    2    1    2    0    0  0.65365591775E+02 -0.31706733539E+02  0.30949995896E+02  0.12819983519E+03  0.10099167272E+03 0.  0.
          5    1    3    3  502    0 -0.26295046756E+02 -0.84936877006E+01  0.16235218016E+02  0.32392044064E+02  0.47000000000E+01 0. -1.
         -5    1    1    2    0  503  0.58032761793E+02 -0.13072738810E+03 -0.38289821222E+02  0.14814064888E+03  0.47000000000E+01 0.  1.
          5    1    1    2  503    0 -0.12339835357E+03  0.16243412164E+03  0.10581163420E+02  0.20431849783E+03  0.47000000000E+01 0. -1.
         -5    1    3    3    0  502  0.91660638531E+02 -0.23213045839E+02  0.14714777879E+02  0.95807791129E+02  0.47000000000E+01 0.  1.
<mgrwt>
<rscale>  0 0.48064805E+03</rscale>
<asrwt>0</asrwt>
<pdfrwt beam="1">  1        2 0.36724434E-01 0.48064805E+03</pdfrwt>
<pdfrwt beam="2">  1       -2 0.37223101E-01 0.48064805E+03</pdfrwt>
<totfact> 0.96571898E+02</totfact>
</mgrwt>
</event>
<event>
 7    1  0.1378876E-005  0.9526387E+02  0.7546771E-02  0.1290979E+00
          2   -1    0    0  501    0  0.00000000000E+00  0.00000000000E+00  0.25187561842E+03  0.25187561842E+03  0.00000000000E+00 0. -1.
         -2   -1    0    0    0  501 -0.00000000000E+00 -0.00000000000E+00 -0.59765628825E+02  0.59765628825E+02  0.00000000000E+00 0.  1.
         23    2    1    2    0    0 -0.14373760555E+02  0.28079048575E+02 -0.29017277574E+01  0.94604902274E+02  0.89143869946E+02 0.  0.
          5    1    3    3  502    0 -0.27428462055E+02 -0.23222123255E+02  0.13974376498E+02  0.38845343836E+02  0.47000000000E+01 0. -1.
         -5    1    3    3    0  502  0.13054701501E+02  0.51301171830E+02 -0.16876104256E+02  0.55759558438E+02  0.47000000000E+01 0.  1.
          5    1    1    2  503    0 -0.30523680194E+02 -0.25224116007E+02  0.14128370297E+03  0.14680301702E+03  0.47000000000E+01 0. -1.
         -5    1    1    2    0  503  0.44897440749E+02 -0.28549325675E+01  0.53728014377E+02  0.70233327948E+02  0.47000000000E+01 0.  1.
<mgrwt>
<rscale>  0 0.95087512E+02</rscale>
<asrwt>0</asrwt>
<pdfrwt beam="1">  1        2 0.38750095E-01 0.95263871E+02</pdfrwt>
<pdfrwt beam="2">  1       -2 0.91947123E-02 0.95263871E+02</pdfrwt>
<totfact> 0.92286931E+03</totfact>
</mgrwt>
</event>
<event>
 7    1  0.1378876E-005  0.9995648E+02  0.7546771E-02  0.1312266E+00
          2   -1    0    0  501    0  0.00000000000E+00  0.00000000000E+00  0.13094900867E+03  0.13094900867E+03  0.00000000000E+00 0.  1.
         -2   -1    0    0    0  501 -0.00000000000E+00 -0.00000000000E+00 -0.10121006958E+03  0.10121006958E+03  0.00000000000E+00 0. -1.
         23    2    1    2    0    0 -0.31804134563E+02  0.19495725288E+02  0.10088884590E+03  0.14202062434E+03  0.92734633394E+02 0.  0.
          5    1    1    2  502    0  0.15047893392E+02 -0.30777382354E+02 -0.43258038102E+02  0.55380810941E+02  0.47000000000E+01 0.  1.
         -5    1    3    3    0  503 -0.57331716003E+02  0.41652678111E+01  0.95252216840E+02  0.11135236831E+03  0.47000000000E+01 0.  1.
          5    1    3    3  503    0  0.25527581441E+02  0.15330457477E+02  0.56366290634E+01  0.30668256029E+02  0.47000000000E+01 0. -1.
         -5    1    1    2    0  502  0.16756241171E+02  0.11281657066E+02 -0.27891868712E+02  0.34757642966E+02  0.47000000000E+01 0. -1.
<mgrwt>
<rscale>  0 0.86222393E+02</rscale>
<asrwt>0</asrwt>
<pdfrwt beam="1">  1        2 0.20146002E-01 0.99956483E+02</pdfrwt>
<pdfrwt beam="2">  1       -2 0.15570780E-01 0.99956483E+02</pdfrwt>
<totfact> 0.81579464E+03</totfact>
</mgrwt>
</event>
<event>
 7    1  0.1378876E-005  0.9666879E+02  0.7546771E-02  0.1322644E+00
         -3   -1    0    0    0  501 -0.00000000000E+00  0.00000000000E+00  0.54422277898E+03  0.54422277898E+03  0.00000000000E+00 0.  1.
          3   -1    0    0  501    0  0.00000000000E+00 -0.00000000000E+00 -0.99903951720E+01  0.99903951720E+01  0.00000000000E+00 0. -1.
         23    2    1    2    0    0  0.27070478126E+02 -0.20519439330E+02  0.35375974305E+03  0.36672988775E+03  0.90504124717E+02 0.  0.
          5    1    3    3  502    0 -0.25349130731E+02 -0.19127443436E+02  0.57732148616E+02  0.66057009507E+02  0.47000000000E+01 0. -1.
         -5    1    3    3    0  502  0.52419608857E+02 -0.13919958949E+01  0.29602759444E+03  0.30067287825E+03  0.47000000000E+01 0.  1.
          5    1    1    2  503    0 -0.18763285851E+02 -0.75498210985E+01  0.85810928284E+02  0.88287406279E+02  0.47000000000E+01 0.  1.
         -5    1    1    2    0  503 -0.83071922750E+01  0.28069260429E+02  0.94661712467E+02  0.99195880114E+02  0.47000000000E+01 0. -1.
<mgrwt>
<rscale>  0 0.82301725E+02</rscale>
<asrwt>0</asrwt>
<pdfrwt beam="1">  1        3 0.15369843E-02 0.96668789E+02</pdfrwt>
<pdfrwt beam="2">  1       -3 0.83726558E-01 0.96668789E+02</pdfrwt>
<totfact> 0.40978027E+03</totfact>
</mgrwt>
</event>
<event>
 7    1  0.1378876E-005  0.1001083E+03  0.7546771E-02  0.1316305E+00
         -4   -1    0    0    0  501 -0.00000000000E+00  0.00000000000E+00  0.96603069414E+02  0.96603069414E+02  0.00000000000E+00 0.  1.
          4   -1    0    0  501    0  0.00000000000E+00 -0.00000000000E+00 -0.62716847843E+02  0.62716847843E+02  0.00000000000E+00 0. -1.
         23    2    1    2    0    0 -0.46394014786E+02 -0.83841869296E-01  0.43727372867E+01  0.10020375960E+03  0.88708855076E+02 0.  0.
          5    1    3    3  502    0  0.22122642289E+02 -0.92504210947E+01 -0.14473197422E+02  0.28399736546E+02  0.47000000000E+01 0. -1.
         -5    1    1    2    0  503  0.22920929269E+02  0.94667471410E+01  0.17648155899E+02  0.30798306879E+02  0.47000000000E+01 0. -1.
          5    1    1    2  503    0  0.23473085517E+02 -0.93829052718E+01  0.11865328386E+02  0.28317850779E+02  0.47000000000E+01 0.  1.
         -5    1    3    3    0  502 -0.68516657075E+02  0.91665792254E+01  0.18845934709E+02  0.71804023053E+02  0.47000000000E+01 0.  1.
<mgrwt>
<rscale>  0 0.84667419E+02</rscale>
<asrwt>0</asrwt>
<pdfrwt beam="1">  1        4 0.96487458E-02 0.10010830E+03</pdfrwt>
<pdfrwt beam="2">  1       -4 0.14862011E-01 0.10010830E+03</pdfrwt>
<totfact> 0.46620330E+03</totfact>
</mgrwt>
</event>
<event>
 7    1  0.1378876E-005  0.2597100E+03  0.7546771E-02  0.1145884E+00
         -2   -1    0    0    0  501 -0.00000000000E+00  0.00000000000E+00  0.92487299956E+02  0.92487299956E+02  0.00000000000E+00 0.  1.
          2   -1    0    0  501    0  0.00000000000E+00 -0.00000000000E+00 -0.42167395621E+03  0.42167395621E+03  0.00000000000E+00 0. -1.
         23    2    1    2    0    0  0.19788419796E+01 -0.40556207785E+02 -0.70284757777E+01  0.10035551160E+03  0.91504685301E+02 0.  0.
          5    1    3    3  502    0  0.46230811138E+02 -0.19096764946E+02  0.12830640901E+01  0.50256448176E+02  0.47000000000E+01 0. -1.
         -5    1    3    3    0  502 -0.44251969158E+02 -0.21459442839E+02 -0.83115398678E+01  0.50099063428E+02  0.47000000000E+01 0.  1.
          5    1    1    2  503    0  0.98380116366E+02 -0.49517894096E+02 -0.78680419287E+02  0.13543768867E+03  0.47000000000E+01 0. -1.
         -5    1    1    2    0  503 -0.10035895835E+03  0.90074101881E+02 -0.24347776119E+03  0.27836805589E+03  0.47000000000E+01 0.  1.
<mgrwt>
<rscale>  0 0.20463736E+03</rscale>
<asrwt>0</asrwt>
<pdfrwt beam="1">  1        2 0.64872916E-01 0.25971003E+03</pdfrwt>
<pdfrwt beam="2">  1       -2 0.14228815E-01 0.25971003E+03</pdfrwt>
<totfact> 0.28010742E+03</totfact>
</mgrwt>
</event>
<event>
 7    1  0.1378876E-005  0.1067248E+03  0.7546771E-02  0.1301961E+00
          2   -1    0    0  501    0  0.00000000000E+00  0.00000000000E+00  0.24822180913E+03  0.24822180913E+03  0.00000000000E+00 0. -1.
         -2   -1    0    0    0  501 -0.00000000000E+00 -0.00000000000E+00 -0.30279528719E+02  0.30279528719E+02  0.00000000000E+00 0.  1.
         23    2    1    2    0    0 -0.35257423393E+01 -0.52845597343E+02  0.91161414816E+02  0.14035874990E+03  0.92655745120E+02 0.  0.
          5    1    3    3  502    0 -0.47365583906E+02 -0.33459001756E+02  0.55720880082E+02  0.80559976504E+02  0.47000000000E+01 0. -1.
         -5    1    1    2    0  503 -0.32233132620E+01  0.24703781669E+02  0.64578194268E+02  0.69376507206E+02  0.47000000000E+01 0. -1.
          5    1    1    2  503    0  0.67490556014E+01  0.28141815673E+02  0.62202671324E+02  0.68766080743E+02  0.47000000000E+01 0.  1.
         -5    1    3    3    0  502  0.43839841567E+02 -0.19386595587E+02  0.35440534735E+02  0.59798773393E+02  0.47000000000E+01 0.  1.
<mgrwt>
<rscale>  0 0.90368999E+02</rscale>
<asrwt>0</asrwt>
<pdfrwt beam="1">  1        2 0.38187969E-01 0.10672476E+03</pdfrwt>
<pdfrwt beam="2">  1       -2 0.46583892E-02 0.10672476E+03</pdfrwt>
<totfact> 0.26523248E+04</totfact>
</mgrwt>
</event>
<event>
 7    1  0.1378876E-005  0.1410671E+03  0.7546771E-02  0.1220634E+00
         -2   -1    0    0    0  501 -0.00000000000E+00  0.00000000000E+00  0.89990720537E+02  0.89990720537E+02  0.00000000000E+00 0.  1.
          2   -1    0    0  501    0  0.00000000000E+00 -0.00000000000E+00 -0.18554742832E+03  0.18554742832E+03  0.00000000000E+00 0. -1.
         23    2    1    2    0    0 -0.42145716017E+02 -0.10013233171E+03 -0.48870221372E+02  0.14929239224E+03  0.89984302024E+02 0.  0.
          5    1    3    3  502    0 -0.80117423903E+01 -0.20683859559E+02 -0.57941781659E+02  0.62220174576E+02  0.47000000000E+01 0. -1.
         -5    1    3    3    0  502 -0.34133973627E+02 -0.79448472147E+02  0.90715602874E+01  0.87072217659E+02  0.47000000000E+01 0.  1.
          5    1    1    2  503    0  0.19456145439E+02  0.24674119927E+02  0.46131412020E+01  0.32104904006E+02  0.47000000000E+01 0.  1.
         -5    1    1    2    0  503  0.22689570578E+02  0.75458211780E+02 -0.51299627613E+02  0.94140852616E+02  0.47000000000E+01 0. -1.
<mgrwt>
<rscale>  0 0.13470698E+03</rscale>
<asrwt>0</asrwt>
<pdfrwt beam="1">  1        2 0.28545758E-01 0.14106708E+03</pdfrwt>
<pdfrwt beam="2">  1       -2 0.13844726E-01 0.14106708E+03</pdfrwt>
<totfact> 0.68998471E+03</totfact>
</mgrwt>
</event>
<event>
 7    1  0.1378876E-005  0.1251114E+03  0.7546771E-02  0.1244289E+00
          1   -1    0    0  501    0  0.00000000000E+00  0.00000000000E+00  0.79079511003E+03  0.79079511003E+03  0.00000000000E+00 0. -1.
         -1   -1    0    0    0  501 -0.00000000000E+00 -0.00000000000E+00 -0.17866855614E+02  0.17866855614E+02  0.00000000000E+00 0.  1.
         23    2    1    2    0    0 -0.30345806441E+02  0.81002095088E+02  0.30919925527E+03  0.33355215113E+03  0.90391651629E+02 0.  0.
          5    1    1    2  502    0  0.97461234585E+01 -0.56217593857E+02  0.39414665517E+03  0.39828266415E+03  0.47000000000E+01 0. -1.
         -5    1    1    2    0  502  0.20599682983E+02 -0.24784501231E+02  0.69582343982E+02  0.76827150372E+02  0.47000000000E+01 0.  1.
          5    1    3    3  503    0  0.28850041774E+02  0.18057971750E+02  0.53269939764E+02  0.63389208360E+02  0.47000000000E+01 0. -1.
         -5    1    3    3    0  503 -0.59195848215E+02  0.62944123338E+02  0.25592931550E+03  0.27016294277E+03  0.47000000000E+01 0.  1.
<mgrwt>
<rscale>  0 0.11928015E+03</rscale>
<asrwt>0</asrwt>
<pdfrwt beam="1">  1        1 0.12166076E+00 0.12511138E+03</pdfrwt>
<pdfrwt beam="2">  1       -1 0.27487476E-02 0.12511138E+03</pdfrwt>
<totfact> 0.96259582E+03</totfact>
</mgrwt>
</event>
<event>
 7    1  0.1378876E-005  0.1909019E+03  0.7546771E-02  0.1183846E+00
         -2   -1    0    0    0  501 -0.00000000000E+00  0.00000000000E+00  0.17778493854E+03  0.17778493854E+03  0.00000000000E+00 0.  1.
          2   -1    0    0  501    0  0.00000000000E+00 -0.00000000000E+00 -0.12885913922E+03  0.12885913922E+03  0.00000000000E+00 0. -1.
         23    2    1    2    0    0 -0.52884181861E+02 -0.59791343172E+01  0.48850906211E+02  0.11574213462E+03  0.90428667741E+02 0.  0.
          5    1    1    2  502    0  0.49065734307E+02  0.55589837733E+02 -0.71825301951E+02  0.10333750695E+03  0.47000000000E+01 0. -1.
         -5    1    3    3    0  503 -0.17742751140E+02 -0.41304441884E+02  0.47652608116E+02  0.65678940290E+02  0.47000000000E+01 0.  1.
          5    1    3    3  503    0 -0.35141430721E+02  0.35325307566E+02  0.11982980947E+01  0.50063194326E+02  0.47000000000E+01 0. -1.
         -5    1    1    2    0  502  0.38184475542E+01 -0.49610703416E+02  0.71900195060E+02  0.87564436187E+02  0.47000000000E+01 0.  1.
<mgrwt>
<rscale>  0 0.16437294E+03</rscale>
<asrwt>0</asrwt>
<pdfrwt beam="1">  1        2 0.19824483E-01 0.19090193E+03</pdfrwt>
<pdfrwt beam="2">  1       -2 0.27351529E-01 0.19090193E+03</pdfrwt>
<totfact> 0.33229493E+03</totfact>
</mgrwt>
</event>
<event>
 7    1  0.1378876E-005  0.1447409E+03  0.7546771E-02  0.1218918E+00
          2   -1    0    0  501    0  0.00000000000E+00  0.00000000000E+00  0.39098627105E+02  0.39098627105E+02  0.00000000000E+00 0. -1.
         -2   -1    0    0    0  501 -0.00000000000E+00 -0.00000000000E+00 -0.49881213282E+03  0.49881213282E+03  0.00000000000E+00 0.  1.
         23    2    1    2    0    0 -0.10292223145E+03  0.38077837121E+02 -0.35814891093E+03  0.38629076627E+03  0.94376937310E+02 0.  0.
          5    1    1    2  502    0  0.73225336551E+02 -0.37472534932E+02 -0.77355731145E+02  0.11301389263E+03  0.47000000000E+01 0.  1.
         -5    1    3    3    0  503 -0.11666250481E+02 -0.22921554739E+02 -0.13562733530E+03  0.13812444806E+03  0.47000000000E+01 0.  1.
          5    1    3    3  503    0 -0.91255980974E+02  0.60999391860E+02 -0.22252157563E+03  0.24816631820E+03  0.47000000000E+01 0. -1.
         -5    1    1    2    0  502  0.29696894904E+02 -0.60530218865E+00 -0.24208863645E+02  0.38606101029E+02  0.47000000000E+01 0. -1.
<mgrwt>
<rscale>  0 0.13592657E+03</rscale>
<asrwt>0</asrwt>
<pdfrwt beam="1">  1        2 0.60151742E-02 0.14474085E+03</pdfrwt>
<pdfrwt beam="2">  1       -2 0.76740318E-01 0.14474085E+03</pdfrwt>
<totfact> 0.18591866E+03</totfact>
</mgrwt>
</event>
<event>
 7    1  0.1378876E-005  0.1153782E+03  0.7546771E-02  0.1271595E+00
         -2   -1    0    0    0  501 -0.00000000000E+00  0.00000000000E+00  0.34597820426E+02  0.34597820426E+02  0.00000000000E+00 0.  1.
          2   -1    0    0  501    0  0.00000000000E+00 -0.00000000000E+00 -0.44409092266E+03  0.44409092266E+03  0.00000000000E+00 0. -1.
         23    2    1    2    0    0 -0.68644403138E+02  0.14714817536E+02 -0.37861861858E+03  0.39580827680E+03  0.91561748073E+02 0.  0.
          5    1    1    2  502    0  0.44857621949E+02 -0.21280659442E+01 -0.53080131682E+01  0.45464270756E+02  0.47000000000E+01 0. -1.
         -5    1    1    2    0  502  0.23786781190E+02 -0.12586751592E+02 -0.25566470487E+02  0.37416195533E+02  0.47000000000E+01 0.  1.
          5    1    3    3  503    0 -0.27510095968E+02  0.34613211784E+02 -0.31038306134E+03  0.31355161390E+03  0.47000000000E+01 0. -1.
         -5    1    3    3    0  503 -0.41134307170E+02 -0.19898394248E+02 -0.68235557237E+02  0.82256662900E+02  0.47000000000E+01 0.  1.
<mgrwt>
<rscale>  0 0.10425474E+03</rscale>
<asrwt>0</asrwt>
<pdfrwt beam="1">  1        2 0.68321677E-01 0.11537822E+03</pdfrwt>
<pdfrwt beam="2">  1       -2 0.53227419E-02 0.11537822E+03</pdfrwt>
<totfact> 0.11840232E+04</totfact>
</mgrwt>
</event>
<event>
 7    1  0.1378876E-005  0.9634833E+02  0.7546771E-02  0.1288662E+00
          1   -1    0    0  501    0  0.00000000000E+00  0.00000000000E+00  0.50744684730E+03  0.50744684730E+03  0.00000000000E+00 0. -1.
         -1   -1    0    0    0  501 -0.00000000000E+00 -0.00000000000E+00 -0.18503922051E+02  0.18503922051E+02  0.00000000000E+00 0.  1.
         23    2    1    2    0    0  0.24273318496E+02  0.18933339989E+02  0.20572294355E+03  0.22679101567E+03  0.90358009798E+02 0.  0.
          5    1    1    2  502    0 -0.23148326753E+02  0.26764908347E+02  0.49878611054E+02  0.61336540422E+02  0.47000000000E+01 0.  1.
         -5    1    1    2    0  502 -0.11249917436E+01 -0.45698248336E+02  0.23334137065E+03  0.23782321326E+03  0.47000000000E+01 0. -1.
          5    1    3    3  503    0  0.26318251811E+02 -0.25001436174E+02  0.35780708256E+02  0.51186631775E+02  0.47000000000E+01 0. -1.
         -5    1    3    3    0  503 -0.20449333143E+01  0.43934776164E+02  0.16994223529E+03  0.17560438390E+03  0.47000000000E+01 0.  1.
<mgrwt>
<rscale>  0 0.96124977E+02</rscale>
<asrwt>0</asrwt>
<pdfrwt beam="1">  1        1 0.78068735E-01 0.96348327E+02</pdfrwt>
<pdfrwt beam="2">  1       -1 0.28467576E-02 0.96348327E+02</pdfrwt>
<totfact> 0.16524503E+04</totfact>
</mgrwt>
</event>
<event>
 7    1  0.1378876E-005  0.1114996E+03  0.7546771E-02  0.1289400E+00
          2   -1    0    0  501    0  0.00000000000E+00  0.00000000000E+00  0.26756271345E+02  0.26756271345E+02  0.00000000000E+00 0. -1.
         -2   -1    0    0    0  501 -0.00000000000E+00 -0.00000000000E+00 -0.28278559197E+03  0.28278559197E+03  0.00000000000E+00 0.  1.
         23    2    1    2    0    0 -0.55782071211E+02  0.89450781197E+01 -0.18577862240E+03  0.21666993200E+03  0.96127566278E+02 0.  0.
          5    1    3    3  502    0 -0.76123265793E+02 -0.52242847229E+00 -0.17587102463E+03  0.19169697919E+03  0.47000000000E+01 0. -1.
         -5    1    1    2    0  503  0.20869825470E+02 -0.10310428670E+02 -0.17814576843E+02  0.29686759719E+02  0.47000000000E+01 0.  1.
          5    1    1    2  503    0  0.34912245740E+02  0.13653505500E+01 -0.52436121384E+02  0.63185171604E+02  0.47000000000E+01 0.  1.
         -5    1    3    3    0  502  0.20341194582E+02  0.94675065920E+01 -0.99075977671E+01  0.24972952801E+02  0.47000000000E+01 0. -1.
<mgrwt>
<rscale>  0 0.95793010E+02</rscale>
<asrwt>0</asrwt>
<pdfrwt beam="1">  1        2 0.41163497E-02 0.11149961E+03</pdfrwt>
<pdfrwt beam="2">  1       -2 0.43505473E-01 0.11149961E+03</pdfrwt>
<totfact> 0.94943397E+03</totfact>
</mgrwt>
</event>
<event>
 7    1  0.1378876E-005  0.1005248E+03  0.7546771E-02  0.1293496E+00
          2   -1    0    0  501    0  0.00000000000E+00  0.00000000000E+00  0.40095798573E+03  0.40095798573E+03  0.00000000000E+00 0. -1.
         -2   -1    0    0    0  501 -0.00000000000E+00 -0.00000000000E+00 -0.25893198611E+02  0.25893198611E+02  0.00000000000E+00 0.  1.
         23    2    1    2    0    0 -0.79171804459E+01  0.28534545446E+01  0.31102581467E+03  0.32686739678E+03  0.10017192091E+03 0.  0.
          5    1    3    3  502    0 -0.35035760591E+02 -0.36327947711E+02  0.12771225360E+03  0.13740354444E+03  0.47000000000E+01 0. -1.
         -5    1    3    3    0  502  0.27118580145E+02  0.39181402256E+02  0.18331356107E+03  0.18946385234E+03  0.47000000000E+01 0.  1.
          5    1    1    2  503    0 -0.25856974185E+02 -0.20936574031E+02  0.47041211765E+02  0.57809072389E+02  0.47000000000E+01 0. -1.
         -5    1    1    2    0  503  0.33774154631E+02  0.18083119487E+02  0.16997760685E+02  0.42174715170E+02  0.47000000000E+01 0.  1.
<mgrwt>
<rscale>  0 0.93977199E+02</rscale>
<asrwt>0</asrwt>
<pdfrwt beam="1">  1        2 0.61685839E-01 0.10052481E+03</pdfrwt>
<pdfrwt beam="2">  1       -2 0.39835693E-02 0.10052481E+03</pdfrwt>
<totfact> 0.20063416E+04</totfact>
</mgrwt>
</event>
<event>
 7    1  0.1378876E-005  0.1048365E+03  0.7546771E-02  0.1309001E+00
          2   -1    0    0  501    0  0.00000000000E+00  0.00000000000E+00  0.11447206487E+03  0.11447206487E+03  0.00000000000E+00 0. -1.
         -2   -1    0    0    0  501 -0.00000000000E+00 -0.00000000000E+00 -0.91902560239E+02  0.91902560239E+02  0.00000000000E+00 0.  1.
         23    2    1    2    0    0 -0.43891979085E+02 -0.15671639628E+02 -0.51265223418E+02  0.11669967425E+03  0.93907319849E+02 0.  0.
          5    1    3    3  502    0  0.26425291678E+02 -0.24280015805E+01 -0.33181457581E+02  0.42746816948E+02  0.47000000000E+01 0. -1.
         -5    1    1    2    0  503  0.23122204288E+02  0.10114640788E+02  0.23769554518E+02  0.34986054528E+02  0.47000000000E+01 0. -1.
          5    1    1    2  503    0  0.20769774797E+02  0.55569988395E+01  0.50065173527E+02  0.54688896328E+02  0.47000000000E+01 0. -1.
         -5    1    3    3    0  502 -0.70317270763E+02 -0.13243638047E+02 -0.18083765836E+02  0.73952857302E+02  0.47000000000E+01 0.  1.
<mgrwt>
<rscale>  0 0.87507941E+02</rscale>
<asrwt>0</asrwt>
<pdfrwt beam="1">  1        2 0.17611087E-01 0.10483650E+03</pdfrwt>
<pdfrwt beam="2">  1       -2 0.14138855E-01 0.10483650E+03</pdfrwt>
<totfact> 0.11149744E+04</totfact>
</mgrwt>
</event>
<event>
 7    1  0.1378876E-005  0.1413169E+03  0.7546771E-02  0.1227926E+00
          2   -1    0    0  501    0  0.00000000000E+00  0.00000000000E+00  0.33445020168E+03  0.33445020168E+03  0.00000000000E+00 0. -1.
         -2   -1    0    0    0  501 -0.00000000000E+00 -0.00000000000E+00 -0.12034567059E+03  0.12034567059E+03  0.00000000000E+00 0.  1.
         23    2    1    2    0    0  0.49235792508E+02 -0.54231737724E+02  0.28107873934E+03  0.29841171599E+03  0.68403580982E+02 0.  0.
          5    1    1    2  502    0 -0.14361241220E+02 -0.31948899297E+02  0.87232431436E+01  0.36402779929E+02  0.47000000000E+01 0. -1.
         -5    1    1    2    0  502 -0.34874551289E+02  0.86180637021E+02 -0.75697451393E+02  0.11998137636E+03  0.47000000000E+01 0.  1.
          5    1    3    3  503    0  0.68922038899E+01 -0.51241477943E+02  0.20168507252E+03  0.20825981372E+03  0.47000000000E+01 0. -1.
         -5    1    3    3    0  503  0.42343588618E+02 -0.29902597807E+01  0.79393666820E+02  0.90151902264E+02  0.47000000000E+01 0.  1.
<mgrwt>
<rscale>  0 0.12968372E+03</rscale>
<asrwt>0</asrwt>
<pdfrwt beam="1">  1        2 0.51453877E-01 0.14131688E+03</pdfrwt>
<pdfrwt beam="2">  1       -2 0.18514719E-01 0.14131688E+03</pdfrwt>
<totfact> 0.22761623E+03</totfact>
</mgrwt>
</event>
<event>
 7    1  0.1378876E-005  0.1052848E+03  0.7546771E-02  0.1305613E+00
          3   -1    0    0  501    0  0.00000000000E+00  0.00000000000E+00  0.23362076429E+03  0.23362076429E+03  0.00000000000E+00 0. -1.
         -3   -1    0    0    0  501 -0.00000000000E+00 -0.00000000000E+00 -0.27602463209E+02  0.27602463209E+02  0.00000000000E+00 0.  1.
         23    2    1    2    0    0 -0.39024383615E+02  0.33309673959E+02  0.15470228211E+03  0.18713013077E+03  0.91937222370E+02 0.  0.
          5    1    1    2  502    0  0.24645195632E+02 -0.17260097845E+02  0.22796590173E+02  0.38040388653E+02  0.47000000000E+01 0.  1.
         -5    1    1    2    0  502  0.14379187983E+02 -0.16049576114E+02  0.28519428803E+02  0.36052708077E+02  0.47000000000E+01 0. -1.
          5    1    3    3  503    0 -0.57815681338E+02 -0.84868783736E+01  0.96378509603E+02  0.11280774453E+03  0.47000000000E+01 0. -1.
         -5    1    3    3    0  503  0.18791297723E+02  0.41796552333E+02  0.58323772505E+02  0.74322386239E+02  0.47000000000E+01 0.  1.
<mgrwt>
<rscale>  0 0.88869483E+02</rscale>
<asrwt>0</asrwt>
<pdfrwt beam="1">  1        3 0.35941655E-01 0.10528480E+03</pdfrwt>
<pdfrwt beam="2">  1       -3 0.42465330E-02 0.10528480E+03</pdfrwt>
<totfact> 0.48756760E+03</totfact>
</mgrwt>
</event>
<event>
 7    1  0.1378876E-005  0.9249548E+02  0.7546771E-02  0.1327310E+00
         -4   -1    0    0    0  501 -0.00000000000E+00  0.00000000000E+00  0.13738197221E+03  0.13738197221E+03  0.00000000000E+00 0. -1.
          4   -1    0    0  501    0  0.00000000000E+00 -0.00000000000E+00 -0.39355243859E+02  0.39355243859E+02  0.00000000000E+00 0.  1.
         23    2    1    2    0    0 -0.13595269684E+02 -0.70436282950E+01  0.51134296686E+02  0.10568883332E+03  0.91219346270E+02 0.  0.
          5    1    3    3  502    0  0.14845605328E+01  0.40214225867E+02  0.34329773255E+02  0.53103777773E+02  0.47000000000E+01 0. -1.
         -5    1    3    3    0  502 -0.15079830217E+02 -0.47257854162E+02  0.16804523432E+02  0.52585055549E+02  0.47000000000E+01 0.  1.
          5    1    1    2  503    0 -0.14656359915E+02  0.15291385626E+02  0.10783578062E+02  0.24228308157E+02  0.47000000000E+01 0. -1.
         -5    1    1    2    0  503  0.28251629600E+02 -0.82477573305E+01  0.36108853600E+02  0.46820074587E+02  0.47000000000E+01 0.  1.
<mgrwt>
<rscale>  0 0.80616958E+02</rscale>
<asrwt>0</asrwt>
<pdfrwt beam="1">  1        4 0.60546530E-02 0.92495477E+02</pdfrwt>
<pdfrwt beam="2">  1       -4 0.21135688E-01 0.92495477E+02</pdfrwt>
<totfact> 0.52645114E+03</totfact>
</mgrwt>
</event>
<event>
 7    1  0.1378876E-005  0.1809958E+03  0.7546771E-02  0.1183465E+00
         -4   -1    0    0    0  501 -0.00000000000E+00  0.00000000000E+00  0.65579612731E+03  0.65579612731E+03  0.00000000000E+00 0.  1.
          4   -1    0    0  501    0  0.00000000000E+00 -0.00000000000E+00 -0.53361111379E+02  0.53361111379E+02  0.00000000000E+00 0. -1.
         23    2    1    2    0    0  0.80987460635E+02  0.29538966392E+02  0.46665584719E+03  0.48289309167E+03  0.89367437864E+02 0.  0.
          5    1    1    2  502    0  0.13826752588E+02  0.50076262212E+02  0.17623145073E+02  0.55058844580E+02  0.47000000000E+01 0. -1.
         -5    1    3    3    0  503  0.34065151000E+02 -0.27066472337E+02  0.10405132484E+03  0.11287956696E+03  0.47000000000E+01 0.  1.
          5    1    3    3  503    0  0.46922309635E+02  0.56605438729E+02  0.36260452235E+03  0.37001352470E+03  0.47000000000E+01 0. -1.
         -5    1    1    2    0  502 -0.94814213223E+02 -0.79615228603E+02  0.11815602367E+03  0.17120530244E+03  0.47000000000E+01 0.  1.
<mgrwt>
<rscale>  0 0.16472332E+03</rscale>
<asrwt>0</asrwt>
<pdfrwt beam="1">  1        4 0.82094022E-02 0.18099581E+03</pdfrwt>
<pdfrwt beam="2">  1       -4 0.10089171E+00 0.18099581E+03</pdfrwt>
<totfact> 0.15528577E+02</totfact>
</mgrwt>
</event>
<event>
 7    1  0.1378876E-005  0.1125497E+03  0.7546771E-02  0.1282463E+00
          2   -1    0    0  501    0  0.00000000000E+00  0.00000000000E+00  0.94319944765E+03  0.94319944765E+03  0.00000000000E+00 0.  1.
         -2   -1    0    0    0  501 -0.00000000000E+00 -0.00000000000E+00 -0.17738601437E+02  0.17738601437E+02  0.00000000000E+00 0. -1.
         23    2    1    2    0    0 -0.59217753719E+02 -0.22407352075E+02  0.85900650926E+03  0.86634844090E+03  0.93051632556E+02 0.  0.
          5    1    3    3  502    0  0.14917229066E+02  0.21251134063E+02  0.20079254478E+03  0.20251881508E+03  0.47000000000E+01 0. -1.
         -5    1    3    3    0  502 -0.74134982785E+02 -0.43658486138E+02  0.65821396447E+03  0.66382962582E+03  0.47000000000E+01 0.  1.
          5    1    1    2  503    0  0.16645229881E+02  0.13721554788E+02  0.32296094514E+02  0.39121253359E+02  0.47000000000E+01 0.  1.
         -5    1    1    2    0  503  0.42572523838E+02  0.86857972870E+01  0.34158242442E+02  0.55468354827E+02  0.47000000000E+01 0. -1.
<mgrwt>
<rscale>  0 0.98976646E+02</rscale>
<asrwt>0</asrwt>
<pdfrwt beam="1">  1        2 0.14510757E+00 0.11254971E+03</pdfrwt>
<pdfrwt beam="2">  1       -2 0.27290163E-02 0.11254971E+03</pdfrwt>
<totfact> 0.13160226E+04</totfact>
</mgrwt>
</event>
<event>
 7    1  0.1378876E-005  0.1159456E+03  0.7546771E-02  0.1265224E+00
         -2   -1    0    0    0  501 -0.00000000000E+00  0.00000000000E+00  0.26892692124E+02  0.26892692124E+02  0.00000000000E+00 0.  1.
          2   -1    0    0  501    0  0.00000000000E+00 -0.00000000000E+00 -0.57829571272E+03  0.57829571272E+03  0.00000000000E+00 0. -1.
         23    2    1    2    0    0 -0.66369746719E+02 -0.24082012881E+02 -0.12600563503E+03  0.17123320678E+03  0.91970127879E+02 0.  0.
          5    1    1    2  502    0  0.36273588840E+02  0.37569624641E+02 -0.26317064265E+03  0.26834330082E+03  0.47000000000E+01 0.  1.
         -5    1    3    3    0  503 -0.26664210235E+02  0.25865974519E+02 -0.10005071758E+02  0.38758485601E+02  0.47000000000E+01 0.  1.
          5    1    3    3  503    0 -0.39705536485E+02 -0.49947987400E+02 -0.11600056327E+03  0.13247472118E+03  0.47000000000E+01 0. -1.
         -5    1    1    2    0  502  0.30096157879E+02 -0.13487611759E+02 -0.16222674292E+03  0.16561189724E+03  0.47000000000E+01 0.  1.
<mgrwt>
<rscale>  0 0.10752454E+03</rscale>
<asrwt>0</asrwt>
<pdfrwt beam="1">  1        2 0.88968574E-01 0.11594564E+03</pdfrwt>
<pdfrwt beam="2">  1       -2 0.41373371E-02 0.11594564E+03</pdfrwt>
<totfact> 0.12915115E+04</totfact>
</mgrwt>
</event>
<event>
 7    1  0.1378876E-005  0.1191661E+03  0.7546771E-02  0.1267501E+00
          2   -1    0    0  501    0  0.00000000000E+00  0.00000000000E+00  0.56912792488E+02  0.56912792488E+02  0.00000000000E+00 0. -1.
         -2   -1    0    0    0  501 -0.00000000000E+00 -0.00000000000E+00 -0.26716188325E+03  0.26716188325E+03  0.00000000000E+00 0.  1.
         23    2    1    2    0    0 -0.68020947757E+02  0.25988822089E+02 -0.21939882173E+02  0.12116900885E+03  0.94330811875E+02 0.  0.
          5    1    3    3  502    0  0.15133332193E+02  0.26202511156E+02  0.96286587532E+01  0.32099694757E+02  0.47000000000E+01 0. -1.
         -5    1    1    2    0  503  0.32752452992E+02 -0.11014935191E+02 -0.65964946884E+02  0.74615790498E+02  0.47000000000E+01 0. -1.
          5    1    1    2  503    0  0.35268494765E+02 -0.14973886898E+02 -0.12234426170E+03  0.12828987638E+03  0.47000000000E+01 0.  1.
         -5    1    3    3    0  502 -0.83154279950E+02 -0.21368906732E+00 -0.31568540926E+02  0.89069314094E+02  0.47000000000E+01 0.  1.
<mgrwt>
<rscale>  0 0.10634021E+03</rscale>
<asrwt>0</asrwt>
<pdfrwt beam="1">  1        2 0.87558144E-02 0.11916615E+03</pdfrwt>
<pdfrwt beam="2">  1       -2 0.41101827E-01 0.11916615E+03</pdfrwt>
<totfact> 0.40498737E+03</totfact>
</mgrwt>
</event>
<event>
 7    1  0.1378876E-005  0.9395963E+02  0.7546771E-02  0.1319521E+00
          2   -1    0    0  501    0  0.00000000000E+00  0.00000000000E+00  0.24327226276E+02  0.24327226276E+02  0.00000000000E+00 0. -1.
         -2   -1    0    0    0  501 -0.00000000000E+00 -0.00000000000E+00 -0.24445014205E+03  0.24445014205E+03  0.00000000000E+00 0.  1.
         23    2    1    2    0    0  0.66434098325E+01  0.25947802277E+02 -0.11520584853E+03  0.14866337515E+03  0.90061025069E+02 0.  0.
          5    1    3    3  502    0  0.26728868946E+02  0.51745850655E+02 -0.89151593856E+02  0.10659344343E+03  0.47000000000E+01 0. -1.
         -5    1    3    3    0  502 -0.20085459114E+02 -0.25798048377E+02 -0.26054254677E+02  0.42069931717E+02  0.47000000000E+01 0.  1.
          5    1    1    2  503    0  0.16916431772E+02 -0.24461613921E+02 -0.34999231740E+02  0.46168955392E+02  0.47000000000E+01 0. -1.
         -5    1    1    2    0  503 -0.23559841605E+02 -0.14861883564E+01 -0.69917835498E+02  0.73945037785E+02  0.47000000000E+01 0.  1.
<mgrwt>
<rscale>  0 0.83455649E+02</rscale>
<asrwt>0</asrwt>
<pdfrwt beam="1">  1        2 0.37426502E-02 0.93959627E+02</pdfrwt>
<pdfrwt beam="2">  1       -2 0.37607714E-01 0.93959627E+02</pdfrwt>
<totfact> 0.13902525E+04</totfact>
</mgrwt>
</event>
<event>
 7    1  0.1378876E-005  0.1138337E+03  0.7546771E-02  0.1261839E+00
          2   -1    0    0  501    0  0.00000000000E+00  0.00000000000E+00  0.29631580486E+03  0.29631580486E+03  0.00000000000E+00 0. -1.
         -2   -1    0    0    0  501 -0.00000000000E+00 -0.00000000000E+00 -0.37580719240E+02  0.37580719240E+02  0.00000000000E+00 0.  1.
         23    2    1    2    0    0 -0.18719899758E+02  0.47012733846E+01  0.12922658517E+03  0.16147097032E+03  0.94872690077E+02 0.  0.
          5    1    1    2  502    0 -0.31997217226E+02  0.29845983819E+02  0.23609088565E+02  0.49940802189E+02  0.47000000000E+01 0. -1.
         -5    1    1    2    0  502  0.50717116985E+02 -0.34547257204E+02  0.10589941188E+03  0.12248475159E+03  0.47000000000E+01 0.  1.
          5    1    3    3  503    0 -0.42406696575E+02 -0.56438514006E+01  0.12814315892E+03  0.13517743951E+03  0.47000000000E+01 0. -1.
         -5    1    3    3    0  503  0.23686796816E+02  0.10345124785E+02  0.10834262513E+01  0.26293530814E+02  0.47000000000E+01 0.  1.
<mgrwt>
<rscale>  0 0.10931762E+03</rscale>
<asrwt>0</asrwt>
<pdfrwt beam="1">  1        2 0.45587045E-01 0.11383374E+03</pdfrwt>
<pdfrwt beam="2">  1       -2 0.57816493E-02 0.11383374E+03</pdfrwt>
<totfact> 0.16031311E+04</totfact>
</mgrwt>
</event>
<event>
 7    1  0.1378876E-005  0.1205758E+03  0.7546771E-02  0.1264914E+00
          4   -1    0    0  501    0  0.00000000000E+00  0.00000000000E+00  0.11103443836E+04  0.11103443836E+04  0.00000000000E+00 0. -1.
         -4   -1    0    0    0  501 -0.00000000000E+00 -0.00000000000E+00 -0.14954547337E+02  0.14954547337E+02  0.00000000000E+00 0.  1.
         23    2    1    2    0    0  0.53480667281E+02 -0.50334220374E+02  0.97578400524E+03  0.98320544177E+03  0.95628449399E+02 0.  0.
          5    1    1    2  502    0 -0.15812818697E+02  0.14139466170E+02  0.53246929654E+02  0.57509088467E+02  0.47000000000E+01 0. -1.
         -5    1    3    3    0  503  0.76653942449E+02 -0.16437574259E+02  0.68822125347E+03  0.69268795606E+03  0.47000000000E+01 0.  1.
          5    1    3    3  503    0 -0.23173275168E+02 -0.33896646115E+02  0.28756275177E+03  0.29051748572E+03  0.47000000000E+01 0. -1.
         -5    1    1    2    0  502 -0.37667848583E+02  0.36194754204E+02  0.66358901321E+02  0.84584400650E+02  0.47000000000E+01 0.  1.
<mgrwt>
<rscale>  0 0.10768703E+03</rscale>
<asrwt>0</asrwt>
<pdfrwt beam="1">  1        4 0.17082215E+00 0.12057577E+03</pdfrwt>
<pdfrwt beam="2">  1       -4 0.23007005E-02 0.12057577E+03</pdfrwt>
<totfact> 0.30279195E+02</totfact>
</mgrwt>
</event>
<event>
 7    1  0.1378876E-005  0.2629955E+03  0.7546771E-02  0.1105682E+00
         -2   -1    0    0    0  501 -0.00000000000E+00  0.00000000000E+00  0.12942758604E+03  0.12942758604E+03  0.00000000000E+00 0.  1.
          2   -1    0    0  501    0  0.00000000000E+00 -0.00000000000E+00 -0.53150640284E+03  0.53150640284E+03  0.00000000000E+00 0. -1.
         23    2    1    2    0    0  0.25255650121E+02  0.24529099921E+03 -0.18406092672E+03  0.32100629796E+03  0.91439031225E+02 0.  0.
          5    1    1    2  502    0  0.23787430966E+02 -0.41666096539E+02 -0.21873678940E+02  0.52938202681E+02  0.47000000000E+01 0. -1.
         -5    1    1    2    0  502 -0.49043081087E+02 -0.20362490267E+03 -0.19614421115E+03  0.28698948824E+03  0.47000000000E+01 0.  1.
          5    1    3    3  503    0  0.88281615629E+01  0.21387029516E+03 -0.11452095223E+03  0.24280769775E+03  0.47000000000E+01 0. -1.
         -5    1    3    3    0  503  0.16427488558E+02  0.31420704054E+02 -0.69539974488E+02  0.78198600214E+02  0.47000000000E+01 0.  1.
<mgrwt>
<rscale>  0 0.26244603E+03</rscale>
<asrwt>0</asrwt>
<pdfrwt beam="1">  1        2 0.81770216E-01 0.26299547E+03</pdfrwt>
<pdfrwt beam="2">  1       -2 0.19911936E-01 0.26299547E+03</pdfrwt>
<totfact> 0.12304530E+03</totfact>
</mgrwt>
</event>
<event>
 7    1  0.1378876E-005  0.1619881E+03  0.7546771E-02  0.1193581E+00
         -2   -1    0    0    0  501 -0.00000000000E+00  0.00000000000E+00  0.11756236309E+03  0.11756236309E+03  0.00000000000E+00 0.  1.
          2   -1    0    0  501    0  0.00000000000E+00 -0.00000000000E+00 -0.19287954933E+03  0.19287954933E+03  0.00000000000E+00 0. -1.
         23    2    1    2    0    0  0.60547737529E+02  0.84208359439E+02 -0.23864262859E+02  0.14047855664E+03  0.91693214120E+02 0.  0.
          5    1    1    2  502    0 -0.20096677568E+02 -0.49850475307E+02 -0.89491388814E+02  0.10449758375E+03  0.47000000000E+01 0. -1.
         -5    1    3    3    0  503  0.65601267017E+02  0.26923819708E+02 -0.38675337582E+02  0.80909146819E+02  0.47000000000E+01 0.  1.
          5    1    3    3  503    0 -0.50535294877E+01  0.57284539731E+02  0.14811074723E+02  0.59569409825E+02  0.47000000000E+01 0. -1.
         -5    1    1    2    0  502 -0.40451059961E+02 -0.34357884131E+02  0.38038465437E+02  0.65465772025E+02  0.47000000000E+01 0. -1.
<mgrwt>
<rscale>  0 0.15574895E+03</rscale>
<asrwt>0</asrwt>
<pdfrwt beam="1">  1        2 0.29673776E-01 0.16198808E+03</pdfrwt>
<pdfrwt beam="2">  1       -2 0.18086518E-01 0.16198808E+03</pdfrwt>
<totfact> 0.42942410E+03</totfact>
</mgrwt>
</event>
<event>
 7    1  0.1378876E-005  0.1108100E+03  0.7546771E-02  0.1282578E+00
          2   -1    0    0  501    0  0.00000000000E+00  0.00000000000E+00  0.26183920899E+03  0.26183920899E+03  0.00000000000E+00 0. -1.
         -2   -1    0    0    0  501 -0.00000000000E+00 -0.00000000000E+00 -0.32273616801E+02  0.32273616801E+02  0.00000000000E+00 0.  1.
         23    2    1    2    0    0 -0.54626850866E+02  0.37454024707E+02  0.11532658117E+03  0.15993460450E+03  0.88836707452E+02 0.  0.
          5    1    3    3  502    0 -0.55919181476E+02 -0.23677976676E+01  0.10408177944E+03  0.11826947254E+03  0.47000000000E+01 0. -1.
         -5    1    3    3    0  502  0.12923306096E+01  0.39821822375E+02  0.11244801727E+02  0.41665131964E+02  0.47000000000E+01 0.  1.
          5    1    1    2  503    0  0.20389296685E+02 -0.24352525701E+02  0.66125836857E+02  0.73508402427E+02  0.47000000000E+01 0. -1.
         -5    1    1    2    0  503  0.34237554180E+02 -0.13101499006E+02  0.48113174155E+02  0.60669818854E+02  0.47000000000E+01 0.  1.
<mgrwt>
<rscale>  0 0.98922582E+02</rscale>
<asrwt>0</asrwt>
<pdfrwt beam="1">  1        2 0.40282954E-01 0.11081001E+03</pdfrwt>
<pdfrwt beam="2">  1       -2 0.49651720E-02 0.11081001E+03</pdfrwt>
<totfact> 0.22887109E+04</totfact>
</mgrwt>
</event>
<event>
 7    1  0.1378876E-005  0.1381797E+03  0.7546771E-02  0.1222110E+00
          1   -1    0    0  501    0  0.00000000000E+00  0.00000000000E+00  0.44967687250E+02  0.44967687250E+02  0.00000000000E+00 0. -1.
         -1   -1    0    0    0  501 -0.00000000000E+00 -0.00000000000E+00 -0.37388843743E+03  0.37388843743E+03  0.00000000000E+00 0.  1.
         23    2    1    2    0    0 -0.58027001033E+02  0.82591652949E+02 -0.18234189516E+03  0.22878416661E+03  0.94366912498E+02 0.  0.
          5    1    3    3  502    0 -0.55918263463E+02  0.56403031708E+02 -0.50429411024E+02  0.94198565121E+02  0.47000000000E+01 0. -1.
         -5    1    1    2    0  503  0.71576805460E+02 -0.58088375235E+02 -0.10612031588E+03  0.14064533359E+03  0.47000000000E+01 0.  1.
          5    1    1    2  503    0 -0.13549804427E+02 -0.24503277714E+02 -0.40458539136E+02  0.49426624482E+02  0.47000000000E+01 0. -1.
         -5    1    3    3    0  502 -0.21087375698E+01  0.26188621241E+02 -0.13191248414E+03  0.13458560149E+03  0.47000000000E+01 0.  1.
<mgrwt>
<rscale>  0 0.13366976E+03</rscale>
<asrwt>0</asrwt>
<pdfrwt beam="1">  1        1 0.69181054E-02 0.13817970E+03</pdfrwt>
<pdfrwt beam="2">  1       -1 0.57521300E-01 0.13817970E+03</pdfrwt>
<totfact> 0.32244471E+03</totfact>
</mgrwt>
</event>
<event>
 7    1  0.1378876E-005  0.1257616E+03  0.7546771E-02  0.1247812E+00
          2   -1    0    0  501    0  0.00000000000E+00  0.00000000000E+00  0.99143984643E+03  0.99143984643E+03  0.00000000000E+00 0. -1.
         -2   -1    0    0    0  501 -0.00000000000E+00 -0.00000000000E+00 -0.12600342137E+02  0.12600342137E+02  0.00000000000E+00 0.  1.
         23    2    1    2    0    0 -0.65235466131E+02 -0.57290001293E+02  0.63700846562E+03  0.64930406789E+03  0.90984487812E+02 0.  0.
          5    1    1    2  502    0  0.31914281931E+02  0.13867811571E+02  0.19126380056E+03  0.19446019900E+03  0.47000000000E+01 0. -1.
         -5    1    3    3    0  503 -0.87306822106E+02 -0.49001515914E+02  0.46948503031E+03  0.48006448883E+03  0.47000000000E+01 0.  1.
          5    1    3    3  503    0  0.22071355975E+02 -0.82884853786E+01  0.16752343531E+03  0.16923957906E+03  0.47000000000E+01 0. -1.
         -5    1    1    2    0  502  0.33321184200E+02  0.43422189722E+02  0.15056723811E+03  0.16027592168E+03  0.47000000000E+01 0. -1.
<mgrwt>
<rscale>  0 0.11718623E+03</rscale>
<asrwt>0</asrwt>
<pdfrwt beam="1">  1        2 0.15252914E+00 0.12576163E+03</pdfrwt>
<pdfrwt beam="2">  1       -2 0.19385150E-02 0.12576163E+03</pdfrwt>
<totfact> 0.20388195E+04</totfact>
</mgrwt>
</event>
<event>
 7    1  0.1378876E-005  0.1169393E+03  0.7546771E-02  0.1268691E+00
          1   -1    0    0  501    0  0.00000000000E+00  0.00000000000E+00  0.23676949858E+03  0.23676949858E+03  0.00000000000E+00 0. -1.
         -1   -1    0    0    0  501 -0.00000000000E+00 -0.00000000000E+00 -0.40324829227E+02  0.40324829227E+02  0.00000000000E+00 0.  1.
         23    2    1    2    0    0 -0.69675877919E+01  0.72320078525E+02  0.12572861185E+03  0.17170465751E+03  0.91630041651E+02 0.  0.
          5    1    1    2  502    0  0.12407311291E+02 -0.45852705675E+02  0.58119656873E+02  0.75209018782E+02  0.47000000000E+01 0. -1.
         -5    1    3    3    0  503  0.34441370500E+01  0.36093544667E+02  0.12851816914E+03  0.13361742343E+03  0.47000000000E+01 0.  1.
          5    1    3    3  503    0 -0.10411724842E+02  0.36226533858E+02 -0.27895572821E+01  0.38087234073E+02  0.47000000000E+01 0.  1.
         -5    1    1    2    0  502 -0.54397234992E+01 -0.26467372850E+02  0.12596400626E+02  0.30180651518E+02  0.47000000000E+01 0. -1.
<mgrwt>
<rscale>  0 0.10572848E+03</rscale>
<asrwt>0</asrwt>
<pdfrwt beam="1">  1        1 0.36426076E-01 0.11693932E+03</pdfrwt>
<pdfrwt beam="2">  1       -1 0.62038200E-02 0.11693932E+03</pdfrwt>
<totfact> 0.13906375E+04</totfact>
</mgrwt>
</event>
<event>
 7    1  0.1378876E-005  0.1119440E+03  0.7546771E-02  0.1271164E+00
         -2   -1    0    0    0  501 -0.00000000000E+00  0.00000000000E+00  0.46033624759E+03  0.46033624759E+03  0.00000000000E+00 0.  1.
          2   -1    0    0  501    0  0.00000000000E+00 -0.00000000000E+00 -0.21132700457E+02  0.21132700457E+02  0.00000000000E+00 0. -1.
         23    2    1    2    0    0  0.62347454344E+02 -0.17096202793E+01  0.26484031860E+03  0.28752713085E+03  0.92958747612E+02 0.  0.
          5    1    3    3  502    0 -0.46184266911E+01  0.34466656898E+02  0.70212535236E+02  0.78493123311E+02  0.47000000000E+01 0. -1.
         -5    1    3    3    0  502  0.66965881035E+02 -0.36176277177E+02  0.19462778336E+03  0.20903400754E+03  0.47000000000E+01 0.  1.
          5    1    1    2  503    0 -0.42571062855E+02 -0.19853313092E+02  0.63127816201E+02  0.78826775982E+02  0.47000000000E+01 0. -1.
         -5    1    1    2    0  503 -0.19776391489E+02  0.21562933371E+02  0.11123541233E+03  0.11511504121E+03  0.47000000000E+01 0.  1.
<mgrwt>
<rscale>  0 0.10447183E+03</rscale>
<asrwt>0</asrwt>
<pdfrwt beam="1">  1        2 0.32511850E-02 0.11194399E+03</pdfrwt>
<pdfrwt beam="2">  1       -2 0.70820954E-01 0.11194399E+03</pdfrwt>
<totfact> 0.48618958E+03</totfact>
</mgrwt>
</event>
<event>
 7    1  0.1378876E-005  0.2733060E+03  0.7546771E-02  0.1099402E+00
          2   -1    0    0  501    0  0.00000000000E+00  0.00000000000E+00  0.18341851729E+03  0.18341851729E+03  0.00000000000E+00 0. -1.
         -2   -1    0    0    0  501 -0.00000000000E+00 -0.00000000000E+00 -0.10181113489E+03  0.10181113489E+03  0.00000000000E+00 0.  1.
         23    2    1    2    0    0 -0.51895190664E+02  0.47586296431E+01  0.48967241905E+01  0.10422274312E+03  0.90125728323E+02 0.  0.
          5    1    3    3  502    0 -0.58841143229E+02  0.27497723819E+02  0.27866393621E+02  0.70831002006E+02  0.47000000000E+01 0. -1.
         -5    1    3    3    0  502  0.69459525653E+01 -0.22739094176E+02 -0.22969669430E+02  0.33391741115E+02  0.47000000000E+01 0.  1.
          5    1    1    2  503    0  0.94235633252E+02 -0.20598119479E+00  0.95478411274E+02  0.13423343109E+03  0.47000000000E+01 0. -1.
         -5    1    1    2    0  503 -0.42340442588E+02 -0.45526484483E+01 -0.18767753062E+02  0.46773477971E+02  0.47000000000E+01 0.  1.
<mgrwt>
<rscale>  0 0.27330604E+03</rscale>
<asrwt>0</asrwt>
<pdfrwt beam="1">  1        2 0.28218233E-01 0.27330604E+03</pdfrwt>
<pdfrwt beam="2">  1       -2 0.15663252E-01 0.27330604E+03</pdfrwt>
<totfact> 0.59320854E+03</totfact>
</mgrwt>
</event>
<event>
 7    1  0.1378876E-005  0.9117029E+02  0.7546771E-02  0.1309025E+00
         -2   -1    0    0    0  501 -0.00000000000E+00  0.00000000000E+00  0.45567231966E+02  0.45567231966E+02  0.00000000000E+00 0.  1.
          2   -1    0    0  501    0  0.00000000000E+00 -0.00000000000E+00 -0.17912428106E+03  0.17912428106E+03  0.00000000000E+00 0. -1.
         23    2    1    2    0    0 -0.97164417607E+01 -0.41644149859E+01 -0.11196064846E+03  0.14438562221E+03  0.90555339459E+02 0.  0.
          5    1    3    3  502    0  0.15997669172E+02 -0.41985796332E+02 -0.56968662489E+02  0.72706609179E+02  0.47000000000E+01 0. -1.
         -5    1    1    2    0  503  0.29574694225E+02 -0.25334923391E+02 -0.20863342211E+02  0.44428481068E+02  0.47000000000E+01 0. -1.
          5    1    1    2  503    0 -0.19858252465E+02  0.29499338377E+02 -0.73305842119E+00  0.35877409749E+02  0.47000000000E+01 0.  1.
         -5    1    3    3    0  502 -0.25714110932E+02  0.37821381346E+02 -0.54991985976E+02  0.71679013034E+02  0.47000000000E+01 0.  1.
<mgrwt>
<rscale>  0 0.87498684E+02</rscale>
<asrwt>0</asrwt>
<pdfrwt beam="1">  1        2 0.27557581E-01 0.91170286E+02</pdfrwt>
<pdfrwt beam="2">  1       -2 0.70103435E-02 0.91170286E+02</pdfrwt>
<totfact> 0.20000044E+04</totfact>
</mgrwt>
</event>
<event>
 7    1  0.1378876E-005  0.3150211E+03  0.7546771E-02  0.1077964E+00
          1   -1    0    0  501    0  0.00000000000E+00  0.00000000000E+00  0.65655637100E+02  0.65655637100E+02  0.00000000000E+00 0. -1.
         -1   -1    0    0    0  501 -0.00000000000E+00 -0.00000000000E+00 -0.37787419734E+03  0.37787419734E+03  0.00000000000E+00 0.  1.
         23    2    1    2    0    0 -0.25780918685E+01  0.71187370176E+02 -0.12043029246E+03  0.16721976417E+03  0.91568040035E+02 0.  0.
          5    1    1    2  502    0 -0.14890450937E+01 -0.12660261063E+03 -0.17865634483E+03  0.21902195739E+03  0.47000000000E+01 0. -1.
         -5    1    3    3    0  503 -0.36057812519E+02  0.72377915509E+02 -0.73557793732E+02  0.10941465860E+03  0.47000000000E+01 0.  1.
          5    1    3    3  503    0  0.33479720650E+02 -0.11905453332E+01 -0.46872498731E+02  0.57805105573E+02  0.47000000000E+01 0. -1.
         -5    1    1    2    0  502  0.40671369622E+01  0.55415240452E+02 -0.13131922956E+02  0.57288112885E+02  0.47000000000E+01 0.  1.
<mgrwt>
<rscale>  0 0.31502109E+03</rscale>
<asrwt>0</asrwt>
<pdfrwt beam="1">  1        1 0.10100867E-01 0.31502109E+03</pdfrwt>
<pdfrwt beam="2">  1       -1 0.58134492E-01 0.31502109E+03</pdfrwt>
<totfact> 0.19579379E+03</totfact>
</mgrwt>
</event>
<event>
 7    1  0.1378876E-005  0.1295251E+03  0.7546771E-02  0.1235777E+00
          1   -1    0    0  501    0  0.00000000000E+00  0.00000000000E+00  0.53855067443E+03  0.53855067443E+03  0.00000000000E+00 0. -1.
         -1   -1    0    0    0  501 -0.00000000000E+00 -0.00000000000E+00 -0.27202068157E+02  0.27202068157E+02  0.00000000000E+00 0.  1.
         23    2    1    2    0    0  0.68882234048E+01 -0.89062257760E+02  0.30980117812E+03  0.33578792322E+03  0.93793528758E+02 0.  0.
          5    1    3    3  502    0 -0.41361340317E+02 -0.47295126334E+02  0.18677229844E+03  0.19711309168E+03  0.47000000000E+01 0. -1.
         -5    1    1    2    0  503  0.88947972412E+01  0.72227355256E+02  0.19044345577E+03  0.20392819352E+03  0.47000000000E+01 0.  1.
          5    1    1    2  503    0 -0.15783020646E+02  0.16834902504E+02  0.11103972383E+02  0.26036625851E+02  0.47000000000E+01 0. -1.
         -5    1    3    3    0  502  0.48249563722E+02 -0.41767131426E+02  0.12302887968E+03  0.13867483154E+03  0.47000000000E+01 0.  1.
<mgrwt>
<rscale>  0 0.12454827E+03</rscale>
<asrwt>0</asrwt>
<pdfrwt beam="1">  1        1 0.82853942E-01 0.12952513E+03</pdfrwt>
<pdfrwt beam="2">  1       -1 0.41849340E-02 0.12952513E+03</pdfrwt>
<totfact> 0.89395879E+03</totfact>
</mgrwt>
</event>
<event>
 7    1  0.1378876E-005  0.9303885E+02  0.7546771E-02  0.1305652E+00
         -2   -1    0    0    0  501 -0.00000000000E+00  0.00000000000E+00  0.80795522017E+02  0.80795522017E+02  0.00000000000E+00 0.  1.
          2   -1    0    0  501    0  0.00000000000E+00 -0.00000000000E+00 -0.10660854813E+03  0.10660854813E+03  0.00000000000E+00 0. -1.
         23    2    1    2    0    0  0.13632837238E+02 -0.75430263798E+01 -0.50892651401E+02  0.10604852053E+03  0.91724997909E+02 0.  0.
          5    1    3    3  502    0  0.30461377791E+02  0.23679561928E+02 -0.57756590603E+02  0.69617030590E+02  0.47000000000E+01 0. -1.
         -5    1    1    2    0  503  0.28588854331E+02  0.56336852765E+01  0.25231153941E+02  0.38829912837E+02  0.47000000000E+01 0.  1.
          5    1    1    2  503    0 -0.42221691570E+02  0.19093411033E+01 -0.15152864957E+00  0.42525636778E+02  0.47000000000E+01 0. -1.
         -5    1    3    3    0  502 -0.16828540552E+02 -0.31222588308E+02  0.68639392026E+01  0.36431489938E+02  0.47000000000E+01 0.  1.
<mgrwt>
<rscale>  0 0.88853433E+02</rscale>
<asrwt>0</asrwt>
<pdfrwt beam="1">  1        2 0.16401315E-01 0.93038845E+02</pdfrwt>
<pdfrwt beam="2">  1       -2 0.12430080E-01 0.93038845E+02</pdfrwt>
<totfact> 0.14690918E+04</totfact>
</mgrwt>
</event>
<event>
 7    1  0.1378876E-005  0.1232310E+03  0.7546771E-02  0.1254872E+00
          2   -1    0    0  501    0  0.00000000000E+00  0.00000000000E+00  0.10351360821E+04  0.10351360821E+04  0.00000000000E+00 0. -1.
         -2   -1    0    0    0  501 -0.00000000000E+00 -0.00000000000E+00 -0.10731604847E+02  0.10731604847E+02  0.00000000000E+00 0.  1.
         23    2    1    2    0    0 -0.72978348066E+02 -0.24187188018E+02  0.59170132695E+03  0.60439750183E+03  0.96306908152E+02 0.  0.
          5    1    3    3  502    0 -0.46093843106E+02 -0.57159480546E+02  0.26943591186E+03  0.27930207516E+03  0.47000000000E+01 0. -1.
         -5    1    1    2    0  503  0.21421094334E+02  0.21793406371E+02  0.23751064543E+03  0.23951453513E+03  0.47000000000E+01 0.  1.
          5    1    1    2  503    0  0.51557253732E+02  0.23937816470E+01  0.19519250483E+03  0.20195564995E+03  0.47000000000E+01 0.  1.
         -5    1    3    3    0  502 -0.26884504960E+02  0.32972292528E+02  0.32226541508E+03  0.32509542667E+03  0.47000000000E+01 0. -1.
<mgrwt>
<rscale>  0 0.11313482E+03</rscale>
<asrwt>0</asrwt>
<pdfrwt beam="1">  1        2 0.15925163E+00 0.12323100E+03</pdfrwt>
<pdfrwt beam="2">  1       -2 0.16510169E-02 0.12323100E+03</pdfrwt>
<totfact> 0.24185720E+04</totfact>
</mgrwt>
</event>
<event>
 7    1  0.1378876E-005  0.1065005E+03  0.7546771E-02  0.1269169E+00
          1   -1    0    0  501    0  0.00000000000E+00  0.00000000000E+00  0.68479402727E+03  0.68479402727E+03  0.00000000000E+00 0. -1.
         -1   -1    0    0    0  501 -0.00000000000E+00 -0.00000000000E+00 -0.17109315855E+02  0.17109315855E+02  0.00000000000E+00 0.  1.
         23    2    1    2    0    0  0.49601838259E+02  0.19408807961E+02  0.41938477065E+03  0.43172706542E+03  0.87564998569E+02 0.  0.
          5    1    1    2  502    0 -0.26673612779E+02 -0.46643563207E+02  0.21336418796E+03  0.22007605574E+03  0.47000000000E+01 0. -1.
         -5    1    1    2    0  502 -0.22928225480E+02  0.27234755247E+02  0.34935752799E+02  0.50100221962E+02  0.47000000000E+01 0.  1.
          5    1    3    3  503    0  0.74681520891E+02  0.13148156018E+02  0.29813096577E+03  0.30765949736E+03  0.47000000000E+01 0. -1.
         -5    1    3    3    0  503 -0.25079682632E+02  0.62606519427E+01  0.12125380489E+03  0.12406756805E+03  0.47000000000E+01 0.  1.
<mgrwt>
<rscale>  0 0.10548400E+03</rscale>
<asrwt>0</asrwt>
<pdfrwt beam="1">  1        1 0.10535291E+00 0.10650052E+03</pdfrwt>
<pdfrwt beam="2">  1       -1 0.26322030E-02 0.10650052E+03</pdfrwt>
<totfact> 0.12479083E+04</totfact>
</mgrwt>
</event>
<event>
 7    1  0.1378876E-005  0.1554634E+03  0.7546771E-02  0.1195123E+00
         -2   -1    0    0    0  501 -0.00000000000E+00  0.00000000000E+00  0.36998453535E+02  0.36998453535E+02  0.00000000000E+00 0.  1.
          2   -1    0    0  501    0  0.00000000000E+00 -0.00000000000E+00 -0.78196193206E+03  0.78196193206E+03  0.00000000000E+00 0. -1.
         23    2    1    2    0    0 -0.43264068600E+02 -0.10953335443E+03 -0.55321683661E+03  0.57464575455E+03  0.10148664713E+03 0.  0.
          5    1    1    2  502    0 -0.25937140585E+02  0.64783486357E+01 -0.32355924786E+02  0.42233874219E+02  0.47000000000E+01 0. -1.
         -5    1    1    2    0  502  0.69201209184E+02  0.10305500580E+03 -0.15939071713E+03  0.20208075682E+03  0.47000000000E+01 0.  1.
          5    1    3    3  503    0 -0.64610005808E+02 -0.77660193804E+02 -0.49172730766E+03  0.50201931601E+03  0.47000000000E+01 0. -1.
         -5    1    3    3    0  503  0.21345937209E+02 -0.31873160630E+02 -0.61489528953E+02  0.72626438538E+02  0.47000000000E+01 0.  1.
<mgrwt>
<rscale>  0 0.15443821E+03</rscale>
<asrwt>0</asrwt>
<pdfrwt beam="1">  1        2 0.12030183E+00 0.15546342E+03</pdfrwt>
<pdfrwt beam="2">  1       -2 0.56920699E-02 0.15546342E+03</pdfrwt>
<totfact> 0.57168850E+03</totfact>
</mgrwt>
</event>
<event>
 7    1  0.1378876E-005  0.1144680E+03  0.7546771E-02  0.1256612E+00
          2   -1    0    0  501    0  0.00000000000E+00  0.00000000000E+00  0.51710646591E+02  0.51710646591E+02  0.00000000000E+00 0. -1.
         -2   -1    0    0    0  501 -0.00000000000E+00 -0.00000000000E+00 -0.26617499388E+03  0.26617499388E+03  0.00000000000E+00 0.  1.
         23    2    1    2    0    0  0.70918964565E+01 -0.67648928067E+02 -0.55835631580E+02  0.12735984408E+03  0.92066495897E+02 0.  0.
          5    1    3    3  502    0  0.35023779283E+02 -0.50149578605E+02  0.11508675970E+01  0.61360083489E+02  0.47000000000E+01 0. -1.
         -5    1    1    2    0  503  0.27515903027E+02  0.36346761713E+02 -0.33130218217E+02  0.56550096070E+02  0.47000000000E+01 0.  1.
          5    1    1    2  503    0 -0.34607799483E+02  0.31302166354E+02 -0.12549849749E+03  0.13397570032E+03  0.47000000000E+01 0. -1.
         -5    1    3    3    0  502 -0.27931882827E+02 -0.17499349461E+02 -0.56986499177E+02  0.65999760592E+02  0.47000000000E+01 0.  1.
<mgrwt>
<rscale>  0 0.11216543E+03</rscale>
<asrwt>0</asrwt>
<pdfrwt beam="1">  1        2 0.79554842E-02 0.11446795E+03</pdfrwt>
<pdfrwt beam="2">  1       -2 0.40949999E-01 0.11446795E+03</pdfrwt>
<totfact> 0.45817404E+03</totfact>
</mgrwt>
</event>
<event>
 7    1  0.1378876E-005  0.1438900E+03  0.7546771E-02  0.1218603E+00
         -1   -1    0    0    0  501 -0.00000000000E+00  0.00000000000E+00  0.38792057998E+02  0.38792057998E+02  0.00000000000E+00 0.  1.
          1   -1    0    0  501    0  0.00000000000E+00 -0.00000000000E+00 -0.45232458333E+03  0.45232458333E+03  0.00000000000E+00 0. -1.
         23    2    1    2    0    0  0.10257762032E+01 -0.11207447137E+03 -0.27890234257E+03  0.31383252514E+03  0.90236344091E+02 0.  0.
          5    1    3    3  502    0  0.16916542560E+02 -0.49732833061E+02 -0.22081725777E+03  0.22702835820E+03  0.47000000000E+01 0. -1.
         -5    1    3    3    0  502 -0.15890766357E+02 -0.62341638306E+02 -0.58085084798E+02  0.86804166939E+02  0.47000000000E+01 0.  1.
          5    1    1    2  503    0 -0.35407660690E+00  0.33423745838E+02 -0.23807650275E+02  0.41305766761E+02  0.47000000000E+01 0. -1.
         -5    1    1    2    0  503 -0.67169959631E+00  0.78650725529E+02 -0.11082253249E+03  0.13597834943E+03  0.47000000000E+01 0.  1.
<mgrwt>
<rscale>  0 0.13615146E+03</rscale>
<asrwt>0</asrwt>
<pdfrwt beam="1">  1        1 0.69588395E-01 0.14389002E+03</pdfrwt>
<pdfrwt beam="2">  1       -1 0.59680091E-02 0.14389002E+03</pdfrwt>
<totfact> 0.66797511E+03</totfact>
</mgrwt>
</event>
<event>
 7    1  0.1378876E-005  0.1274425E+03  0.7546771E-02  0.1232652E+00
         -2   -1    0    0    0  501 -0.00000000000E+00  0.00000000000E+00  0.38626443275E+03  0.38626443275E+03  0.00000000000E+00 0.  1.
          2   -1    0    0  501    0  0.00000000000E+00 -0.00000000000E+00 -0.55363354026E+02  0.55363354026E+02  0.00000000000E+00 0. -1.
         23    2    1    2    0    0 -0.21459501322E+02 -0.87435490786E+02  0.27999720362E+03  0.30763620483E+03  0.90200472501E+02 0.  0.
          5    1    3    3  502    0 -0.19682821590E+02  0.12758526224E+02  0.85598270696E+02  0.88878272954E+02  0.47000000000E+01 0. -1.
         -5    1    3    3    0  502 -0.17766797319E+01 -0.10019401701E+03  0.19439893292E+03  0.21875793187E+03  0.47000000000E+01 0.  1.
          5    1    1    2  503    0 -0.10295814251E+02  0.90356569084E+02  0.43496544317E+02  0.10091755415E+03  0.47000000000E+01 0. -1.
         -5    1    1    2    0  503  0.31755315573E+02 -0.29210782981E+01  0.74073307864E+01  0.33074027801E+02  0.47000000000E+01 0.  1.
<mgrwt>
<rscale>  0 0.12655919E+03</rscale>
<asrwt>0</asrwt>
<pdfrwt beam="1">  1        2 0.85174393E-02 0.12744254E+03</pdfrwt>
<pdfrwt beam="2">  1       -2 0.59425296E-01 0.12744254E+03</pdfrwt>
<totfact> 0.20358330E+03</totfact>
</mgrwt>
</event>
<event>
 7    1  0.1378876E-005  0.9974940E+02  0.7546771E-02  0.1295202E+00
          2   -1    0    0  501    0  0.00000000000E+00  0.00000000000E+00  0.36726067818E+02  0.36726067818E+02  0.00000000000E+00 0. -1.
         -2   -1    0    0    0  501 -0.00000000000E+00 -0.00000000000E+00 -0.21157027771E+03  0.21157027771E+03  0.00000000000E+00 0.  1.
         23    2    1    2    0    0 -0.21239648449E+02 -0.35645818613E+02 -0.10752020980E+03  0.14666471507E+03  0.90709404573E+02 0.  0.
          5    1    1    2  502    0  0.15961668111E+02 -0.15891407808E+02 -0.29001561833E+02  0.37020160450E+02  0.47000000000E+01 0. -1.
         -5    1    1    2    0  502  0.52779803385E+01  0.51537226420E+02 -0.38322438256E+02  0.64611470015E+02  0.47000000000E+01 0.  1.
          5    1    3    3  503    0 -0.21107455332E+02 -0.60123765849E+02 -0.10318413260E+03  0.12136493361E+03  0.47000000000E+01 0. -1.
         -5    1    3    3    0  503 -0.13219311693E+00  0.24477947237E+02 -0.43360772025E+01  0.25299781451E+02  0.47000000000E+01 0.  1.
<mgrwt>
<rscale>  0 0.93234823E+02</rscale>
<asrwt>0</asrwt>
<pdfrwt beam="1">  1        2 0.56501643E-02 0.99749402E+02</pdfrwt>
<pdfrwt beam="2">  1       -2 0.32549273E-01 0.99749402E+02</pdfrwt>
<totfact> 0.10678628E+04</totfact>
</mgrwt>
</event>
<event>
 7    1  0.1378876E-005  0.1007501E+03  0.7546771E-02  0.1291574E+00
          2   -1    0    0  501    0  0.00000000000E+00  0.00000000000E+00  0.51145422148E+03  0.51145422148E+03  0.00000000000E+00 0. -1.
         -2   -1    0    0    0  501 -0.00000000000E+00 -0.00000000000E+00 -0.17446007620E+02  0.17446007620E+02  0.00000000000E+00 0.  1.
         23    2    1    2    0    0 -0.32414788424E+02  0.28800788176E+02  0.19337940446E+03  0.21805086016E+03  0.90941627654E+02 0.  0.
          5    1    3    3  502    0 -0.36267504972E+01 -0.26959503390E+02  0.11102692721E+03  0.11440732803E+03  0.47000000000E+01 0. -1.
         -5    1    1    2    0  503 -0.18933149218E+02 -0.12729225710E+02  0.63222467539E+02  0.67377056393E+02  0.47000000000E+01 0.  1.
          5    1    1    2  503    0  0.51347937642E+02 -0.16071562465E+02  0.23740634186E+03  0.24347231255E+03  0.47000000000E+01 0. -1.
         -5    1    3    3    0  502 -0.28788037927E+02  0.55760291565E+02  0.82352477254E+02  0.10364353213E+03  0.47000000000E+01 0.  1.
<mgrwt>
<rscale>  0 0.94823522E+02</rscale>
<asrwt>0</asrwt>
<pdfrwt beam="1">  1        2 0.78685253E-01 0.10075010E+03</pdfrwt>
<pdfrwt beam="2">  1       -2 0.26840016E-02 0.10075010E+03</pdfrwt>
<totfact> 0.27550799E+04</totfact>
</mgrwt>
</event>
<event>
 7    1  0.1378876E-005  0.1099651E+03  0.7546771E-02  0.1288583E+00
          1   -1    0    0  501    0  0.00000000000E+00  0.00000000000E+00  0.34178786479E+02  0.34178786479E+02  0.00000000000E+00 0. -1.
         -1   -1    0    0    0  501 -0.00000000000E+00 -0.00000000000E+00 -0.31616585632E+03  0.31616585632E+03  0.00000000000E+00 0.  1.
         23    2    1    2    0    0 -0.56373422836E+02 -0.17270681095E+02 -0.26014775221E+03  0.28243436280E+03  0.92822826304E+02 0.  0.
          5    1    3    3  502    0 -0.14327543214E+02  0.17827538787E+02 -0.19837313173E+03  0.19974255688E+03  0.47000000000E+01 0.  1.
         -5    1    3    3    0  502 -0.42045879622E+02 -0.35098219883E+02 -0.61774620479E+02  0.82691805927E+02  0.47000000000E+01 0.  1.
          5    1    1    2  503    0  0.38700551267E+02  0.26045979194E+00 -0.98744674766E+01  0.40216857357E+02  0.47000000000E+01 0. -1.
         -5    1    1    2    0  503  0.17672871569E+02  0.17010221304E+02 -0.11964850150E+02  0.27693422638E+02  0.47000000000E+01 0. -1.
<mgrwt>
<rscale>  0 0.96160904E+02</rscale>
<asrwt>0</asrwt>
<pdfrwt beam="1">  1        1 0.52582747E-02 0.10996507E+03</pdfrwt>
<pdfrwt beam="2">  1       -1 0.48640902E-01 0.10996507E+03</pdfrwt>
<totfact> 0.62684750E+03</totfact>
</mgrwt>
</event>
<event>
 7    1  0.1474510E-005  0.9672460E+02  0.7546771E-02  0.1307525E+00
          2   -1    0    0  501    0  0.00000000000E+00  0.00000000000E+00  0.94102245912E+03  0.94102245912E+03  0.00000000000E+00 0. -1.
         -2   -1    0    0    0  501 -0.00000000000E+00 -0.00000000000E+00 -0.79288180632E+01  0.79288180632E+01  0.00000000000E+00 0.  1.
         23    2    1    2    0    0  0.10068394819E+02 -0.52140732371E+02  0.39100334590E+03  0.40278935539E+03  0.80843180091E+02 0.  0.
          5    1    1    2  502    0 -0.24388389563E+02  0.28168043478E+02  0.34722609540E+03  0.34925103228E+03  0.47000000000E+01 0. -1.
         -5    1    3    3    0  503  0.28579731959E+02 -0.38611557048E+01  0.50450058237E+02  0.58301011812E+02  0.47000000000E+01 0.  1.
          5    1    3    3  503    0 -0.18511337140E+02 -0.48279576666E+02  0.34055328766E+03  0.34448834358E+03  0.47000000000E+01 0. -1.
         -5    1    1    2    0  502  0.14319994744E+02  0.23972688893E+02  0.19486419975E+03  0.19691088951E+03  0.47000000000E+01 0.  1.
<mgrwt>
<rscale>  0 0.88097766E+02</rscale>
<asrwt>0</asrwt>
<pdfrwt beam="1">  1        2 0.14477260E+00 0.96724600E+02</pdfrwt>
<pdfrwt beam="2">  1       -2 0.12198189E-02 0.96724600E+02</pdfrwt>
<totfact> 0.41510317E+04</totfact>
</mgrwt>
</event>
<event>
 7    1  0.1378876E-005  0.1323116E+03  0.7546771E-02  0.1247881E+00
         -1   -1    0    0    0  501 -0.00000000000E+00  0.00000000000E+00  0.89399816861E+02  0.89399816861E+02  0.00000000000E+00 0.  1.
          1   -1    0    0  501    0  0.00000000000E+00 -0.00000000000E+00 -0.19149564691E+03  0.19149564691E+03  0.00000000000E+00 0. -1.
         23    2    1    2    0    0 -0.40137734011E+02 -0.67946849926E+02  0.20397651973E+02  0.13387462185E+03  0.10620046169E+03 0.  0.
          5    1    3    3  502    0  0.26744122499E+02 -0.40048008881E+02 -0.18125992557E+02  0.51669456255E+02  0.47000000000E+01 0. -1.
         -5    1    1    2    0  503  0.22929886791E+02  0.46547221549E+02 -0.91913491609E+02  0.10565322277E+03  0.47000000000E+01 0.  1.
          5    1    1    2  503    0  0.17207847220E+02  0.21399628377E+02 -0.30579990410E+02  0.41367619150E+02  0.47000000000E+01 0. -1.
         -5    1    3    3    0  502 -0.66881856511E+02 -0.27898841045E+02  0.38523644530E+02  0.82205165591E+02  0.47000000000E+01 0.  1.
<mgrwt>
<rscale>  0 0.11714599E+03</rscale>
<asrwt>0</asrwt>
<pdfrwt beam="1">  1        1 0.29460869E-01 0.13231156E+03</pdfrwt>
<pdfrwt beam="2">  1       -1 0.13753818E-01 0.13231156E+03</pdfrwt>
<totfact> 0.54527461E+03</totfact>
</mgrwt>
</event>
<event>
 7    1  0.1378876E-005  0.2045721E+03  0.7546771E-02  0.1178693E+00
          2   -1    0    0  501    0  0.00000000000E+00  0.00000000000E+00  0.99082789536E+02  0.99082789536E+02  0.00000000000E+00 0. -1.
         -2   -1    0    0    0  501 -0.00000000000E+00 -0.00000000000E+00 -0.27841253145E+03  0.27841253145E+03  0.00000000000E+00 0.  1.
         23    2    1    2    0    0  0.24876690374E+02  0.17210486791E+02  0.13142069311E+02  0.96612537421E+02  0.90808688030E+02 0.  0.
          5    1    1    2  502    0 -0.11152384068E+03  0.13007585624E+02 -0.98191910992E+02  0.14923305836E+03  0.47000000000E+01 0. -1.
         -5    1    3    3    0  503  0.14042952463E+02 -0.28145152279E+02 -0.21450494384E+02  0.38361019539E+02  0.47000000000E+01 0.  1.
          5    1    3    3  503    0  0.10833737910E+02  0.45355639070E+02  0.34592563695E+02  0.58251517883E+02  0.47000000000E+01 0. -1.
         -5    1    1    2    0  502  0.86647150310E+02 -0.30218072415E+02 -0.94279900235E+02  0.13164972520E+03  0.47000000000E+01 0.  1.
<mgrwt>
<rscale>  0 0.16919177E+03</rscale>
<asrwt>0</asrwt>
<pdfrwt beam="1">  1        2 0.15243506E-01 0.20457209E+03</pdfrwt>
<pdfrwt beam="2">  1       -2 0.42832697E-01 0.20457209E+03</pdfrwt>
<totfact> 0.19684468E+03</totfact>
</mgrwt>
</event>
<event>
 6    1  0.1378876E-005  0.2144494E+03  0.7546771E-02  0.1168230E+00
          2   -1    0    0  501    0  0.00000000000E+00  0.00000000000E+00  0.74531150118E+02  0.74531150118E+02  0.00000000000E+00 0. -1.
         -2   -1    0    0    0  501 -0.00000000000E+00 -0.00000000000E+00 -0.46358088300E+03  0.46358088300E+03  0.00000000000E+00 0.  1.
          5    1    1    2  502    0  0.66834936808E+02 -0.57311137795E+02 -0.52788749403E+02  0.10276291820E+03  0.47000000000E+01 0. -1.
         -5    1    1    2    0  503 -0.79359767828E+02  0.10693572254E+02 -0.12664408377E+02  0.81208389202E+02  0.47000000000E+01 0.  1.
          5    1    1    2  503    0 -0.21753079211E+02 -0.11632615283E+02 -0.16755905638E+01  0.25167673655E+02  0.47000000000E+01 0. -1.
         -5    1    1    2    0  502  0.34277910230E+02  0.58250180824E+02 -0.32192098453E+03  0.32897305206E+03  0.47000000000E+01 0.  1.
<mgrwt>
<rscale>  0 0.17955979E+03</rscale>
<asrwt>0</asrwt>
<pdfrwt beam="1">  1        2 0.11466331E-01 0.21444944E+03</pdfrwt>
<pdfrwt beam="2">  1       -2 0.71320137E-01 0.21444944E+03</pdfrwt>
<totfact> 0.98292378E+02</totfact>
</mgrwt>
</event>
<event>
 7    1  0.1378876E-005  0.1155547E+03  0.7546771E-02  0.1281790E+00
          2   -1    0    0  501    0  0.00000000000E+00  0.00000000000E+00  0.98084755383E+02  0.98084755383E+02  0.00000000000E+00 0. -1.
         -2   -1    0    0    0  501 -0.00000000000E+00 -0.00000000000E+00 -0.10759368899E+03  0.10759368899E+03  0.00000000000E+00 0.  1.
         23    2    1    2    0    0  0.16516328311E+02 -0.56881141141E+02  0.43375420646E+02  0.12342733430E+03  0.99220090792E+02 0.  0.
          5    1    1    2  502    0 -0.89570810038E+01  0.29138369614E+02 -0.39692882801E+02  0.50268169143E+02  0.47000000000E+01 0. -1.
         -5    1    3    3    0  503  0.54277518693E+02 -0.10995446385E+02  0.16039483713E+02  0.57847246386E+02  0.47000000000E+01 0.  1.
          5    1    3    3  503    0 -0.37761190382E+02 -0.45885694756E+02  0.27335936933E+02  0.65580087910E+02  0.47000000000E+01 0. -1.
         -5    1    1    2    0  502 -0.75592473070E+01  0.27742771527E+02 -0.13191471455E+02  0.31982940937E+02  0.47000000000E+01 0.  1.
<mgrwt>
<rscale>  0 0.99293030E+02</rscale>
<asrwt>0</asrwt>
<pdfrwt beam="1">  1        2 0.15089962E-01 0.11555466E+03</pdfrwt>
<pdfrwt beam="2">  1       -2 0.16552875E-01 0.11555466E+03</pdfrwt>
<totfact> 0.10394480E+04</totfact>
</mgrwt>
</event>
<event>
 7    1  0.1378876E-005  0.9790981E+02  0.7546771E-02  0.1323507E+00
          2   -1    0    0  501    0  0.00000000000E+00  0.00000000000E+00  0.33421567657E+03  0.33421567657E+03  0.00000000000E+00 0. -1.
         -2   -1    0    0    0  501 -0.00000000000E+00 -0.00000000000E+00 -0.24842357897E+02  0.24842357897E+02  0.00000000000E+00 0.  1.
         23    2    1    2    0    0 -0.27713464265E+02 -0.20771730143E+02  0.85247384492E+02  0.12982082893E+03  0.91579638495E+02 0.  0.
          5    1    1    2  502    0  0.25625009625E+01  0.21133554952E+02  0.83316503623E+02  0.86121561366E+02  0.47000000000E+01 0.  1.
         -5    1    3    3    0  503 -0.58631566754E+02 -0.69800502077E+01  0.34228162465E+02  0.68410809282E+02  0.47000000000E+01 0.  1.
          5    1    3    3  503    0  0.30918102489E+02 -0.13791679936E+02  0.51019222028E+02  0.61410019649E+02  0.47000000000E+01 0. -1.
         -5    1    1    2    0  502  0.25150963303E+02 -0.36182480856E+00  0.14080943056E+03  0.14311564417E+03  0.47000000000E+01 0. -1.
<mgrwt>
<rscale>  0 0.81986350E+02</rscale>
<asrwt>0</asrwt>
<pdfrwt beam="1">  1        2 0.51417793E-01 0.97909811E+02</pdfrwt>
<pdfrwt beam="2">  1       -2 0.38219014E-02 0.97909811E+02</pdfrwt>
<totfact> 0.25757937E+04</totfact>
</mgrwt>
</event>
<event>
 7    1  0.1378876E-005  0.1166041E+03  0.7546771E-02  0.1278966E+00
          2   -1    0    0  501    0  0.00000000000E+00  0.00000000000E+00  0.13995371741E+03  0.13995371741E+03  0.00000000000E+00 0. -1.
         -2   -1    0    0    0  501 -0.00000000000E+00 -0.00000000000E+00 -0.92922873374E+02  0.92922873374E+02  0.00000000000E+00 0.  1.
         23    2    1    2    0    0  0.22531825658E+02 -0.58139721951E+02 -0.41025390291E+02  0.12361066492E+03  0.98532245471E+02 0.  0.
          5    1    1    2  502    0 -0.70568897995E+01  0.28194474049E+02  0.30439773926E+02  0.42348528867E+02  0.47000000000E+01 0. -1.
         -5    1    3    3    0  503 -0.18923842842E+02 -0.32889233886E+02 -0.60111823550E+02  0.71241384490E+02  0.47000000000E+01 0.  1.
          5    1    3    3  503    0  0.41455668500E+02 -0.25250488065E+02  0.19086433259E+02  0.52369280431E+02  0.47000000000E+01 0. -1.
         -5    1    1    2    0  502 -0.15474935859E+02  0.29945247902E+02  0.57616460404E+02  0.66917396999E+02  0.47000000000E+01 0. -1.
<mgrwt>
<rscale>  0 0.10063501E+03</rscale>
<asrwt>0</asrwt>
<pdfrwt beam="1">  1        2 0.21531341E-01 0.11660409E+03</pdfrwt>
<pdfrwt beam="2">  1       -2 0.14295827E-01 0.11660409E+03</pdfrwt>
<totfact> 0.88124333E+03</totfact>
</mgrwt>
</event>
<event>
 6    1  0.1378876E-005  0.1635343E+03  0.7546771E-02  0.1211771E+00
         -1   -1    0    0    0  501 -0.00000000000E+00  0.00000000000E+00  0.36393307551E+03  0.36393307551E+03  0.00000000000E+00 0.  1.
          1   -1    0    0  501    0  0.00000000000E+00 -0.00000000000E+00 -0.46769037422E+02  0.46769037422E+02  0.00000000000E+00 0. -1.
          5    1    1    2  502    0  0.61006795842E+02 -0.99235553696E+01  0.83011490706E+02  0.10360165867E+03  0.47000000000E+01 0. -1.
         -5    1    1    2    0  503 -0.10873663674E+02  0.48026896611E+02  0.28215624623E+02  0.56947614811E+02  0.47000000000E+01 0.  1.
          5    1    1    2  503    0  0.22171796451E+02  0.32408164960E+02  0.43211933147E+02  0.58576777653E+02  0.47000000000E+01 0. -1.
         -5    1    1    2    0  502 -0.72304928619E+02 -0.70511506202E+02  0.16272498961E+03  0.19157606180E+03  0.47000000000E+01 0.  1.
<mgrwt>
<rscale>  0 0.14116396E+03</rscale>
<asrwt>0</asrwt>
<pdfrwt beam="1">  1        1 0.71952368E-02 0.16353430E+03</pdfrwt>
<pdfrwt beam="2">  1       -1 0.55989702E-01 0.16353430E+03</pdfrwt>
<totfact> 0.32461965E+03</totfact>
</mgrwt>
</event>
<event>
 7    1  0.1378876E-005  0.1569463E+03  0.7546771E-02  0.1206352E+00
          2   -1    0    0  501    0  0.00000000000E+00  0.00000000000E+00  0.10315158764E+04  0.10315158764E+04  0.00000000000E+00 0. -1.
         -2   -1    0    0    0  501 -0.00000000000E+00 -0.00000000000E+00 -0.18357483919E+02  0.18357483919E+02  0.00000000000E+00 0.  1.
         23    2    1    2    0    0 -0.57811027374E+02  0.66007337758E+02  0.35529644654E+03  0.37354911845E+03  0.74861842388E+02 0.  0.
          5    1    3    3  502    0 -0.45271235976E+02  0.58934178642E+01  0.87993732164E+02  0.99243156343E+02  0.47000000000E+01 0. -1.
         -5    1    3    3    0  502 -0.12539791398E+02  0.60113919894E+02  0.26730271438E+03  0.27430596211E+03  0.47000000000E+01 0.  1.
          5    1    1    2  503    0  0.63127139217E+02 -0.95822710680E+02  0.59953531917E+03  0.61043567762E+03  0.47000000000E+01 0. -1.
         -5    1    1    2    0  503 -0.53161118435E+01  0.29815372921E+02  0.58326626768E+02  0.65888564241E+02  0.47000000000E+01 0.  1.
<mgrwt>
<rscale>  0 0.14531437E+03</rscale>
<asrwt>0</asrwt>
<pdfrwt beam="1">  1        2 0.15869470E+00 0.15694630E+03</pdfrwt>
<pdfrwt beam="2">  1       -2 0.28242291E-02 0.15694630E+03</pdfrwt>
<totfact> 0.11303802E+04</totfact>
</mgrwt>
</event>
<event>
 7    1  0.1378876E-005  0.3556552E+03  0.7546771E-02  0.1080235E+00
          2   -1    0    0  501    0  0.00000000000E+00  0.00000000000E+00  0.10383299387E+04  0.10383299387E+04  0.00000000000E+00 0. -1.
         -2   -1    0    0    0  501 -0.00000000000E+00 -0.00000000000E+00 -0.13220073545E+03  0.13220073545E+03  0.00000000000E+00 0.  1.
         23    2    1    2    0    0  0.52380695803E+02  0.17781249137E+03  0.97026529386E+01  0.20612870419E+03  0.89631924194E+02 0.  0.
          5    1    3    3  502    0  0.69019525292E+02  0.76592268055E+02  0.41726947068E+01  0.10329361925E+03  0.47000000000E+01 0. -1.
         -5    1    3    3    0  502 -0.16638829489E+02  0.10122022332E+03  0.55299582318E+01  0.10283508493E+03  0.47000000000E+01 0.  1.
          5    1    1    2  503    0  0.10035566378E+03 -0.16044627498E+03  0.61775769098E+03  0.64611215835E+03  0.47000000000E+01 0. -1.
         -5    1    1    2    0  503 -0.15273635959E+03 -0.17366216394E+02  0.27866885934E+03  0.31828981162E+03  0.47000000000E+01 0.  1.
<mgrwt>
<rscale>  0 0.31023161E+03</rscale>
<asrwt>0</asrwt>
<pdfrwt beam="1">  1        2 0.15974306E+00 0.35565517E+03</pdfrwt>
<pdfrwt beam="2">  1       -2 0.20338575E-01 0.35565517E+03</pdfrwt>
<totfact> 0.50697160E+02</totfact>
</mgrwt>
</event>
<event>
 7    1  0.1378876E-005  0.9553440E+02  0.7546771E-02  0.1306534E+00
         -1   -1    0    0    0  501 -0.00000000000E+00  0.00000000000E+00  0.17495278876E+02  0.17495278876E+02  0.00000000000E+00 0.  1.
          1   -1    0    0  501    0  0.00000000000E+00 -0.00000000000E+00 -0.44608540219E+03  0.44608540219E+03  0.00000000000E+00 0. -1.
         23    2    1    2    0    0 -0.25147728127E+02  0.13026779201E+02 -0.16397450010E+03  0.18977475481E+03  0.91239879851E+02 0.  0.
          5    1    1    2  502    0  0.27897185762E+02 -0.34358196489E+02 -0.21448757602E+03  0.21905649707E+03  0.47000000000E+01 0. -1.
         -5    1    1    2    0  502 -0.27494576351E+01  0.21331417288E+02 -0.50128047199E+02  0.54749429191E+02  0.47000000000E+01 0.  1.
          5    1    3    3  503    0  0.24674873380E+02 -0.16815659165E+02 -0.93875110050E+02  0.98621711892E+02  0.47000000000E+01 0. -1.
         -5    1    3    3    0  503 -0.49822601507E+02  0.29842438366E+02 -0.70099390047E+02  0.91153042920E+02  0.47000000000E+01 0.  1.
<mgrwt>
<rscale>  0 0.88496553E+02</rscale>
<asrwt>0</asrwt>
<pdfrwt beam="1">  1        1 0.68628515E-01 0.95534396E+02</pdfrwt>
<pdfrwt beam="2">  1       -1 0.26915817E-02 0.95534396E+02</pdfrwt>
<totfact> 0.21097611E+04</totfact>
</mgrwt>
</event>
<event>
 7    1  0.1378876E-005  0.1091977E+03  0.7546771E-02  0.1264093E+00
         -4   -1    0    0    0  501 -0.00000000000E+00  0.00000000000E+00  0.83898130128E+02  0.83898130128E+02  0.00000000000E+00 0.  1.
          4   -1    0    0  501    0  0.00000000000E+00 -0.00000000000E+00 -0.23304803171E+03  0.23304803171E+03  0.00000000000E+00 0. -1.
         23    2    1    2    0    0  0.50392626902E+02  0.17221417238E+02  0.28203675272E+02  0.10867126180E+03  0.90432304989E+02 0.  0.
          5    1    3    3  502    0  0.42982243699E+02 -0.13649736937E+02 -0.20965794007E+02  0.49954410318E+02  0.47000000000E+01 0. -1.
         -5    1    3    3    0  502  0.74103832025E+01  0.30871154175E+02  0.49169469279E+02  0.58716851487E+02  0.47000000000E+01 0.  1.
          5    1    1    2  503    0 -0.58777509581E+02 -0.40471292816E+02 -0.78168073957E+02  0.10594837876E+03  0.47000000000E+01 0. -1.
         -5    1    1    2    0  503  0.83848826794E+01  0.23249875578E+02 -0.99185502898E+02  0.10232652128E+03  0.47000000000E+01 0.  1.
<mgrwt>
<rscale>  0 0.10811932E+03</rscale>
<asrwt>0</asrwt>
<pdfrwt beam="1">  1        4 0.35853543E-01 0.10919772E+03</pdfrwt>
<pdfrwt beam="2">  1       -4 0.12907405E-01 0.10919772E+03</pdfrwt>
<totfact> 0.58521774E+02</totfact>
</mgrwt>
</event>
<event>
 7    1  0.1378876E-005  0.9203438E+02  0.7546771E-02  0.1298794E+00
         -1   -1    0    0    0  501 -0.00000000000E+00  0.00000000000E+00  0.79770548047E+02  0.79770548047E+02  0.00000000000E+00 0.  1.
          1   -1    0    0  501    0  0.00000000000E+00 -0.00000000000E+00 -0.36094430106E+03  0.36094430106E+03  0.00000000000E+00 0. -1.
         23    2    1    2    0    0 -0.17056887719E+01  0.75042290171E+01  0.44800910536E+02  0.10235941138E+03  0.91712074919E+02 0.  0.
          5    1    3    3  502    0 -0.12138068671E+02 -0.36834064492E+02  0.40652720775E+02  0.56380978393E+02  0.47000000000E+01 0. -1.
         -5    1    3    3    0  502  0.10432379900E+02  0.44338293509E+02  0.41481897603E+01  0.45978432987E+02  0.47000000000E+01 0.  1.
          5    1    1    2  503    0  0.61218024095E+01 -0.48534573827E+02 -0.17382348557E+03  0.18063713753E+03  0.47000000000E+01 0. -1.
         -5    1    1    2    0  503 -0.44161136376E+01  0.41030344809E+02 -0.15215117798E+03  0.15771830019E+03  0.47000000000E+01 0.  1.
<mgrwt>
<rscale>  0 0.91696771E+02</rscale>
<asrwt>0</asrwt>
<pdfrwt beam="1">  1        1 0.55529893E-01 0.92034382E+02</pdfrwt>
<pdfrwt beam="2">  1       -1 0.12272392E-01 0.92034382E+02</pdfrwt>
<totfact> 0.29174338E+03</totfact>
</mgrwt>
</event>
<event>
 7    1  0.1378876E-005  0.1436099E+03  0.7546771E-02  0.1218032E+00
         -2   -1    0    0    0  501 -0.00000000000E+00  0.00000000000E+00  0.21954960929E+02  0.21954960929E+02  0.00000000000E+00 0. -1.
          2   -1    0    0  501    0  0.00000000000E+00 -0.00000000000E+00 -0.87171920452E+03  0.87171920452E+03  0.00000000000E+00 0.  1.
         23    2    1    2    0    0  0.31055173625E+02 -0.10634150616E+03 -0.61030281487E+03  0.62697156350E+03  0.91383126748E+02 0.  0.
          5    1    3    3  502    0  0.12514534998E+02 -0.21370866227E+02 -0.26001697204E+02  0.36214717547E+02  0.47000000000E+01 0. -1.
         -5    1    3    3    0  502  0.18540638627E+02 -0.84970639938E+02 -0.58430111767E+03  0.59075684595E+03  0.47000000000E+01 0.  1.
          5    1    1    2  503    0  0.25370640482E+00  0.42324197732E+02 -0.12216437319E+03  0.12937397790E+03  0.47000000000E+01 0.  1.
         -5    1    1    2    0  503 -0.31308880030E+02  0.64017308432E+02 -0.11729705553E+03  0.13732862405E+03  0.47000000000E+01 0. -1.
<mgrwt>
<rscale>  0 0.13656142E+03</rscale>
<asrwt>0</asrwt>
<pdfrwt beam="1">  1        2 0.13411065E+00 0.14360994E+03</pdfrwt>
<pdfrwt beam="2">  1       -2 0.33776863E-02 0.14360994E+03</pdfrwt>
<totfact> 0.10834617E+04</totfact>
</mgrwt>
</event>
<event>
 6    1  0.2157266E-005  0.2964202E+03  0.7546771E-02  0.1087044E+00
         -2   -1    0    0    0  501 -0.00000000000E+00  0.00000000000E+00  0.86350363537E+02  0.86350363537E+02  0.00000000000E+00 0.  1.
          2   -1    0    0  501    0  0.00000000000E+00 -0.00000000000E+00 -0.25438499711E+03  0.25438499711E+03  0.00000000000E+00 0. -1.
          5    1    1    2  502    0  0.31242516158E+02 -0.49860015507E+02 -0.17260067007E+03  0.18241490419E+03  0.47000000000E+01 0. -1.
         -5    1    1    2    0  503 -0.25479778464E+02  0.20179535978E+02  0.37861674158E+02  0.50120147175E+02  0.47000000000E+01 0.  1.
          5    1    1    2  503    0  0.16297020352E+02 -0.32141135057E+02 -0.54681621959E+01  0.36751003155E+02  0.47000000000E+01 0. -1.
         -5    1    1    2    0  502 -0.22059758047E+02  0.61821614585E+02 -0.27827475463E+02  0.71449306125E+02  0.47000000000E+01 0.  1.
<mgrwt>
<rscale>  0 0.29642022E+03</rscale>
<asrwt>0</asrwt>
<pdfrwt beam="1">  1        2 0.39136153E-01 0.29642022E+03</pdfrwt>
<pdfrwt beam="2">  1       -2 0.13284671E-01 0.29642022E+03</pdfrwt>
<totfact> 0.54593246E+03</totfact>
</mgrwt>
</event>
<event>
 7    1  0.1378876E-005  0.8470105E+02  0.7546771E-02  0.1322756E+00
          1   -1    0    0  501    0  0.00000000000E+00  0.00000000000E+00  0.13991302506E+03  0.13991302506E+03  0.00000000000E+00 0. -1.
         -1   -1    0    0    0  501 -0.00000000000E+00 -0.00000000000E+00 -0.90116583384E+02  0.90116583384E+02  0.00000000000E+00 0.  1.
         23    2    1    2    0    0 -0.37154439160E+02  0.36677298041E+02  0.10624681384E+03  0.13587734703E+03  0.66697761918E+02 0.  0.
          5    1    1    2  502    0  0.40683414579E+02 -0.65268922500E+01 -0.18724216139E+02  0.45501942972E+02  0.47000000000E+01 0. -1.
         -5    1    1    2    0  502 -0.35289754185E+01 -0.30150405791E+02 -0.37726156017E+02  0.48650318444E+02  0.47000000000E+01 0.  1.
          5    1    3    3  503    0 -0.60600636185E+01  0.44307355996E+02  0.32923390493E+02  0.55730654114E+02  0.47000000000E+01 0. -1.
         -5    1    3    3    0  503 -0.31094375542E+02 -0.76300579545E+01  0.73323423344E+02  0.80146692918E+02  0.47000000000E+01 0.  1.
<mgrwt>
<rscale>  0 0.82260446E+02</rscale>
<asrwt>0</asrwt>
<pdfrwt beam="1">  1        1 0.21525081E-01 0.84701051E+02</pdfrwt>
<pdfrwt beam="2">  1       -1 0.13864090E-01 0.84701051E+02</pdfrwt>
<totfact> 0.76987070E+03</totfact>
</mgrwt>
</event>
<event>
 7    1  0.1378876E-005  0.1252620E+03  0.7546771E-02  0.1244970E+00
          1   -1    0    0  501    0  0.00000000000E+00  0.00000000000E+00  0.81401373219E+02  0.81401373219E+02  0.00000000000E+00 0. -1.
         -1   -1    0    0    0  501 -0.00000000000E+00 -0.00000000000E+00 -0.17986379301E+03  0.17986379301E+03  0.00000000000E+00 0.  1.
         23    2    1    2    0    0  0.87153249199E+02  0.28266949876E+00 -0.99018465429E+02  0.15967221618E+03  0.89971058551E+02 0.  0.
          5    1    3    3  502    0  0.21203443545E+02  0.35305157528E+02 -0.86381054361E+01  0.42340843541E+02  0.47000000000E+01 0. -1.
         -5    1    1    2    0  503 -0.32582506421E+02  0.55944059256E+01  0.24612330503E+02  0.41482212033E+02  0.47000000000E+01 0. -1.
          5    1    1    2  503    0 -0.54570742778E+02 -0.58770754244E+01 -0.24056284862E+02  0.60110738011E+02  0.47000000000E+01 0.  1.
         -5    1    3    3    0  502  0.65949805654E+02 -0.35022488029E+02 -0.90380359993E+02  0.11733137264E+03  0.47000000000E+01 0.  1.
<mgrwt>
<rscale>  0 0.11887176E+03</rscale>
<asrwt>0</asrwt>
<pdfrwt beam="1">  1        1 0.12523288E-01 0.12526197E+03</pdfrwt>
<pdfrwt beam="2">  1       -1 0.27671352E-01 0.12526197E+03</pdfrwt>
<totfact> 0.52673782E+03</totfact>
</mgrwt>
</event>
<event>
 7    1  0.1378876E-005  0.8879023E+02  0.7546771E-02  0.1336073E+00
         -2   -1    0    0    0  501 -0.00000000000E+00  0.00000000000E+00  0.99082575933E+01  0.99082575933E+01  0.00000000000E+00 0.  1.
          2   -1    0    0  501    0  0.00000000000E+00 -0.00000000000E+00 -0.68522836045E+03  0.68522836045E+03  0.00000000000E+00 0. -1.
         23    2    1    2    0    0 -0.16661263363E+02  0.11159411498E+02 -0.57928906262E+03  0.58605419731E+03  0.86496092112E+02 0.  0.
          5    1    1    2  502    0  0.22192299891E+02  0.93624924546E+01 -0.26027173654E+02  0.35772310630E+02  0.47000000000E+01 0.  1.
         -5    1    1    2    0  502 -0.55310365285E+01 -0.20521903952E+02 -0.70003866583E+02  0.73310110104E+02  0.47000000000E+01 0. -1.
          5    1    3    3  503    0 -0.51289172173E+02  0.25311662320E+01 -0.38757276121E+03  0.39098813437E+03  0.47000000000E+01 0. -1.
         -5    1    3    3    0  503  0.34627908811E+02  0.86282452657E+01 -0.19171630141E+03  0.19506606294E+03  0.47000000000E+01 0.  1.
<mgrwt>
<rscale>  0 0.77576502E+02</rscale>
<asrwt>0</asrwt>
<pdfrwt beam="1">  1        2 0.10541978E+00 0.88790225E+02</pdfrwt>
<pdfrwt beam="2">  1       -2 0.15243469E-02 0.88790225E+02</pdfrwt>
<totfact> 0.44193947E+04</totfact>
</mgrwt>
</event>
<event>
 7    1  0.1378876E-005  0.1154294E+03  0.7546771E-02  0.1270939E+00
          2   -1    0    0  501    0  0.00000000000E+00  0.00000000000E+00  0.25902352868E+03  0.25902352868E+03  0.00000000000E+00 0.  1.
         -2   -1    0    0    0  501 -0.00000000000E+00 -0.00000000000E+00 -0.48484250077E+02  0.48484250077E+02  0.00000000000E+00 0. -1.
         23    2    1    2    0    0  0.63978075989E+02  0.31684447252E+02  0.43701241428E+02  0.12342501126E+03  0.90701910110E+02 0.  0.
          5    1    3    3  502    0  0.69442140029E+02 -0.68845688168E+01  0.80353168201E+01  0.70400741587E+02  0.47000000000E+01 0. -1.
         -5    1    1    2    0  503 -0.41578493019E+02 -0.33092484532E+02  0.98773726472E+02  0.11225962166E+03  0.47000000000E+01 0.  1.
          5    1    1    2  503    0 -0.22399582969E+02  0.14080372803E+01  0.68064310704E+02  0.71823145836E+02  0.47000000000E+01 0. -1.
         -5    1    3    3    0  502 -0.54640640397E+01  0.38569016069E+02  0.35665924608E+02  0.53024269675E+02  0.47000000000E+01 0.  1.
<mgrwt>
<rscale>  0 0.10458524E+03</rscale>
<asrwt>0</asrwt>
<pdfrwt beam="1">  1        2 0.39849773E-01 0.11542935E+03</pdfrwt>
<pdfrwt beam="2">  1       -2 0.74591156E-02 0.11542935E+03</pdfrwt>
<totfact> 0.12564665E+04</totfact>
</mgrwt>
</event>
<event>
 7    1  0.1378876E-005  0.1047402E+03  0.7546771E-02  0.1277664E+00
          2   -1    0    0  501    0  0.00000000000E+00  0.00000000000E+00  0.16882397073E+03  0.16882397073E+03  0.00000000000E+00 0. -1.
         -2   -1    0    0    0  501 -0.00000000000E+00 -0.00000000000E+00 -0.98163191864E+02  0.98163191864E+02  0.00000000000E+00 0.  1.
         23    2    1    2    0    0 -0.47070702261E+02  0.17094221386E+02 -0.49584088218E+02  0.11588399973E+03  0.91992696301E+02 0.  0.
          5    1    3    3  502    0 -0.71149048483E+02  0.27564487506E+02 -0.27459070142E+02  0.81228557814E+02  0.47000000000E+01 0. -1.
         -5    1    3    3    0  502  0.24078346222E+02 -0.10470266120E+02 -0.22125018076E+02  0.34655441915E+02  0.47000000000E+01 0.  1.
          5    1    1    2  503    0  0.41630170405E+02  0.20170438486E+02  0.94270468369E+02  0.10511388530E+03  0.47000000000E+01 0. -1.
         -5    1    1    2    0  503  0.54405318557E+01 -0.37264659872E+02  0.25974398718E+02  0.45989277566E+02  0.47000000000E+01 0.  1.
<mgrwt>
<rscale>  0 0.10126224E+03</rscale>
<asrwt>0</asrwt>
<pdfrwt beam="1">  1        2 0.25972919E-01 0.10474025E+03</pdfrwt>
<pdfrwt beam="2">  1       -2 0.15102029E-01 0.10474025E+03</pdfrwt>
<totfact> 0.65010445E+03</totfact>
</mgrwt>
</event>
<event>
 7    1  0.1378876E-005  0.1020521E+03  0.7546771E-02  0.1277389E+00
         -2   -1    0    0    0  501 -0.00000000000E+00  0.00000000000E+00  0.16652380078E+03  0.16652380078E+03  0.00000000000E+00 0.  1.
          2   -1    0    0  501    0  0.00000000000E+00 -0.00000000000E+00 -0.94425369787E+02  0.94425369787E+02  0.00000000000E+00 0. -1.
         23    2    1    2    0    0 -0.32811262755E+01  0.47036310623E+02  0.11402434535E+03  0.15302344095E+03  0.90506584515E+02 0.  0.
          5    1    1    2  502    0 -0.34182031186E+02 -0.19600254180E+02 -0.46382480067E+02  0.61041016350E+02  0.47000000000E+01 0. -1.
         -5    1    3    3    0  503 -0.13040520353E+02  0.72714751436E+02  0.86555038712E+02  0.11389185649E+03  0.47000000000E+01 0.  1.
          5    1    3    3  503    0  0.97593940778E+01 -0.25678440813E+02  0.27469306643E+02  0.39131584466E+02  0.47000000000E+01 0. -1.
         -5    1    1    2    0  502  0.37463157461E+02 -0.27436056443E+02  0.44565657059E+01  0.46884713265E+02  0.47000000000E+01 0.  1.
<mgrwt>
<rscale>  0 0.10139507E+03</rscale>
<asrwt>0</asrwt>
<pdfrwt beam="1">  1        2 0.14526980E-01 0.10205206E+03</pdfrwt>
<pdfrwt beam="2">  1       -2 0.25619046E-01 0.10205206E+03</pdfrwt>
<totfact> 0.51385661E+03</totfact>
</mgrwt>
</event>
<event>
 6    1  0.1378876E-005  0.1545739E+03  0.7546771E-02  0.1244641E+00
         -4   -1    0    0    0  501 -0.00000000000E+00  0.00000000000E+00  0.16594690843E+03  0.16594690843E+03  0.00000000000E+00 0.  1.
          4   -1    0    0  501    0  0.00000000000E+00 -0.00000000000E+00 -0.72313598681E+02  0.72313598681E+02  0.00000000000E+00 0. -1.
          5    1    1    2  502    0 -0.72815307021E+02 -0.15232600232E+01 -0.79548932151E+01  0.73414982011E+02  0.47000000000E+01 0. -1.
         -5    1    1    2    0  502  0.57065742021E+02 -0.45739127594E+02  0.43396922458E+02  0.85170121429E+02  0.47000000000E+01 0.  1.
          5    1    1    2  503    0 -0.39834941879E+00  0.28460530475E+02  0.26526101601E+02  0.39190362888E+02  0.47000000000E+01 0. -1.
         -5    1    1    2    0  503  0.16147914419E+02  0.18801857142E+02  0.31665178908E+02  0.40485040785E+02  0.47000000000E+01 0.  1.
<mgrwt>
<rscale>  0 0.11906916E+03</rscale>
<asrwt>0</asrwt>
<pdfrwt beam="1">  1        4 0.11125169E-01 0.15457392E+03</pdfrwt>
<pdfrwt beam="2">  1       -4 0.25530294E-01 0.15457392E+03</pdfrwt>
<totfact> 0.15430660E+03</totfact>
</mgrwt>
</event>
<event>
 6    1  0.1378876E-005  0.3422631E+03  0.7546771E-02  0.1065836E+00
         -1   -1    0    0    0  501 -0.00000000000E+00  0.00000000000E+00  0.13155816523E+03  0.13155816523E+03  0.00000000000E+00 0.  1.
          1   -1    0    0  501    0  0.00000000000E+00 -0.00000000000E+00 -0.22260880471E+03  0.22260880471E+03  0.00000000000E+00 0. -1.
          5    1    1    2  502    0  0.43184288387E+02  0.95011537830E+01  0.67039149777E+02  0.80445585892E+02  0.47000000000E+01 0. -1.
         -5    1    1    2    0  503 -0.70601707688E+02  0.21909691497E+02 -0.82993502439E+02  0.11124139138E+03  0.47000000000E+01 0.  1.
          5    1    1    2  503    0  0.76360415823E+02 -0.22961497449E+02 -0.10051848532E+02  0.80506354585E+02  0.47000000000E+01 0. -1.
         -5    1    1    2    0  502 -0.48942996522E+02 -0.84493478309E+01 -0.65044438292E+02  0.81973638079E+02  0.47000000000E+01 0.  1.
<mgrwt>
<rscale>  0 0.34226309E+03</rscale>
<asrwt>0</asrwt>
<pdfrwt beam="1">  1        1 0.34247508E-01 0.34226309E+03</pdfrwt>
<pdfrwt beam="2">  1       -1 0.20239718E-01 0.34226309E+03</pdfrwt>
<totfact> 0.25372915E+03</totfact>
</mgrwt>
</event>
<event>
 7    1  0.1378876E-005  0.3175071E+03  0.7546771E-02  0.1094630E+00
         -2   -1    0    0    0  501 -0.00000000000E+00  0.00000000000E+00  0.14205048378E+03  0.14205048378E+03  0.00000000000E+00 0.  1.
          2   -1    0    0  501    0  0.00000000000E+00 -0.00000000000E+00 -0.71452316397E+03  0.71452316397E+03  0.00000000000E+00 0. -1.
         23    2    1    2    0    0  0.17183895740E+03 -0.33584823012E+02  0.50874966743E+01  0.19749361630E+03  0.91221040562E+02 0.  0.
          5    1    1    2  502    0 -0.17392726824E+03  0.12393551374E+03 -0.48332619567E+03  0.52842881036E+03  0.47000000000E+01 0. -1.
         -5    1    1    2    0  502  0.20883108364E+01 -0.90350690730E+02 -0.94233981193E+02  0.13065122108E+03  0.47000000000E+01 0.  1.
          5    1    3    3  503    0  0.32005473729E+02 -0.33206194986E+02 -0.27411064255E+02  0.53855901976E+02  0.47000000000E+01 0. -1.
         -5    1    3    3    0  503  0.13983348367E+03 -0.37862802623E+00  0.32498560930E+02  0.14363771433E+03  0.47000000000E+01 0.  1.
<mgrwt>
<rscale>  0 0.28194686E+03</rscale>
<asrwt>0</asrwt>
<pdfrwt beam="1">  1        2 0.10992664E+00 0.31750705E+03</pdfrwt>
<pdfrwt beam="2">  1       -2 0.21853921E-01 0.31750705E+03</pdfrwt>
<totfact> 0.73853673E+02</totfact>
</mgrwt>
</event>
<event>
 7    1  0.1378876E-005  0.1220498E+03  0.7546771E-02  0.1263202E+00
          2   -1    0    0  501    0  0.00000000000E+00  0.00000000000E+00  0.16498258495E+03  0.16498258495E+03  0.00000000000E+00 0. -1.
         -2   -1    0    0    0  501 -0.00000000000E+00 -0.00000000000E+00 -0.66042606370E+02  0.66042606370E+02  0.00000000000E+00 0.  1.
         23    2    1    2    0    0 -0.66251227849E+02  0.18905749767E+02  0.94599921840E+02  0.15441922266E+03  0.10074471971E+03 0.  0.
          5    1    3    3  502    0 -0.51651372363E+02 -0.35714244074E+02  0.34628004065E+02  0.71864874328E+02  0.47000000000E+01 0. -1.
         -5    1    1    2    0  503  0.44236914173E+02 -0.38546870327E+01  0.15572413776E+02  0.47290096833E+02  0.47000000000E+01 0.  1.
          5    1    1    2  503    0  0.22014313676E+02 -0.15051062734E+02 -0.11232357037E+02  0.29315871822E+02  0.47000000000E+01 0. -1.
         -5    1    3    3    0  502 -0.14599855486E+02  0.54619993841E+02  0.59971917775E+02  0.82554348335E+02  0.47000000000E+01 0.  1.
<mgrwt>
<rscale>  0 0.10859102E+03</rscale>
<asrwt>0</asrwt>
<pdfrwt beam="1">  1        2 0.25381936E-01 0.12204979E+03</pdfrwt>
<pdfrwt beam="2">  1       -2 0.10160401E-01 0.12204979E+03</pdfrwt>
<totfact> 0.12703704E+04</totfact>
</mgrwt>
</event>
<event>
 7    1  0.1378876E-005  0.1080105E+03  0.7546771E-02  0.1288650E+00
         -2   -1    0    0    0  501 -0.00000000000E+00  0.00000000000E+00  0.20471682898E+02  0.20471682898E+02  0.00000000000E+00 0.  1.
          2   -1    0    0  501    0  0.00000000000E+00 -0.00000000000E+00 -0.48837814908E+03  0.48837814908E+03  0.00000000000E+00 0. -1.
         23    2    1    2    0    0  0.53559432650E+02  0.62820322047E+01 -0.39416616027E+03  0.40869698993E+03  0.93585206766E+02 0.  0.
          5    1    1    2  502    0 -0.34491325089E+02 -0.17161848099E+02 -0.65696950802E+02  0.76304389659E+02  0.47000000000E+01 0. -1.
         -5    1    3    3    0  503  0.46666282118E+02  0.41686475940E+02 -0.16254007965E+03  0.17423223483E+03  0.47000000000E+01 0.  1.
          5    1    3    3  503    0  0.68931505315E+01 -0.35404443735E+02 -0.23162608062E+03  0.23446475510E+03  0.47000000000E+01 0. -1.
         -5    1    1    2    0  502 -0.19068107561E+02  0.10879815894E+02 -0.80433551167E+01  0.23848452390E+02  0.47000000000E+01 0.  1.
<mgrwt>
<rscale>  0 0.96130466E+02</rscale>
<asrwt>0</asrwt>
<pdfrwt beam="1">  1        2 0.75135095E-01 0.10801050E+03</pdfrwt>
<pdfrwt beam="2">  1       -2 0.31494899E-02 0.10801050E+03</pdfrwt>
<totfact> 0.23106114E+04</totfact>
</mgrwt>
</event>
<event>
 7    1  0.1378876E-005  0.1221563E+03  0.7546771E-02  0.1257155E+00
          4   -1    0    0  501    0  0.00000000000E+00  0.00000000000E+00  0.37971874014E+03  0.37971874014E+03  0.00000000000E+00 0. -1.
         -4   -1    0    0    0  501 -0.00000000000E+00 -0.00000000000E+00 -0.54258085782E+02  0.54258085782E+02  0.00000000000E+00 0.  1.
         23    2    1    2    0    0  0.38954406692E+02 -0.62912068166E+02  0.29317145786E+02  0.12562506171E+03  0.97194583037E+02 0.  0.
          5    1    3    3  502    0  0.13435936876E+02 -0.69975675362E+02  0.53682589533E+02  0.89336610418E+02  0.47000000000E+01 0. -1.
         -5    1    1    2    0  503 -0.21818561817E+02  0.19307137469E+02  0.52735562421E+02  0.60431322515E+02  0.47000000000E+01 0.  1.
          5    1    1    2  503    0 -0.17135844875E+02  0.43604930697E+02  0.24340794615E+03  0.24792044169E+03  0.47000000000E+01 0. -1.
         -5    1    3    3    0  502  0.25518469816E+02  0.70636071957E+01 -0.24365443747E+02  0.36288451295E+02  0.47000000000E+01 0.  1.
<mgrwt>
<rscale>  0 0.11186461E+03</rscale>
<asrwt>0</asrwt>
<pdfrwt beam="1">  1        4 0.58418266E-01 0.12215630E+03</pdfrwt>
<pdfrwt beam="2">  1       -4 0.83473981E-02 0.12215630E+03</pdfrwt>
<totfact> 0.46943467E+02</totfact>
</mgrwt>
</event>
<event>
 7    1  0.1378876E-005  0.9988323E+02  0.7546771E-02  0.1293244E+00
         -4   -1    0    0    0  501 -0.00000000000E+00  0.00000000000E+00  0.82718843995E+02  0.82718843995E+02  0.00000000000E+00 0.  1.
          4   -1    0    0  501    0  0.00000000000E+00 -0.00000000000E+00 -0.18843108692E+03  0.18843108692E+03  0.00000000000E+00 0. -1.
         23    2    1    2    0    0 -0.39733825949E+02  0.14574843023E+02  0.38372656988E+02  0.10700056094E+03  0.90473511396E+02 0.  0.
          5    1    3    3  502    0 -0.61961445979E+02  0.32850383534E+02  0.22494547766E+02  0.73800156946E+02  0.47000000000E+01 0. -1.
         -5    1    3    3    0  502  0.22227620030E+02 -0.18275540511E+02  0.15878109222E+02  0.33200403998E+02  0.47000000000E+01 0.  1.
          5    1    1    2  503    0  0.17419174910E+01 -0.29110500872E+02 -0.26664295428E+02  0.39793594814E+02  0.47000000000E+01 0. -1.
         -5    1    1    2    0  503  0.37991908458E+02  0.14535657849E+02 -0.11742060448E+03  0.12435577515E+03  0.47000000000E+01 0.  1.
<mgrwt>
<rscale>  0 0.94087733E+02</rscale>
<asrwt>0</asrwt>
<pdfrwt beam="1">  1        4 0.28989398E-01 0.99883228E+02</pdfrwt>
<pdfrwt beam="2">  1       -4 0.12725976E-01 0.99883228E+02</pdfrwt>
<totfact> 0.87931089E+02</totfact>
</mgrwt>
</event>
<event>
 7    1  0.1378876E-005  0.1506276E+03  0.7546771E-02  0.1208122E+00
          2   -1    0    0  501    0  0.00000000000E+00  0.00000000000E+00  0.12096570445E+04  0.12096570445E+04  0.00000000000E+00 0. -1.
         -2   -1    0    0    0  501 -0.00000000000E+00 -0.00000000000E+00 -0.15786605256E+02  0.15786605256E+02  0.00000000000E+00 0.  1.
         23    2    1    2    0    0  0.41406828563E+02 -0.11107597345E+03  0.67040916923E+03  0.68712235892E+03  0.92931612483E+02 0.  0.
          5    1    3    3  502    0 -0.18606436648E+02 -0.44941352408E+02  0.38344638744E+03  0.38654772885E+03  0.47000000000E+01 0. -1.
         -5    1    3    3    0  502  0.60013265211E+02 -0.66134621045E+02  0.28696278180E+03  0.30057463006E+03  0.47000000000E+01 0.  1.
          5    1    1    2  503    0  0.76444012260E+01  0.19592696545E+02  0.80366941702E+02  0.83206045132E+02  0.47000000000E+01 0.  1.
         -5    1    1    2    0  503 -0.49051229789E+02  0.91483276908E+02  0.44309432833E+03  0.45511524573E+03  0.47000000000E+01 0. -1.
<mgrwt>
<rscale>  0 0.14394128E+03</rscale>
<asrwt>0</asrwt>
<pdfrwt beam="1">  1        2 0.18610101E+00 0.15062763E+03</pdfrwt>
<pdfrwt beam="2">  1       -2 0.24287094E-02 0.15062763E+03</pdfrwt>
<totfact> 0.11132040E+04</totfact>
</mgrwt>
</event>
<event>
 7    1  0.1378876E-005  0.3122678E+03  0.7546771E-02  0.1117296E+00
         -2   -1    0    0    0  501 -0.00000000000E+00  0.00000000000E+00  0.79949659244E+02  0.79949659244E+02  0.00000000000E+00 0.  1.
          2   -1    0    0  501    0  0.00000000000E+00 -0.00000000000E+00 -0.61179853485E+03  0.61179853485E+03  0.00000000000E+00 0. -1.
         23    2    1    2    0    0 -0.30940348761E+02  0.78695923380E+02 -0.22920907196E+03  0.25688955518E+03  0.79404605387E+02 0.  0.
          5    1    1    2  502    0 -0.12204297807E+03 -0.98415060006E+02 -0.17074759910E+03  0.23185522451E+03  0.47000000000E+01 0. -1.
         -5    1    3    3    0  503  0.24382145761E+02  0.42674841719E+02 -0.10913566657E+03  0.11978445169E+03  0.47000000000E+01 0.  1.
          5    1    3    3  503    0 -0.55322494522E+02  0.36021081660E+02 -0.12007340539E+03  0.13710510350E+03  0.47000000000E+01 0. -1.
         -5    1    1    2    0  502  0.15298332683E+03  0.19719136627E+02 -0.13189220455E+03  0.20300341440E+03  0.47000000000E+01 0.  1.
<mgrwt>
<rscale>  0 0.24378539E+03</rscale>
<asrwt>0</asrwt>
<pdfrwt beam="1">  1        2 0.94122849E-01 0.31226781E+03</pdfrwt>
<pdfrwt beam="2">  1       -2 0.12299948E-01 0.31226781E+03</pdfrwt>
<totfact> 0.23427833E+03</totfact>
</mgrwt>
</event>
<event>
 7    1  0.1378876E-005  0.1204453E+03  0.7546771E-02  0.1260739E+00
         -2   -1    0    0    0  501 -0.00000000000E+00  0.00000000000E+00  0.17684244232E+03  0.17684244232E+03  0.00000000000E+00 0.  1.
          2   -1    0    0  501    0  0.00000000000E+00 -0.00000000000E+00 -0.60960221013E+02  0.60960221013E+02  0.00000000000E+00 0. -1.
         23    2    1    2    0    0 -0.18909202025E+02 -0.75743860604E+02  0.46081984463E+02  0.12895974995E+03  0.91719013701E+02 0.  0.
          5    1    1    2  502    0  0.79153070745E+01  0.20915175108E+02  0.38000225394E+02  0.44341896282E+02  0.47000000000E+01 0. -1.
         -5    1    3    3    0  503  0.86229943408E+01 -0.70021317613E+02  0.63930240257E+02  0.95323169119E+02  0.47000000000E+01 0.  1.
          5    1    3    3  503    0 -0.27532196366E+02 -0.57225429908E+01 -0.17848255794E+02  0.33636580829E+02  0.47000000000E+01 0. -1.
         -5    1    1    2    0  502  0.10993894950E+02  0.54828685496E+02  0.31800011454E+02  0.64501017107E+02  0.47000000000E+01 0.  1.
<mgrwt>
<rscale>  0 0.10990896E+03</rscale>
<asrwt>0</asrwt>
<pdfrwt beam="1">  1        2 0.93784956E-02 0.12044529E+03</pdfrwt>
<pdfrwt beam="2">  1       -2 0.27206529E-01 0.12044529E+03</pdfrwt>
<totfact> 0.79167868E+03</totfact>
</mgrwt>
</event>
<event>
 7    1  0.1378876E-005  0.1033193E+03  0.7546771E-02  0.1275298E+00
          1   -1    0    0  501    0  0.00000000000E+00  0.00000000000E+00  0.14348960269E+03  0.14348960269E+03  0.00000000000E+00 0. -1.
         -1   -1    0    0    0  501 -0.00000000000E+00 -0.00000000000E+00 -0.86345307958E+02  0.86345307958E+02  0.00000000000E+00 0.  1.
         23    2    1    2    0    0 -0.15527545334E+02 -0.44923029296E+02  0.76074814456E+02  0.12830528765E+03  0.91737049323E+02 0.  0.
          5    1    1    2  502    0  0.18589460672E+02 -0.14271068687E+02 -0.32692584159E+02  0.40498475385E+02  0.47000000000E+01 0. -1.
         -5    1    1    2    0  502 -0.30619153381E+01  0.59194097983E+02  0.13762064432E+02  0.61031147613E+02  0.47000000000E+01 0.  1.
          5    1    3    3  503    0  0.39570523867E+01 -0.67877038300E+02  0.33484558613E+02  0.75935869373E+02  0.47000000000E+01 0. -1.
         -5    1    3    3    0  503 -0.19484597720E+02  0.22954009003E+02  0.42590255843E+02  0.52369418274E+02  0.47000000000E+01 0.  1.
<mgrwt>
<rscale>  0 0.10241494E+03</rscale>
<asrwt>0</asrwt>
<pdfrwt beam="1">  1        1 0.22075323E-01 0.10331926E+03</pdfrwt>
<pdfrwt beam="2">  1       -1 0.13283894E-01 0.10331926E+03</pdfrwt>
<totfact> 0.81024289E+03</totfact>
</mgrwt>
</event>
<event>
 7    1  0.1378876E-005  0.1015257E+03  0.7546771E-02  0.1280719E+00
          2   -1    0    0  501    0  0.00000000000E+00  0.00000000000E+00  0.37766179344E+03  0.37766179344E+03  0.00000000000E+00 0. -1.
         -2   -1    0    0    0  501 -0.00000000000E+00 -0.00000000000E+00 -0.70774545763E+02  0.70774545763E+02  0.00000000000E+00 0.  1.
         23    2    1    2    0    0  0.19352928604E+02  0.79245944690E+01 -0.27721654689E+02  0.98764232552E+02  0.92458360627E+02 0.  0.
          5    1    1    2  502    0 -0.46276566797E+02 -0.37050775666E+02  0.23366507074E+03  0.24111353320E+03  0.47000000000E+01 0. -1.
         -5    1    3    3    0  503  0.33640403523E+02 -0.17869584126E+02 -0.48895305732E+02  0.62159791736E+02  0.47000000000E+01 0.  1.
          5    1    3    3  503    0 -0.14287474919E+02  0.25794178595E+02  0.21173651043E+02  0.36604440816E+02  0.47000000000E+01 0. -1.
         -5    1    1    2    0  502  0.26923638193E+02  0.29126181197E+02  0.10094383163E+03  0.10855857345E+03  0.47000000000E+01 0.  1.
<mgrwt>
<rscale>  0 0.99799196E+02</rscale>
<asrwt>0</asrwt>
<pdfrwt beam="1">  1        2 0.58101813E-01 0.10152568E+03</pdfrwt>
<pdfrwt beam="2">  1       -2 0.10888392E-01 0.10152568E+03</pdfrwt>
<totfact> 0.46564763E+03</totfact>
</mgrwt>
</event>
<event>
 7    1  0.1378876E-005  0.1214939E+03  0.7546771E-02  0.1258131E+00
         -2   -1    0    0    0  501 -0.00000000000E+00  0.00000000000E+00  0.24644570814E+02  0.24644570814E+02  0.00000000000E+00 0.  1.
          2   -1    0    0  501    0  0.00000000000E+00 -0.00000000000E+00 -0.46002323417E+03  0.46002323417E+03  0.00000000000E+00 0. -1.
         23    2    1    2    0    0 -0.75238992717E+02  0.25718505233E+02 -0.19794312025E+03  0.23225470542E+03  0.91860882850E+02 0.  0.
          5    1    1    2  502    0  0.24094430221E+02 -0.16774829498E+02 -0.12487487815E+03  0.12836573400E+03  0.47000000000E+01 0. -1.
         -5    1    3    3    0  503 -0.60022188263E+02  0.59008705060E+02 -0.13012643224E+03  0.15504731124E+03  0.47000000000E+01 0.  1.
          5    1    3    3  503    0 -0.15216804454E+02 -0.33290199827E+02 -0.67816688017E+02  0.77207394179E+02  0.47000000000E+01 0. -1.
         -5    1    1    2    0  502  0.51144562496E+02 -0.89436757353E+01 -0.11256066495E+03  0.12404736556E+03  0.47000000000E+01 0.  1.
<mgrwt>
<rscale>  0 0.11132783E+03</rscale>
<asrwt>0</asrwt>
<pdfrwt beam="1">  1        2 0.70772801E-01 0.12149391E+03</pdfrwt>
<pdfrwt beam="2">  1       -2 0.37914727E-02 0.12149391E+03</pdfrwt>
<totfact> 0.18971116E+04</totfact>
</mgrwt>
</event>
<event>
 7    1  0.1378876E-005  0.1093763E+03  0.7546771E-02  0.1286287E+00
          4   -1    0    0  501    0  0.00000000000E+00  0.00000000000E+00  0.34511486168E+02  0.34511486168E+02  0.00000000000E+00 0. -1.
         -4   -1    0    0    0  501 -0.00000000000E+00 -0.00000000000E+00 -0.22882903588E+03  0.22882903588E+03  0.00000000000E+00 0.  1.
         23    2    1    2    0    0  0.53802224244E+02 -0.34999916233E+02 -0.12447458264E+03  0.16570181078E+03  0.88563507745E+02 0.  0.
          5    1    1    2  502    0 -0.31641373294E+02  0.29645713867E+02 -0.35941296823E+02  0.56514703148E+02  0.47000000000E+01 0. -1.
         -5    1    3    3    0  503  0.20463446819E+01 -0.50978988600E+02 -0.82072206682E+02  0.96752167494E+02  0.47000000000E+01 0.  1.
          5    1    3    3  503    0  0.51755879562E+02  0.15979072367E+02 -0.42402375956E+02  0.68949643289E+02  0.47000000000E+01 0. -1.
         -5    1    1    2    0  502 -0.22160850950E+02  0.53542023651E+01 -0.33901670256E+02  0.41124008121E+02  0.47000000000E+01 0.  1.
<mgrwt>
<rscale>  0 0.97204312E+02</rscale>
<asrwt>0</asrwt>
<pdfrwt beam="1">  1        4 0.53094596E-02 0.10937627E+03</pdfrwt>
<pdfrwt beam="2">  1       -4 0.35204466E-01 0.10937627E+03</pdfrwt>
<totfact> 0.26383031E+03</totfact>
</mgrwt>
</event>
<event>
 7    1  0.1378876E-005  0.1138301E+03  0.7546771E-02  0.1272827E+00
          4   -1    0    0  501    0  0.00000000000E+00  0.00000000000E+00  0.34399220262E+02  0.34399220262E+02  0.00000000000E+00 0. -1.
         -4   -1    0    0    0  501 -0.00000000000E+00 -0.00000000000E+00 -0.27371114287E+03  0.27371114287E+03  0.00000000000E+00 0.  1.
         23    2    1    2    0    0  0.22300886859E+02 -0.68424807749E+02 -0.16317905463E+03  0.19895900536E+03  0.88192959308E+02 0.  0.
          5    1    1    2  502    0 -0.12220807035E+02  0.16661349264E+02 -0.39318721262E+02  0.44665428751E+02  0.47000000000E+01 0.  1.
         -5    1    1    2    0  502 -0.10080079825E+02  0.51763458485E+02 -0.36814146710E+02  0.64485929020E+02  0.47000000000E+01 0.  1.
          5    1    3    3  503    0  0.43435333088E+02 -0.55998468191E+02 -0.60532594332E+02  0.93320638536E+02  0.47000000000E+01 0. -1.
         -5    1    3    3    0  503 -0.21134446229E+02 -0.12426339558E+02 -0.10264646030E+03  0.10563836682E+03  0.47000000000E+01 0. -1.
<mgrwt>
<rscale>  0 0.10363756E+03</rscale>
<asrwt>0</asrwt>
<pdfrwt beam="1">  1        4 0.52921879E-02 0.11383006E+03</pdfrwt>
<pdfrwt beam="2">  1       -4 0.42109405E-01 0.11383006E+03</pdfrwt>
<totfact> 0.18888959E+03</totfact>
</mgrwt>
</event>
<event>
 7    1  0.1378876E-005  0.1291931E+03  0.7546771E-02  0.1243793E+00
          2   -1    0    0  501    0  0.00000000000E+00  0.00000000000E+00  0.64245864731E+03  0.64245864731E+03  0.00000000000E+00 0. -1.
         -2   -1    0    0    0  501 -0.00000000000E+00 -0.00000000000E+00 -0.19577529730E+02  0.19577529730E+02  0.00000000000E+00 0.  1.
         23    2    1    2    0    0 -0.75875080079E+02  0.52673787042E+02  0.34253935374E+03  0.36609296547E+03  0.90328815380E+02 0.  0.
          5    1    3    3  502    0 -0.24307392466E+02 -0.23726615507E+02  0.12861854135E+03  0.13311130978E+03  0.47000000000E+01 0. -1.
         -5    1    3    3    0  502 -0.51567687614E+02  0.76400402549E+02  0.21392081239E+03  0.23298165569E+03  0.47000000000E+01 0.  1.
          5    1    1    2  503    0  0.59862626756E+02 -0.36893496254E+02  0.23112953989E+03  0.24163530031E+03  0.47000000000E+01 0. -1.
         -5    1    1    2    0  503  0.16012453324E+02 -0.15780290788E+02  0.49212223951E+02  0.54307911256E+02  0.47000000000E+01 0. -1.
<mgrwt>
<rscale>  0 0.11957894E+03</rscale>
<asrwt>0</asrwt>
<pdfrwt beam="1">  1        2 0.98839776E-01 0.12919307E+03</pdfrwt>
<pdfrwt beam="2">  1       -2 0.30119281E-02 0.12919307E+03</pdfrwt>
<totfact> 0.18458433E+04</totfact>
</mgrwt>
</event>
<event>
 6    1  0.1378876E-005  0.9959368E+02  0.7546771E-02  0.1282840E+00
          1   -1    0    0  501    0  0.00000000000E+00  0.00000000000E+00  0.50077817799E+02  0.50077817799E+02  0.00000000000E+00 0. -1.
         -1   -1    0    0    0  501 -0.00000000000E+00 -0.00000000000E+00 -0.38888071543E+03  0.38888071543E+03  0.00000000000E+00 0.  1.
          5    1    1    2  502    0 -0.20022824708E+01 -0.45807064118E+02  0.13716011512E+02  0.48088618508E+02  0.47000000000E+01 0. -1.
         -5    1    1    2    0  503  0.16994147789E+02  0.22323490128E+02 -0.65456911072E+02  0.71371117952E+02  0.47000000000E+01 0.  1.
          5    1    1    2  503    0 -0.25709960406E+02  0.63722623225E+02 -0.26148530979E+03  0.27040383135E+03  0.47000000000E+01 0. -1.
         -5    1    1    2    0  502  0.10718095088E+02 -0.40239049235E+02 -0.25576688281E+02  0.49094965415E+02  0.47000000000E+01 0.  1.
<mgrwt>
<rscale>  0 0.98800098E+02</rscale>
<asrwt>0</asrwt>
<pdfrwt beam="1">  1        1 0.77042799E-02 0.99593675E+02</pdfrwt>
<pdfrwt beam="2">  1       -1 0.59827800E-01 0.99593675E+02</pdfrwt>
<totfact> 0.25441233E+03</totfact>
</mgrwt>
</event>
<event>
 7    1  0.1378876E-005  0.1243825E+03  0.7546771E-02  0.1269680E+00
         -2   -1    0    0    0  501 -0.00000000000E+00  0.00000000000E+00  0.50614278747E+02  0.50614278747E+02  0.00000000000E+00 0.  1.
          2   -1    0    0  501    0  0.00000000000E+00 -0.00000000000E+00 -0.20016367389E+03  0.20016367389E+03  0.00000000000E+00 0. -1.
         23    2    1    2    0    0  0.59754162733E+02  0.14192069880E+02 -0.53222294270E+02  0.13529083802E+03  0.10816202398E+03 0.  0.
          5    1    3    3  502    0  0.18264439919E+02  0.44639362791E+02 -0.66169217713E+02  0.82016570574E+02  0.47000000000E+01 0. -1.
         -5    1    1    2    0  503 -0.27399759335E+02 -0.10022157862E+02 -0.56752153577E+02  0.63985056033E+02  0.47000000000E+01 0.  1.
          5    1    1    2  503    0 -0.32354403397E+02 -0.41699120181E+01 -0.39574947300E+02  0.51502058592E+02  0.47000000000E+01 0. -1.
         -5    1    3    3    0  502  0.41489722814E+02 -0.30447292911E+02  0.12946923443E+02  0.53274267442E+02  0.47000000000E+01 0.  1.
<mgrwt>
<rscale>  0 0.10522362E+03</rscale>
<asrwt>0</asrwt>
<pdfrwt beam="1">  1        2 0.30794411E-01 0.12438247E+03</pdfrwt>
<pdfrwt beam="2">  1       -2 0.77868121E-02 0.12438247E+03</pdfrwt>
<totfact> 0.15590275E+04</totfact>
</mgrwt>
</event>
<event>
 6    1  0.1378876E-005  0.3096772E+03  0.7546771E-02  0.1080501E+00
          2   -1    0    0  501    0  0.00000000000E+00  0.00000000000E+00  0.11916522485E+04  0.11916522485E+04  0.00000000000E+00 0. -1.
         -2   -1    0    0    0  501 -0.00000000000E+00 -0.00000000000E+00 -0.20119118107E+02  0.20119118107E+02  0.00000000000E+00 0.  1.
          5    1    1    2  502    0 -0.51369379756E+02  0.36392520097E+02  0.30746814954E+03  0.31388211430E+03  0.47000000000E+01 0. -1.
         -5    1    1    2    0  502 -0.25705953897E+02  0.35480416253E+02  0.42170001239E+03  0.42399604533E+03  0.47000000000E+01 0.  1.
          5    1    1    2  503    0  0.26035281974E+02 -0.46499576933E+02  0.39781741452E+03  0.40139859474E+03  0.47000000000E+01 0. -1.
         -5    1    1    2    0  503  0.51040051679E+02 -0.25373359417E+02  0.44547553970E+02  0.72494612270E+02  0.47000000000E+01 0.  1.
<mgrwt>
<rscale>  0 0.30967720E+03</rscale>
<asrwt>0</asrwt>
<pdfrwt beam="1">  1        2 0.18333106E+00 0.30967720E+03</pdfrwt>
<pdfrwt beam="2">  1       -2 0.30952499E-02 0.30967720E+03</pdfrwt>
<totfact> 0.81833372E+03</totfact>
</mgrwt>
</event>
<event>
 7    1  0.1378876E-005  0.1024362E+03  0.7546771E-02  0.1286698E+00
          2   -1    0    0  501    0  0.00000000000E+00  0.00000000000E+00  0.44715315926E+03  0.44715315926E+03  0.00000000000E+00 0. -1.
         -2   -1    0    0    0  501 -0.00000000000E+00 -0.00000000000E+00 -0.37369316366E+02  0.37369316366E+02  0.00000000000E+00 0.  1.
         23    2    1    2    0    0  0.49147484187E+02  0.17103954114E+02  0.38509517200E+03  0.39848646734E+03  0.88233512348E+02 0.  0.
          5    1    1    2  502    0 -0.26235363066E+02 -0.29481550263E+02 -0.11343429850E+02  0.41330611922E+02  0.47000000000E+01 0.  1.
         -5    1    1    2    0  502 -0.22912121121E+02  0.12377596149E+02  0.36032100744E+02  0.44705396371E+02  0.47000000000E+01 0.  1.
          5    1    3    3  503    0  0.59784666702E+02  0.37266271599E+02  0.34477596634E+03  0.35193115568E+03  0.47000000000E+01 0. -1.
         -5    1    3    3    0  503 -0.10637182515E+02 -0.20162317485E+02  0.40319205666E+02  0.46555311660E+02  0.47000000000E+01 0. -1.
<mgrwt>
<rscale>  0 0.97016384E+02</rscale>
<asrwt>0</asrwt>
<pdfrwt beam="1">  1        2 0.68792790E-01 0.10243619E+03</pdfrwt>
<pdfrwt beam="2">  1       -2 0.57491259E-02 0.10243619E+03</pdfrwt>
<totfact> 0.10371681E+04</totfact>
</mgrwt>
</event>
<event>
 7    1  0.1997522E-005  0.1283079E+03  0.7546771E-02  0.1250074E+00
          2   -1    0    0  501    0  0.00000000000E+00  0.00000000000E+00  0.51969518003E+03  0.51969518003E+03  0.00000000000E+00 0. -1.
         -2   -1    0    0    0  501 -0.00000000000E+00 -0.00000000000E+00 -0.22155328832E+02  0.22155328832E+02  0.00000000000E+00 0.  1.
         23    2    1    2    0    0  0.12443393931E+02  0.82006871860E+02  0.32359374604E+03  0.34810319121E+03  0.97892564426E+02 0.  0.
          5    1    1    2  502    0 -0.23270201844E+01 -0.36661627796E+02  0.58782653191E+02  0.69476472936E+02  0.47000000000E+01 0. -1.
         -5    1    1    2    0  502 -0.10116373747E+02 -0.45345244065E+02  0.11516345197E+03  0.12427084471E+03  0.47000000000E+01 0.  1.
          5    1    3    3  503    0 -0.18687999203E+02  0.40286930673E+02  0.26839645454E+03  0.27208642911E+03  0.47000000000E+01 0. -1.
         -5    1    3    3    0  503  0.31131393134E+02  0.41719941187E+02  0.55197291504E+02  0.76016762102E+02  0.47000000000E+01 0.  1.
<mgrwt>
<rscale>  0 0.11586767E+03</rscale>
<asrwt>0</asrwt>
<pdfrwt beam="1">  1        2 0.79953096E-01 0.12830791E+03</pdfrwt>
<pdfrwt beam="2">  1       -2 0.34085125E-02 0.12830791E+03</pdfrwt>
<totfact> 0.19529020E+04</totfact>
</mgrwt>
</event>
<event>
 7    1  0.1378876E-005  0.2040042E+03  0.7546771E-02  0.1159712E+00
          2   -1    0    0  501    0  0.00000000000E+00  0.00000000000E+00  0.51068850986E+03  0.51068850986E+03  0.00000000000E+00 0. -1.
         -2   -1    0    0    0  501 -0.00000000000E+00 -0.00000000000E+00 -0.72548147565E+02  0.72548147565E+02  0.00000000000E+00 0.  1.
         23    2    1    2    0    0 -0.11308046790E+03 -0.31929270191E+02  0.30540778508E+03  0.33985287205E+03  0.91757228242E+02 0.  0.
          5    1    1    2  502    0  0.41601145279E+02  0.89361126991E+02  0.24931716223E+02  0.10178284128E+03  0.47000000000E+01 0. -1.
         -5    1    1    2    0  502  0.71479322624E+02 -0.57431856800E+02  0.10780086099E+03  0.14160094409E+03  0.47000000000E+01 0.  1.
          5    1    3    3  503    0 -0.10043247907E+03  0.12482796484E+02  0.22966232174E+03  0.25101668289E+03  0.47000000000E+01 0. -1.
         -5    1    3    3    0  503 -0.12647988830E+02 -0.44412066674E+02  0.75745463341E+02  0.88836189160E+02  0.47000000000E+01 0.  1.
<mgrwt>
<rscale>  0 0.18861977E+03</rscale>
<asrwt>0</asrwt>
<pdfrwt beam="1">  1        2 0.78567461E-01 0.20400424E+03</pdfrwt>
<pdfrwt beam="2">  1       -2 0.11161254E-01 0.20400424E+03</pdfrwt>
<totfact> 0.33361928E+03</totfact>
</mgrwt>
</event>
<event>
 7    1  0.1378876E-005  0.9153961E+02  0.7546771E-02  0.1305061E+00
          2   -1    0    0  501    0  0.00000000000E+00  0.00000000000E+00  0.46248534049E+03  0.46248534049E+03  0.00000000000E+00 0. -1.
         -2   -1    0    0    0  501 -0.00000000000E+00 -0.00000000000E+00 -0.20266622391E+02  0.20266622391E+02  0.00000000000E+00 0.  1.
         23    2    1    2    0    0  0.30905874779E+01 -0.61977118434E+01  0.33731219952E+03  0.34951254756E+03  0.91277256711E+02 0.  0.
          5    1    1    2  502    0 -0.39456335339E+01 -0.33670301539E+02  0.20826395834E+02  0.40063524473E+02  0.47000000000E+01 0. -1.
         -5    1    1    2    0  502  0.85504605600E+00  0.39868013383E+02  0.84080122741E+02  0.93175890846E+02  0.47000000000E+01 0.  1.
          5    1    3    3  503    0  0.23359327353E+02  0.34013703421E+02  0.10668119088E+03  0.11447950333E+03  0.47000000000E+01 0. -1.
         -5    1    3    3    0  503 -0.20268739875E+02 -0.40211415264E+02  0.23063100864E+03  0.23503304423E+03  0.47000000000E+01 0.  1.
<mgrwt>
<rscale>  0 0.89094024E+02</rscale>
<asrwt>0</asrwt>
<pdfrwt beam="1">  1        2 0.71151583E-01 0.91539614E+02</pdfrwt>
<pdfrwt beam="2">  1       -2 0.31179422E-02 0.91539614E+02</pdfrwt>
<totfact> 0.24450541E+04</totfact>
</mgrwt>
</event>
<event>
 7    1  0.1378876E-005  0.9453517E+02  0.7546771E-02  0.1304260E+00
          2   -1    0    0  501    0  0.00000000000E+00  0.00000000000E+00  0.43145172162E+03  0.43145172162E+03  0.00000000000E+00 0. -1.
         -2   -1    0    0    0  501 -0.00000000000E+00 -0.00000000000E+00 -0.60397004210E+02  0.60397004210E+02  0.00000000000E+00 0.  1.
         23    2    1    2    0    0  0.19182875228E+02  0.18900313433E+02 -0.17372078522E+02  0.96118090551E+02  0.90618395865E+02 0.  0.
          5    1    3    3  502    0  0.33532474493E+02 -0.41553938155E+01  0.27256290057E+02  0.43665655738E+02  0.47000000000E+01 0. -1.
         -5    1    3    3    0  502 -0.14349599265E+02  0.23055707248E+02 -0.44628368579E+02  0.52452434813E+02  0.47000000000E+01 0.  1.
          5    1    1    2  503    0 -0.12903493807E+02  0.26347306759E+02  0.14593911602E+03  0.14893285840E+03  0.47000000000E+01 0.  1.
         -5    1    1    2    0  503 -0.62793814212E+01 -0.45247620192E+02  0.24248767991E+03  0.24679777688E+03  0.47000000000E+01 0. -1.
<mgrwt>
<rscale>  0 0.89420967E+02</rscale>
<asrwt>0</asrwt>
<pdfrwt beam="1">  1        2 0.66377186E-01 0.94535169E+02</pdfrwt>
<pdfrwt beam="2">  1       -2 0.92918470E-02 0.94535169E+02</pdfrwt>
<totfact> 0.51570917E+03</totfact>
</mgrwt>
</event>
<event>
 7    1  0.1378876E-005  0.3912532E+03  0.7546771E-02  0.1082747E+00
         -4   -1    0    0    0  501 -0.00000000000E+00  0.00000000000E+00  0.14044643215E+03  0.14044643215E+03  0.00000000000E+00 0.  1.
          4   -1    0    0  501    0  0.00000000000E+00 -0.00000000000E+00 -0.52887552836E+03  0.52887552836E+03  0.00000000000E+00 0. -1.
         23    2    1    2    0    0 -0.12913115694E+02 -0.11238018050E+03 -0.53025528853E+02  0.15398263782E+03  0.90016068081E+02 0.  0.
          5    1    3    3  502    0 -0.31960958961E+02 -0.32608921024E+01 -0.38469804474E+01  0.32695956533E+02  0.47000000000E+01 0. -1.
         -5    1    3    3    0  502  0.19047843267E+02 -0.10911928840E+03 -0.49178548406E+02  0.12128668129E+03  0.47000000000E+01 0.  1.
          5    1    1    2  503    0 -0.20935624937E+02 -0.81777453632E+02 -0.30421585958E+03  0.31574551705E+03  0.47000000000E+01 0. -1.
         -5    1    1    2    0  503  0.33848740631E+02  0.19415763414E+03 -0.31187707767E+02  0.19959380564E+03  0.47000000000E+01 0.  1.
<mgrwt>
<rscale>  0 0.30504153E+03</rscale>
<asrwt>0</asrwt>
<pdfrwt beam="1">  1        4 0.81365464E-01 0.39125320E+03</pdfrwt>
<pdfrwt beam="2">  1       -4 0.21607144E-01 0.39125320E+03</pdfrwt>
<totfact> 0.51047502E+01</totfact>
</mgrwt>
</event>
<event>
 7    1  0.1378876E-005  0.9674898E+02  0.7546771E-02  0.1302476E+00
          1   -1    0    0  501    0  0.00000000000E+00  0.00000000000E+00  0.24248326798E+03  0.24248326798E+03  0.00000000000E+00 0. -1.
         -1   -1    0    0    0  501 -0.00000000000E+00 -0.00000000000E+00 -0.40895882613E+02  0.40895882613E+02  0.00000000000E+00 0.  1.
         23    2    1    2    0    0 -0.23794365962E+02  0.42889601408E+02  0.18469164222E+03  0.20849788506E+03  0.83394697724E+02 0.  0.
          5    1    3    3  502    0  0.16422246856E+02  0.46149704961E+02  0.13851669023E+03  0.14699812560E+03  0.47000000000E+01 0. -1.
         -5    1    3    3    0  502 -0.40216612817E+02 -0.32601035535E+01  0.46174951997E+02  0.61499759460E+02  0.47000000000E+01 0.  1.
          5    1    1    2  503    0  0.18982932674E+02 -0.23475870935E+02 -0.17208013403E+02  0.35066707492E+02  0.47000000000E+01 0. -1.
         -5    1    1    2    0  503  0.48114332879E+01 -0.19413730472E+02  0.34103756547E+02  0.39814558038E+02  0.47000000000E+01 0.  1.
<mgrwt>
<rscale>  0 0.90155346E+02</rscale>
<asrwt>0</asrwt>
<pdfrwt beam="1">  1        1 0.37305117E-01 0.96748981E+02</pdfrwt>
<pdfrwt beam="2">  1       -1 0.62916744E-02 0.96748981E+02</pdfrwt>
<totfact> 0.12997816E+04</totfact>
</mgrwt>
</event>
<event>
 7    1  0.1378876E-005  0.1209615E+03  0.7546771E-02  0.1264152E+00
         -2   -1    0    0    0  501 -0.00000000000E+00  0.00000000000E+00  0.38922376385E+02  0.38922376385E+02  0.00000000000E+00 0.  1.
          2   -1    0    0  501    0  0.00000000000E+00 -0.00000000000E+00 -0.27080612352E+03  0.27080612352E+03  0.00000000000E+00 0. -1.
         23    2    1    2    0    0 -0.70191519955E+02 -0.25062612601E+02 -0.17967252264E+03  0.21659614943E+03  0.95271677490E+02 0.  0.
          5    1    1    2  502    0  0.41092083302E+02  0.55126973897E+01 -0.29429578664E+02  0.51060153182E+02  0.47000000000E+01 0. -1.
         -5    1    1    2    0  502  0.29099436653E+02  0.19549915212E+02 -0.22781645829E+02  0.42072197292E+02  0.47000000000E+01 0.  1.
          5    1    3    3  503    0 -0.32681444813E+02 -0.50636587632E+02 -0.15111392614E+03  0.16275641159E+03  0.47000000000E+01 0. -1.
         -5    1    3    3    0  503 -0.37510075141E+02  0.25573975031E+02 -0.28558596501E+02  0.53839737834E+02  0.47000000000E+01 0.  1.
<mgrwt>
<rscale>  0 0.10808818E+03</rscale>
<asrwt>0</asrwt>
<pdfrwt beam="1">  1        2 0.41662480E-01 0.12096147E+03</pdfrwt>
<pdfrwt beam="2">  1       -2 0.59880580E-02 0.12096147E+03</pdfrwt>
<totfact> 0.16812324E+04</totfact>
</mgrwt>
</event>
<event>
 7    1  0.1931754E-005  0.1121977E+03  0.7546771E-02  0.1267907E+00
          1   -1    0    0  501    0  0.00000000000E+00  0.00000000000E+00  0.60794027609E+03  0.60794027609E+03  0.00000000000E+00 0. -1.
         -1   -1    0    0    0  501 -0.00000000000E+00 -0.00000000000E+00 -0.16982484873E+02  0.16982484873E+02  0.00000000000E+00 0.  1.
         23    2    1    2    0    0 -0.71073885134E+02  0.35871783121E+02  0.29423908346E+03  0.31490469301E+03  0.79057229094E+02 0.  0.
          5    1    3    3  502    0 -0.15985511881E+02  0.45759225125E+02  0.19383485783E+03  0.19985866352E+03  0.47000000000E+01 0. -1.
         -5    1    3    3    0  502 -0.55088373252E+02 -0.98874420043E+01  0.10040422563E+03  0.11504602949E+03  0.47000000000E+01 0.  1.
          5    1    1    2  503    0  0.56247527047E+02 -0.75562966255E+01  0.17194626630E+03  0.18113114147E+03  0.47000000000E+01 0. -1.
         -5    1    1    2    0  503  0.14826358086E+02 -0.28315486495E+02  0.12477244146E+03  0.12888692648E+03  0.47000000000E+01 0.  1.
<mgrwt>
<rscale>  0 0.10613091E+03</rscale>
<asrwt>0</asrwt>
<pdfrwt beam="1">  1        1 0.93529257E-01 0.11219772E+03</pdfrwt>
<pdfrwt beam="2">  1       -1 0.26126904E-02 0.11219772E+03</pdfrwt>
<totfact> 0.14927981E+04</totfact>
</mgrwt>
</event>
<event>
 7    1  0.1378876E-005  0.9720152E+02  0.7546771E-02  0.1320136E+00
          2   -1    0    0  501    0  0.00000000000E+00  0.00000000000E+00  0.18758001257E+02  0.18758001257E+02  0.00000000000E+00 0. -1.
         -2   -1    0    0    0  501 -0.00000000000E+00 -0.00000000000E+00 -0.59663017144E+03  0.59663017144E+03  0.00000000000E+00 0.  1.
         23    2    1    2    0    0 -0.10052754210E+02  0.30657590080E+02 -0.54513895368E+03  0.55373695492E+03  0.91690734144E+02 0.  0.
          5    1    1    2  502    0 -0.13286093417E+02 -0.20076009633E+02 -0.81941689987E+01  0.25861184169E+02  0.47000000000E+01 0. -1.
         -5    1    3    3    0  503  0.25317811221E+02  0.41458789139E+02 -0.17352539174E+03  0.18025807704E+03  0.47000000000E+01 0.  1.
          5    1    3    3  503    0 -0.35370565431E+02 -0.10801199059E+02 -0.37161356194E+03  0.37347887787E+03  0.47000000000E+01 0. -1.
         -5    1    1    2    0  502  0.23338847627E+02 -0.10581580447E+02 -0.24539047511E+02  0.35790033613E+02  0.47000000000E+01 0.  1.
<mgrwt>
<rscale>  0 0.83226837E+02</rscale>
<asrwt>0</asrwt>
<pdfrwt beam="1">  1        2 0.28858467E-02 0.97201525E+02</pdfrwt>
<pdfrwt beam="2">  1       -2 0.91789246E-01 0.97201525E+02</pdfrwt>
<totfact> 0.31962997E+03</totfact>
</mgrwt>
</event>
<event>
 7    1  0.1378876E-005  0.9162200E+02  0.7546771E-02  0.1299755E+00
          2   -1    0    0  501    0  0.00000000000E+00  0.00000000000E+00  0.12998958615E+03  0.12998958615E+03  0.00000000000E+00 0. -1.
         -2   -1    0    0    0  501 -0.00000000000E+00 -0.00000000000E+00 -0.72477166145E+02  0.72477166145E+02  0.00000000000E+00 0.  1.
         23    2    1    2    0    0  0.14779643180E+02  0.15530314228E+02 -0.63798124316E+01  0.91843851087E+02  0.89078406269E+02 0.  0.
          5    1    1    2  502    0 -0.49878439680E+02 -0.12538858977E+02  0.51636419293E+02  0.73030757402E+02  0.47000000000E+01 0. -1.
         -5    1    3    3    0  503 -0.21356523805E+01 -0.26104253653E+02  0.25254420586E+02  0.36686084951E+02  0.47000000000E+01 0. -1.
          5    1    3    3  503    0  0.16915295561E+02  0.41634567881E+02 -0.31634233018E+02  0.55157766136E+02  0.47000000000E+01 0.  1.
         -5    1    1    2    0  502  0.35098796500E+02 -0.29914552510E+01  0.12255813146E+02  0.37592143808E+02  0.47000000000E+01 0.  1.
<mgrwt>
<rscale>  0 0.91291263E+02</rscale>
<asrwt>0</asrwt>
<pdfrwt beam="1">  1        2 0.19998398E-01 0.91622001E+02</pdfrwt>
<pdfrwt beam="2">  1       -2 0.11150333E-01 0.91622001E+02</pdfrwt>
<totfact> 0.13914549E+04</totfact>
</mgrwt>
</event>
<event>
 7    1  0.1378876E-005  0.1049984E+03  0.7546771E-02  0.1276759E+00
         -2   -1    0    0    0  501 -0.00000000000E+00  0.00000000000E+00  0.29321517779E+02  0.29321517779E+02  0.00000000000E+00 0.  1.
          2   -1    0    0  501    0  0.00000000000E+00 -0.00000000000E+00 -0.36236482304E+03  0.36236482304E+03  0.00000000000E+00 0. -1.
         23    2    1    2    0    0 -0.51797883990E+02  0.31975785578E+02 -0.23256652913E+03  0.25517026339E+03  0.85552330164E+02 0.  0.
          5    1    1    2  502    0  0.19439653128E+02 -0.48649775594E+02 -0.75895662631E+02  0.92341444570E+02  0.47000000000E+01 0. -1.
         -5    1    1    2    0  502  0.32358230862E+02  0.16673990016E+02 -0.24581113502E+02  0.44174632863E+02  0.47000000000E+01 0.  1.
          5    1    3    3  503    0 -0.54608061753E+02 -0.79496050917E+01 -0.18350044791E+03  0.19167613574E+03  0.47000000000E+01 0. -1.
         -5    1    3    3    0  503  0.28101777630E+01  0.39925390669E+02 -0.49066081216E+02  0.63494127643E+02  0.47000000000E+01 0.  1.
<mgrwt>
<rscale>  0 0.10170120E+03</rscale>
<asrwt>0</asrwt>
<pdfrwt beam="1">  1        2 0.55748433E-01 0.10499844E+03</pdfrwt>
<pdfrwt beam="2">  1       -2 0.45110028E-02 0.10499844E+03</pdfrwt>
<totfact> 0.18653552E+04</totfact>
</mgrwt>
</event>
<event>
 7    1  0.1378876E-005  0.1154800E+03  0.7546771E-02  0.1271545E+00
         -2   -1    0    0    0  501 -0.00000000000E+00  0.00000000000E+00  0.33767490827E+03  0.33767490827E+03  0.00000000000E+00 0.  1.
          2   -1    0    0  501    0  0.00000000000E+00 -0.00000000000E+00 -0.37878588849E+02  0.37878588849E+02  0.00000000000E+00 0. -1.
         23    2    1    2    0    0  0.52416574524E+02  0.50348654711E+02  0.74239044934E+02  0.13728462934E+03  0.89739341115E+02 0.  0.
          5    1    3    3  502    0 -0.22241622914E+02  0.24674216090E+02  0.89361332018E+01  0.34719608381E+02  0.47000000000E+01 0. -1.
         -5    1    3    3    0  502  0.74658197438E+02  0.25674438621E+02  0.65302911732E+02  0.10256502096E+03  0.47000000000E+01 0.  1.
          5    1    1    2  503    0 -0.35038553259E+02 -0.18959890376E+02  0.10516793905E+03  0.11255915361E+03  0.47000000000E+01 0.  1.
         -5    1    1    2    0  503 -0.17378021265E+02 -0.31388764335E+02  0.12038933544E+03  0.12570971417E+03  0.47000000000E+01 0.  1.
<mgrwt>
<rscale>  0 0.10427964E+03</rscale>
<asrwt>0</asrwt>
<pdfrwt beam="1">  1        2 0.58274754E-02 0.11548001E+03</pdfrwt>
<pdfrwt beam="2">  1       -2 0.51949984E-01 0.11548001E+03</pdfrwt>
<totfact> 0.42878755E+03</totfact>
</mgrwt>
</event>
<event>
 7    1  0.1378876E-005  0.1093420E+03  0.7546771E-02  0.1270431E+00
          2   -1    0    0  501    0  0.00000000000E+00  0.00000000000E+00  0.64555930844E+03  0.64555930844E+03  0.00000000000E+00 0. -1.
         -2   -1    0    0    0  501 -0.00000000000E+00 -0.00000000000E+00 -0.25628179043E+02  0.25628179043E+02  0.00000000000E+00 0.  1.
         23    2    1    2    0    0  0.11083988966E+02  0.76063058548E+02  0.11821400621E+03  0.16102863372E+03  0.77763911466E+02 0.  0.
          5    1    3    3  502    0 -0.30469189438E+02  0.31978556366E+02  0.72355749349E+02  0.84902556123E+02  0.47000000000E+01 0. -1.
         -5    1    3    3    0  502  0.41553178404E+02  0.44084502182E+02  0.45858256863E+02  0.76126077599E+02  0.47000000000E+01 0.  1.
          5    1    1    2  503    0  0.13357955296E+02 -0.58333998584E+02  0.28130435391E+03  0.28763782764E+03  0.47000000000E+01 0. -1.
         -5    1    1    2    0  503 -0.24441944263E+02 -0.17729059964E+02  0.22041276927E+03  0.22252102612E+03  0.47000000000E+01 0.  1.
<mgrwt>
<rscale>  0 0.10484194E+03</rscale>
<asrwt>0</asrwt>
<pdfrwt beam="1">  1        2 0.99316805E-01 0.10934198E+03</pdfrwt>
<pdfrwt beam="2">  1       -2 0.39427972E-02 0.10934198E+03</pdfrwt>
<totfact> 0.12187100E+04</totfact>
</mgrwt>
</event>
<event>
 7    1  0.1378876E-005  0.1182451E+03  0.7546771E-02  0.1270457E+00
          1   -1    0    0  501    0  0.00000000000E+00  0.00000000000E+00  0.11968789833E+03  0.11968789833E+03  0.00000000000E+00 0. -1.
         -1   -1    0    0    0  501 -0.00000000000E+00 -0.00000000000E+00 -0.11881251628E+03  0.11881251628E+03  0.00000000000E+00 0.  1.
         23    2    1    2    0    0 -0.67451344614E+02 -0.20232058714E+02  0.70436764568E+02  0.13763448679E+03  0.94988915460E+02 0.  0.
          5    1    3    3  502    0 -0.21283662295E+02 -0.55576894187E+02  0.39756390687E+02  0.71724793821E+02  0.47000000000E+01 0. -1.
         -5    1    3    3    0  502 -0.46167682319E+02  0.35344835474E+02  0.30680373882E+02  0.65909692966E+02  0.47000000000E+01 0.  1.
          5    1    1    2  503    0  0.48864901657E+02  0.66550845580E+01 -0.47981313246E+02  0.68966406207E+02  0.47000000000E+01 0. -1.
         -5    1    1    2    0  503  0.18586442958E+02  0.13576974156E+02 -0.21580069272E+02  0.31899521608E+02  0.47000000000E+01 0.  1.
<mgrwt>
<rscale>  0 0.10482885E+03</rscale>
<asrwt>0</asrwt>
<pdfrwt beam="1">  1        1 0.18413523E-01 0.11824514E+03</pdfrwt>
<pdfrwt beam="2">  1       -1 0.18278849E-01 0.11824514E+03</pdfrwt>
<totfact> 0.62495708E+03</totfact>
</mgrwt>
</event>
<event>
 7    1  0.1378876E-005  0.1031936E+03  0.7546771E-02  0.1308910E+00
          2   -1    0    0  501    0  0.00000000000E+00  0.00000000000E+00  0.76343123419E+03  0.76343123419E+03  0.00000000000E+00 0. -1.
         -2   -1    0    0    0  501 -0.00000000000E+00 -0.00000000000E+00 -0.92292754921E+01  0.92292754921E+01  0.00000000000E+00 0.  1.
         23    2    1    2    0    0 -0.31425760721E+02  0.39476303967E+02  0.34863999307E+03  0.36359147155E+03  0.90016422967E+02 0.  0.
          5    1    1    2  502    0  0.22923823188E+02 -0.17029732281E+02  0.22864548023E+03  0.23046986588E+03  0.47000000000E+01 0. -1.
         -5    1    3    3    0  503 -0.41309721378E+02  0.63653691163E+02  0.27495269764E+03  0.28527068096E+03  0.47000000000E+01 0.  1.
          5    1    3    3  503    0  0.98839606574E+01 -0.24177387196E+02  0.73687295428E+02  0.78320790582E+02  0.47000000000E+01 0. -1.
         -5    1    1    2    0  502  0.85019375330E+01 -0.22446571687E+02  0.17691648541E+03  0.17859917226E+03  0.47000000000E+01 0.  1.
<mgrwt>
<rscale>  0 0.87544264E+02</rscale>
<asrwt>0</asrwt>
<pdfrwt beam="1">  1        2 0.11745091E+00 0.10319357E+03</pdfrwt>
<pdfrwt beam="2">  1       -2 0.14198891E-02 0.10319357E+03</pdfrwt>
<totfact> 0.43779264E+04</totfact>
</mgrwt>
</event>
<event>
 7    1  0.1378876E-005  0.1187186E+03  0.7546771E-02  0.1273145E+00
          2   -1    0    0  501    0  0.00000000000E+00  0.00000000000E+00  0.75371044405E+03  0.75371044405E+03  0.00000000000E+00 0.  1.
         -2   -1    0    0    0  501 -0.00000000000E+00 -0.00000000000E+00 -0.11665453015E+02  0.11665453015E+02  0.00000000000E+00 0. -1.
         23    2    1    2    0    0 -0.29285830645E+02  0.57986816911E+02  0.44966790427E+03  0.46507562383E+03  0.99367906957E+02 0.  0.
          5    1    1    2  502    0  0.28372292293E+02 -0.36458204833E+02  0.19361025525E+03  0.19910100103E+03  0.47000000000E+01 0.  1.
         -5    1    3    3    0  503 -0.10734912541E+02 -0.26249802982E+02  0.69372593015E+02  0.75092856954E+02  0.47000000000E+01 0.  1.
          5    1    3    3  503    0 -0.18550918104E+02  0.84236619893E+02  0.38029531126E+03  0.38998276687E+03  0.47000000000E+01 0. -1.
         -5    1    1    2    0  502  0.91353835191E+00 -0.21528612078E+02  0.98766831508E+02  0.10119927221E+03  0.47000000000E+01 0. -1.
<mgrwt>
<rscale>  0 0.10347940E+03</rscale>
<asrwt>0</asrwt>
<pdfrwt beam="1">  1        2 0.11595542E+00 0.11871862E+03</pdfrwt>
<pdfrwt beam="2">  1       -2 0.17946857E-02 0.11871862E+03</pdfrwt>
<totfact> 0.32218131E+04</totfact>
</mgrwt>
</event>
<event>
 7    1  0.1378876E-005  0.1167229E+03  0.7546771E-02  0.1292899E+00
          2   -1    0    0  501    0  0.00000000000E+00  0.00000000000E+00  0.10603319039E+03  0.10603319039E+03  0.00000000000E+00 0. -1.
         -2   -1    0    0    0  501 -0.00000000000E+00 -0.00000000000E+00 -0.74491157649E+02  0.74491157649E+02  0.00000000000E+00 0.  1.
         23    2    1    2    0    0  0.47144545146E+02 -0.87470950338E+00  0.50827649539E+02  0.12730941758E+03  0.10677483127E+03 0.  0.
          5    1    1    2  502    0 -0.25538317369E+02  0.43742675801E+00 -0.38724594069E+01  0.26258007123E+02  0.47000000000E+01 0.  1.
         -5    1    1    2    0  502 -0.21606227777E+02  0.43728274537E+00 -0.15413157392E+02  0.26956923336E+02  0.47000000000E+01 0.  1.
          5    1    3    3  503    0  0.24848408033E+02  0.27256985249E+02  0.75047026943E+02  0.83752808190E+02  0.47000000000E+01 0. -1.
         -5    1    3    3    0  503  0.22296137112E+02 -0.28131694752E+02 -0.24219377404E+02  0.43556609391E+02  0.47000000000E+01 0. -1.
<mgrwt>
<rscale>  0 0.94239208E+02</rscale>
<asrwt>0</asrwt>
<pdfrwt beam="1">  1        2 0.16312799E-01 0.11672291E+03</pdfrwt>
<pdfrwt beam="2">  1       -2 0.11460178E-01 0.11672291E+03</pdfrwt>
<totfact> 0.17204371E+04</totfact>
</mgrwt>
</event>
<event>
 7    1  0.1378876E-005  0.1036675E+03  0.7546771E-02  0.1297291E+00
          1   -1    0    0  501    0  0.00000000000E+00  0.00000000000E+00  0.25009533175E+03  0.25009533175E+03  0.00000000000E+00 0. -1.
         -1   -1    0    0    0  501 -0.00000000000E+00 -0.00000000000E+00 -0.23047012517E+03  0.23047012517E+03  0.00000000000E+00 0.  1.
         23    2    1    2    0    0  0.17909479845E+02 -0.47991328675E+02 -0.21411415618E+03  0.23789036755E+03  0.90127898016E+02 0.  0.
          5    1    1    2  502    0  0.46306229314E+01  0.23488345212E+02  0.47231070903E+02  0.53160220920E+02  0.47000000000E+01 0. -1.
         -5    1    1    2    0  502 -0.22540102777E+02  0.24502983463E+02  0.18650829186E+03  0.18951486845E+03  0.47000000000E+01 0.  1.
          5    1    3    3  503    0  0.11742211575E+02  0.24258869628E+02 -0.33796103652E+02  0.43481477785E+02  0.47000000000E+01 0. -1.
         -5    1    3    3    0  503  0.61672682702E+01 -0.72250198303E+02 -0.18031805253E+03  0.19440888977E+03  0.47000000000E+01 0.  1.
<mgrwt>
<rscale>  0 0.92336070E+02</rscale>
<asrwt>0</asrwt>
<pdfrwt beam="1">  1        1 0.38476205E-01 0.10366752E+03</pdfrwt>
<pdfrwt beam="2">  1       -1 0.35456942E-01 0.10366752E+03</pdfrwt>
<totfact> 0.83693290E+02</totfact>
</mgrwt>
</event>
<event>
 7    1  0.1378876E-005  0.1279619E+03  0.7546771E-02  0.1242471E+00
          1   -1    0    0  501    0  0.00000000000E+00  0.00000000000E+00  0.11426539551E+03  0.11426539551E+03  0.00000000000E+00 0. -1.
         -1   -1    0    0    0  501 -0.00000000000E+00 -0.00000000000E+00 -0.11926546358E+03  0.11926546358E+03  0.00000000000E+00 0.  1.
         23    2    1    2    0    0 -0.30364140313E+02 -0.27165158069E+02 -0.26746764174E+02  0.10373419221E+03  0.91572192343E+02 0.  0.
          5    1    1    2  502    0 -0.23314893216E+01  0.63027288452E+02 -0.19233875702E+02  0.66105271398E+02  0.47000000000E+01 0. -1.
         -5    1    1    2    0  502  0.32695629634E+02 -0.35862130383E+02  0.40980571806E+02  0.63691395481E+02  0.47000000000E+01 0.  1.
          5    1    3    3  503    0  0.31835192361E+02 -0.14987288083E+02 -0.20770589334E+01  0.35559843231E+02  0.47000000000E+01 0. -1.
         -5    1    3    3    0  503 -0.62199332674E+02 -0.12177869986E+02 -0.24669705240E+02  0.68174348982E+02  0.47000000000E+01 0.  1.
<mgrwt>
<rscale>  0 0.12038059E+03</rscale>
<asrwt>0</asrwt>
<pdfrwt beam="1">  1        1 0.17579292E-01 0.12796193E+03</pdfrwt>
<pdfrwt beam="2">  1       -1 0.18348533E-01 0.12796193E+03</pdfrwt>
<totfact> 0.66283738E+03</totfact>
</mgrwt>
</event>
<event>
 7    1  0.1378876E-005  0.1216408E+03  0.7546771E-02  0.1259022E+00
         -4   -1    0    0    0  501 -0.00000000000E+00  0.00000000000E+00  0.19478991047E+03  0.19478991047E+03  0.00000000000E+00 0.  1.
          4   -1    0    0  501    0  0.00000000000E+00 -0.00000000000E+00 -0.60330515910E+02  0.60330515910E+02  0.00000000000E+00 0. -1.
         23    2    1    2    0    0 -0.44703534136E+02  0.65987268773E+02  0.38292207340E+02  0.12752560159E+03  0.91889935868E+02 0.  0.
          5    1    3    3  502    0  0.23035064945E+02  0.44250490853E+02  0.11900170814E+02  0.51501691459E+02  0.47000000000E+01 0. -1.
         -5    1    3    3    0  502 -0.67738599081E+02  0.21736777921E+02  0.26392036526E+02  0.76023910133E+02  0.47000000000E+01 0.  1.
          5    1    1    2  503    0  0.27808709184E+02 -0.32172934788E+02  0.33840178111E+02  0.54549699302E+02  0.47000000000E+01 0. -1.
         -5    1    1    2    0  503  0.16894824952E+02 -0.33814333986E+02  0.62327009110E+02  0.73045125489E+02  0.47000000000E+01 0.  1.
<mgrwt>
<rscale>  0 0.11084005E+03</rscale>
<asrwt>0</asrwt>
<pdfrwt beam="1">  1        4 0.92816179E-02 0.12164081E+03</pdfrwt>
<pdfrwt beam="2">  1       -4 0.29967678E-01 0.12164081E+03</pdfrwt>
<totfact> 0.14734308E+03</totfact>
</mgrwt>
</event>
<event>
 7    1  0.1378876E-005  0.1107732E+03  0.7546771E-02  0.1290457E+00
         -2   -1    0    0    0  501 -0.00000000000E+00  0.00000000000E+00  0.82144064171E+02  0.82144064171E+02  0.00000000000E+00 0.  1.
          2   -1    0    0  501    0  0.00000000000E+00 -0.00000000000E+00 -0.10525184851E+03  0.10525184851E+03  0.00000000000E+00 0. -1.
         23    2    1    2    0    0  0.55341625142E+02  0.79450417902E+01  0.20465616260E+02  0.11264786406E+03  0.95628869416E+02 0.  0.
          5    1    1    2  502    0 -0.34760960660E+02 -0.14222097025E+02 -0.21335474951E+02  0.43449797712E+02  0.47000000000E+01 0.  1.
         -5    1    1    2    0  502 -0.20580664482E+02  0.62770552350E+01 -0.22237925647E+02  0.31298250910E+02  0.47000000000E+01 0. -1.
          5    1    3    3  503    0  0.16241238548E+02  0.41833037306E+02 -0.17398985284E+02  0.48359027376E+02  0.47000000000E+01 0. -1.
         -5    1    3    3    0  503  0.39100386595E+02 -0.33887995516E+02  0.37864601544E+02  0.64288836683E+02  0.47000000000E+01 0.  1.
<mgrwt>
<rscale>  0 0.95320021E+02</rscale>
<asrwt>0</asrwt>
<pdfrwt beam="1">  1        2 0.16192592E-01 0.11077319E+03</pdfrwt>
<pdfrwt beam="2">  1       -2 0.12637548E-01 0.11077319E+03</pdfrwt>
<totfact> 0.14777589E+04</totfact>
</mgrwt>
</event>
<event>
 7    1  0.1378876E-005  0.2023662E+03  0.7546771E-02  0.1153104E+00
          1   -1    0    0  501    0  0.00000000000E+00  0.00000000000E+00  0.14197755971E+03  0.14197755971E+03  0.00000000000E+00 0. -1.
         -1   -1    0    0    0  501 -0.00000000000E+00 -0.00000000000E+00 -0.49588367544E+03  0.49588367544E+03  0.00000000000E+00 0.  1.
         23    2    1    2    0    0  0.14670619529E+03  0.40957799964E+02 -0.39317783004E+03  0.43171962943E+03  0.92697266899E+02 0.  0.
          5    1    1    2  502    0 -0.14387626884E+03 -0.78642849349E+02  0.35849967570E+02  0.16790589228E+03  0.47000000000E+01 0. -1.
         -5    1    1    2    0  502 -0.28299264524E+01  0.37685049385E+02  0.34217467399E+01  0.38235713432E+02  0.47000000000E+01 0.  1.
          5    1    3    3  503    0  0.43486080433E+02  0.55177346722E+02 -0.20231464863E+03  0.21421691304E+03  0.47000000000E+01 0. -1.
         -5    1    3    3    0  503  0.10322011486E+03 -0.14219546757E+02 -0.19086318141E+03  0.21750271640E+03  0.47000000000E+01 0.  1.
<mgrwt>
<rscale>  0 0.19606273E+03</rscale>
<asrwt>0</asrwt>
<pdfrwt beam="1">  1        1 0.21842702E-01 0.20236624E+03</pdfrwt>
<pdfrwt beam="2">  1       -1 0.76289795E-01 0.20236624E+03</pdfrwt>
<totfact> 0.41212923E+02</totfact>
</mgrwt>
</event>
<event>
 7    1  0.1378876E-005  0.2128257E+03  0.7546771E-02  0.1142909E+00
          2   -1    0    0  501    0  0.00000000000E+00  0.00000000000E+00  0.22971522958E+03  0.22971522958E+03  0.00000000000E+00 0. -1.
         -2   -1    0    0    0  501 -0.00000000000E+00 -0.00000000000E+00 -0.18785987780E+03  0.18785987780E+03  0.00000000000E+00 0.  1.
         23    2    1    2    0    0 -0.19428846970E+02 -0.17425979200E+03 -0.18882627757E+02  0.19625206165E+03  0.86106694688E+02 0.  0.
          5    1    3    3  502    0  0.14396451704E+02 -0.10568012037E+03  0.22606722828E+02  0.10912698832E+03  0.47000000000E+01 0. -1.
         -5    1    3    3    0  502 -0.33825298675E+02 -0.68579671628E+02 -0.41489350585E+02  0.87125073331E+02  0.47000000000E+01 0.  1.
          5    1    1    2  503    0  0.44121177088E+02  0.13855405986E+03 -0.12605912151E+01  0.14549084116E+03  0.47000000000E+01 0.  1.
         -5    1    1    2    0  503 -0.24692330118E+02  0.35705732142E+02  0.61998570757E+02  0.75832204573E+02  0.47000000000E+01 0.  1.
<mgrwt>
<rscale>  0 0.20831318E+03</rscale>
<asrwt>0</asrwt>
<pdfrwt beam="1">  1        2 0.35340804E-01 0.21282572E+03</pdfrwt>
<pdfrwt beam="2">  1       -2 0.28901520E-01 0.21282572E+03</pdfrwt>
<totfact> 0.15903282E+03</totfact>
</mgrwt>
</event>
<event>
 7    1  0.1378876E-005  0.1265629E+03  0.7546771E-02  0.1234208E+00
          2   -1    0    0  501    0  0.00000000000E+00  0.00000000000E+00  0.32063286185E+03  0.32063286185E+03  0.00000000000E+00 0. -1.
         -2   -1    0    0    0  501 -0.00000000000E+00 -0.00000000000E+00 -0.55183541262E+02  0.55183541262E+02  0.00000000000E+00 0.  1.
         23    2    1    2    0    0 -0.46621486141E+02  0.56798832332E+02  0.64955718973E+02  0.13871759023E+03  0.98100224704E+02 0.  0.
          5    1    1    2  502    0  0.31028656008E+02 -0.80931110223E+02  0.99736133663E+02  0.13221954641E+03  0.47000000000E+01 0. -1.
         -5    1    3    3    0  503  0.58755721555E+01  0.66761698097E+02  0.24425207196E+02  0.71486554173E+02  0.47000000000E+01 0.  1.
          5    1    3    3  503    0 -0.52497058297E+02 -0.99628657648E+01  0.40530511777E+02  0.67231036055E+02  0.47000000000E+01 0. -1.
         -5    1    1    2    0  502  0.15592830133E+02  0.24132277890E+02  0.10075746795E+03  0.10487926647E+03  0.47000000000E+01 0.  1.
<mgrwt>
<rscale>  0 0.12555254E+03</rscale>
<asrwt>0</asrwt>
<pdfrwt beam="1">  1        2 0.49328131E-01 0.12656288E+03</pdfrwt>
<pdfrwt beam="2">  1       -2 0.84897758E-02 0.12656288E+03</pdfrwt>
<totfact> 0.82778234E+03</totfact>
</mgrwt>
</event>
<event>
 7    1  0.1378876E-005  0.1094028E+03  0.7546771E-02  0.1287927E+00
         -2   -1    0    0    0  501 -0.00000000000E+00  0.00000000000E+00  0.10919676188E+02  0.10919676188E+02  0.00000000000E+00 0.  1.
          2   -1    0    0  501    0  0.00000000000E+00 -0.00000000000E+00 -0.75057621478E+03  0.75057621478E+03  0.00000000000E+00 0. -1.
         23    2    1    2    0    0  0.64011784205E+01 -0.63675010285E+02 -0.36468722935E+03  0.38074368382E+03  0.88732719418E+02 0.  0.
          5    1    3    3  502    0 -0.14377364900E+02 -0.52676152270E+02 -0.34608656724E+03  0.35039904061E+03  0.47000000000E+01 0. -1.
         -5    1    3    3    0  502  0.20778543320E+02 -0.10998858015E+02 -0.18600662110E+02  0.30344643202E+02  0.47000000000E+01 0.  1.
          5    1    1    2  503    0 -0.97099516136E+01  0.40317173477E+02 -0.21942037782E+03  0.22335431457E+03  0.47000000000E+01 0.  1.
         -5    1    1    2    0  503  0.33087731931E+01  0.23357836808E+02 -0.15554893143E+03  0.15739789258E+03  0.47000000000E+01 0. -1.
<mgrwt>
<rscale>  0 0.96457235E+02</rscale>
<asrwt>0</asrwt>
<pdfrwt beam="1">  1        2 0.11547330E+00 0.10940282E+03</pdfrwt>
<pdfrwt beam="2">  1       -2 0.16799497E-02 0.10940282E+03</pdfrwt>
<totfact> 0.35328597E+04</totfact>
</mgrwt>
</event>
<event>
 7    1  0.1378876E-005  0.1101453E+03  0.7546771E-02  0.1289538E+00
          2   -1    0    0  501    0  0.00000000000E+00  0.00000000000E+00  0.93961805266E+03  0.93961805266E+03  0.00000000000E+00 0. -1.
         -2   -1    0    0    0  501 -0.00000000000E+00 -0.00000000000E+00 -0.81206796157E+01  0.81206796157E+01  0.00000000000E+00 0.  1.
         23    2    1    2    0    0  0.39655214483E+02  0.42833712199E+02  0.52697942432E+03  0.53836725986E+03  0.93406262637E+02 0.  0.
          5    1    1    2  502    0 -0.22592518998E+02 -0.92514440719E+01  0.15406596209E+03  0.15605903309E+03  0.47000000000E+01 0. -1.
         -5    1    3    3    0  503  0.50792199269E+02 -0.12734549889E+02  0.28361993788E+03  0.28845168647E+03  0.47000000000E+01 0.  1.
          5    1    3    3  503    0 -0.11136984786E+02  0.55568262088E+02  0.24335948644E+03  0.24991557339E+03  0.47000000000E+01 0. -1.
         -5    1    1    2    0  502 -0.17062695485E+02 -0.33582268127E+02  0.25045198663E+03  0.25331243933E+03  0.47000000000E+01 0.  1.
<mgrwt>
<rscale>  0 0.95730951E+02</rscale>
<asrwt>0</asrwt>
<pdfrwt beam="1">  1        2 0.14455654E+00 0.11014533E+03</pdfrwt>
<pdfrwt beam="2">  1       -2 0.12493361E-02 0.11014533E+03</pdfrwt>
<totfact> 0.40735922E+04</totfact>
</mgrwt>
</event>
<event>
 7    1  0.1378876E-005  0.1239416E+03  0.7546771E-02  0.1253893E+00
          2   -1    0    0  501    0  0.00000000000E+00  0.00000000000E+00  0.34957553950E+03  0.34957553950E+03  0.00000000000E+00 0.  1.
         -2   -1    0    0    0  501 -0.00000000000E+00 -0.00000000000E+00 -0.33072313322E+02  0.33072313322E+02  0.00000000000E+00 0. -1.
         23    2    1    2    0    0  0.81244740350E+02  0.20931930933E+02  0.15122033428E+03  0.19552262749E+03  0.91228585405E+02 0.  0.
          5    1    3    3  502    0  0.25098904413E+02 -0.34015589265E+00 -0.67897431870E+01  0.26424634743E+02  0.47000000000E+01 0. -1.
         -5    1    3    3    0  502  0.56145835937E+02  0.21272086825E+02  0.15801007747E+03  0.16909799275E+03  0.47000000000E+01 0.  1.
          5    1    1    2  503    0 -0.40151915066E+02  0.19315991226E+01  0.77061505213E+02  0.87042937361E+02  0.47000000000E+01 0. -1.
         -5    1    1    2    0  503 -0.41092825283E+02 -0.22863530055E+02  0.88221386679E+02  0.10008228796E+03  0.47000000000E+01 0.  1.
<mgrwt>
<rscale>  0 0.11368569E+03</rscale>
<asrwt>0</asrwt>
<pdfrwt beam="1">  1        2 0.53780850E-01 0.12394155E+03</pdfrwt>
<pdfrwt beam="2">  1       -2 0.50880485E-02 0.12394155E+03</pdfrwt>
<totfact> 0.16440471E+04</totfact>
</mgrwt>
</event>
<event>
 7    1  0.1378876E-005  0.1998467E+03  0.7546771E-02  0.1182708E+00
          1   -1    0    0  501    0  0.00000000000E+00  0.00000000000E+00  0.12663704432E+04  0.12663704432E+04  0.00000000000E+00 0. -1.
         -1   -1    0    0    0  501 -0.00000000000E+00 -0.00000000000E+00 -0.18075378838E+02  0.18075378838E+02  0.00000000000E+00 0.  1.
         23    2    1    2    0    0  0.89314712797E+01 -0.27475794355E+02  0.55690771555E+03  0.56475478770E+03  0.89258479343E+02 0.  0.
          5    1    3    3  502    0 -0.60267073643E+01  0.25222682477E+02  0.70776089773E+02  0.75523835949E+02  0.47000000000E+01 0. -1.
         -5    1    3    3    0  502  0.14958178644E+02 -0.52698476832E+02  0.48613162578E+03  0.48923095175E+03  0.47000000000E+01 0.  1.
          5    1    1    2  503    0  0.31332209352E+02  0.90939668018E+02  0.19347967112E+03  0.21612080811E+03  0.47000000000E+01 0. -1.
         -5    1    1    2    0  503 -0.40263680632E+02 -0.63463873663E+02  0.49790767772E+03  0.50357022625E+03  0.47000000000E+01 0.  1.
<mgrwt>
<rscale>  0 0.16542229E+03</rscale>
<asrwt>0</asrwt>
<pdfrwt beam="1">  1        1 0.19482615E+00 0.19984674E+03</pdfrwt>
<pdfrwt beam="2">  1       -1 0.27808285E-02 0.19984674E+03</pdfrwt>
<totfact> 0.43152806E+03</totfact>
</mgrwt>
</event>
<event>
 7    1  0.1378876E-005  0.1100014E+03  0.7546771E-02  0.1284976E+00
         -2   -1    0    0    0  501 -0.00000000000E+00  0.00000000000E+00  0.45422935452E+02  0.45422935452E+02  0.00000000000E+00 0.  1.
          2   -1    0    0  501    0  0.00000000000E+00 -0.00000000000E+00 -0.19085136586E+03  0.19085136586E+03  0.00000000000E+00 0. -1.
         23    2    1    2    0    0  0.83338136272E+01  0.61296900329E+02 -0.55892154355E+02  0.12338654487E+03  0.90959024270E+02 0.  0.
          5    1    1    2  502    0  0.10122287358E+02 -0.30323260114E+02 -0.44855886786E+02  0.55282016829E+02  0.47000000000E+01 0.  1.
         -5    1    3    3    0  503 -0.24606382486E+02  0.64906022923E+02 -0.16138441702E+02  0.71419921390E+02  0.47000000000E+01 0.  1.
          5    1    3    3  503    0  0.32940196113E+02 -0.36091225948E+01 -0.39753712653E+02  0.51966623477E+02  0.47000000000E+01 0. -1.
         -5    1    1    2    0  502 -0.18456100985E+02 -0.30973640215E+02 -0.44680389264E+02  0.57605739614E+02  0.47000000000E+01 0. -1.
<mgrwt>
<rscale>  0 0.97807172E+02</rscale>
<asrwt>0</asrwt>
<pdfrwt beam="1">  1        2 0.29361748E-01 0.11000139E+03</pdfrwt>
<pdfrwt beam="2">  1       -2 0.69881440E-02 0.11000139E+03</pdfrwt>
<totfact> 0.19141687E+04</totfact>
</mgrwt>
</event>
<event>
 7    1  0.1378876E-005  0.1089745E+03  0.7546771E-02  0.1277856E+00
          4   -1    0    0  501    0  0.00000000000E+00  0.00000000000E+00  0.49024060978E+03  0.49024060978E+03  0.00000000000E+00 0.  1.
         -4   -1    0    0    0  501 -0.00000000000E+00 -0.00000000000E+00 -0.19572261626E+02  0.19572261626E+02  0.00000000000E+00 0. -1.
         23    2    1    2    0    0  0.52871676996E+02 -0.21542468873E+02  0.32984547845E+03  0.34738087500E+03  0.92822090438E+02 0.  0.
          5    1    1    2  502    0 -0.15769532264E+02  0.36938769003E+02  0.67051723898E+02  0.78301816588E+02  0.47000000000E+01 0. -1.
         -5    1    1    2    0  502 -0.37102144732E+02 -0.15396300130E+02  0.73771145810E+02  0.84130179814E+02  0.47000000000E+01 0.  1.
          5    1    3    3  503    0  0.26157180038E+02 -0.50433360603E+02  0.10899299611E+03  0.12300115906E+03  0.47000000000E+01 0. -1.
         -5    1    3    3    0  503  0.26714496958E+02  0.28890891729E+02  0.22085248233E+03  0.22437971594E+03  0.47000000000E+01 0.  1.
<mgrwt>
<rscale>  0 0.10116940E+03</rscale>
<asrwt>0</asrwt>
<pdfrwt beam="1">  1        4 0.75421623E-01 0.10897446E+03</pdfrwt>
<pdfrwt beam="2">  1       -4 0.30111175E-02 0.10897446E+03</pdfrwt>
<totfact> 0.13645568E+03</totfact>
</mgrwt>
</event>
<event>
 7    1  0.1378876E-005  0.1557906E+03  0.7546771E-02  0.1198232E+00
          2   -1    0    0  501    0  0.00000000000E+00  0.00000000000E+00  0.20675225273E+03  0.20675225273E+03  0.00000000000E+00 0. -1.
         -2   -1    0    0    0  501 -0.00000000000E+00 -0.00000000000E+00 -0.10828089175E+03  0.10828089175E+03  0.00000000000E+00 0.  1.
         23    2    1    2    0    0 -0.10642345073E+03  0.87843797935E+01  0.68544995776E+02  0.15639428401E+03  0.91420125959E+02 0.  0.
          5    1    3    3  502    0 -0.32825324108E+02  0.24892556145E+01  0.75055647022E+02  0.82092255702E+02  0.47000000000E+01 0. -1.
         -5    1    3    3    0  502 -0.73598126620E+02  0.62951241789E+01 -0.65106512453E+01  0.74302028304E+02  0.47000000000E+01 0.  1.
          5    1    1    2  503    0  0.72283133450E+02  0.27423253896E+02 -0.27788094313E+02  0.82287024622E+02  0.47000000000E+01 0. -1.
         -5    1    1    2    0  503  0.34140317278E+02 -0.36207633689E+02  0.57714459516E+02  0.76351835855E+02  0.47000000000E+01 0.  1.
<mgrwt>
<rscale>  0 0.15183829E+03</rscale>
<asrwt>0</asrwt>
<pdfrwt beam="1">  1        2 0.31808039E-01 0.15579057E+03</pdfrwt>
<pdfrwt beam="2">  1       -2 0.16658599E-01 0.15579057E+03</pdfrwt>
<totfact> 0.45577041E+03</totfact>
</mgrwt>
</event>
<event>
 7    1  0.1378876E-005  0.1550469E+03  0.7546771E-02  0.1212141E+00
          2   -1    0    0  501    0  0.00000000000E+00  0.00000000000E+00  0.10325862898E+04  0.10325862898E+04  0.00000000000E+00 0. -1.
         -2   -1    0    0    0  501 -0.00000000000E+00 -0.00000000000E+00 -0.21244621406E+02  0.21244621406E+02  0.00000000000E+00 0.  1.
         23    2    1    2    0    0 -0.54108996522E+02  0.55793933606E+01  0.18499598084E+03  0.21306534437E+03  0.90633409457E+02 0.  0.
          5    1    3    3  502    0 -0.63702035590E+01  0.20101651074E+02  0.15092076330E+03  0.15245924919E+03  0.47000000000E+01 0. -1.
         -5    1    1    2    0  503  0.20836584643E+01 -0.60167734762E+02  0.57891964328E+03  0.58206059934E+03  0.47000000000E+01 0.  1.
          5    1    1    2  503    0  0.52025338057E+02  0.54588341402E+02  0.24742604426E+03  0.25870496747E+03  0.47000000000E+01 0. -1.
         -5    1    3    3    0  502 -0.47738792963E+02 -0.14522257713E+02  0.34075217547E+02  0.60606095185E+02  0.47000000000E+01 0.  1.
<mgrwt>
<rscale>  0 0.14088675E+03</rscale>
<asrwt>0</asrwt>
<pdfrwt beam="1">  1        2 0.15885939E+00 0.15504691E+03</pdfrwt>
<pdfrwt beam="2">  1       -2 0.32684041E-02 0.15504691E+03</pdfrwt>
<totfact> 0.90930760E+03</totfact>
</mgrwt>
</event>
<event>
 7    1  0.1378876E-005  0.9537194E+02  0.7546771E-02  0.1308791E+00
         -2   -1    0    0    0  501 -0.00000000000E+00  0.00000000000E+00  0.33719624859E+02  0.33719624859E+02  0.00000000000E+00 0. -1.
          2   -1    0    0  501    0  0.00000000000E+00 -0.00000000000E+00 -0.20969903226E+03  0.20969903226E+03  0.00000000000E+00 0.  1.
         23    2    1    2    0    0  0.75118542559E+01 -0.24099636162E+02 -0.73046311803E+02  0.12013147063E+03  0.91970572202E+02 0.  0.
          5    1    1    2  502    0 -0.18723329956E+02 -0.16360959210E+02 -0.44320093130E+02  0.51035328215E+02  0.47000000000E+01 0. -1.
         -5    1    3    3    0  503  0.26179033399E+02 -0.48107928159E+02 -0.70294176675E+02  0.89236067909E+02  0.47000000000E+01 0.  1.
          5    1    3    3  503    0 -0.18667179143E+02  0.24008291998E+02 -0.27521351284E+01  0.30895402725E+02  0.47000000000E+01 0. -1.
         -5    1    1    2    0  502  0.11211475701E+02  0.40460595372E+02 -0.58613002470E+02  0.72251858272E+02  0.47000000000E+01 0.  1.
<mgrwt>
<rscale>  0 0.87591782E+02</rscale>
<asrwt>0</asrwt>
<pdfrwt beam="1">  1        2 0.32261390E-01 0.95371938E+02</pdfrwt>
<pdfrwt beam="2">  1       -2 0.51876345E-02 0.95371938E+02</pdfrwt>
<totfact> 0.26687842E+04</totfact>
</mgrwt>
</event>
<event>
 7    1  0.1378876E-005  0.1124520E+03  0.7546771E-02  0.1288228E+00
         -2   -1    0    0    0  501 -0.00000000000E+00  0.00000000000E+00  0.33038997444E+02  0.33038997444E+02  0.00000000000E+00 0.  1.
          2   -1    0    0  501    0  0.00000000000E+00 -0.00000000000E+00 -0.23193051589E+03  0.23193051589E+03  0.00000000000E+00 0. -1.
         23    2    1    2    0    0 -0.52446403466E+02 -0.94541230461E+01 -0.10909006984E+03  0.15667196036E+03  0.99022493138E+02 0.  0.
          5    1    3    3  502    0  0.28994098841E+02 -0.95061609490E+01 -0.30499567235E+02  0.43397447679E+02  0.47000000000E+01 0. -1.
         -5    1    3    3    0  502 -0.81440502307E+02  0.52037902923E-01 -0.78590502603E+02  0.11327451268E+03  0.47000000000E+01 0.  1.
          5    1    1    2  503    0  0.27646056798E+02  0.13496448099E+02 -0.29846902681E+02  0.43120600267E+02  0.47000000000E+01 0. -1.
         -5    1    1    2    0  503  0.24800346669E+02 -0.40423250530E+01 -0.59954545924E+02  0.65176952703E+02  0.47000000000E+01 0.  1.
<mgrwt>
<rscale>  0 0.96320960E+02</rscale>
<asrwt>0</asrwt>
<pdfrwt beam="1">  1        2 0.35681617E-01 0.11245203E+03</pdfrwt>
<pdfrwt beam="2">  1       -2 0.50829228E-02 0.11245203E+03</pdfrwt>
<totfact> 0.25168203E+04</totfact>
</mgrwt>
</event>
<event>
 7    1  0.1378876E-005  0.1191796E+03  0.7546771E-02  0.1261094E+00
         -2   -1    0    0    0  501 -0.00000000000E+00  0.00000000000E+00  0.27955324062E+02  0.27955324062E+02  0.00000000000E+00 0. -1.
          2   -1    0    0  501    0  0.00000000000E+00 -0.00000000000E+00 -0.41814806255E+03  0.41814806255E+03  0.00000000000E+00 0.  1.
         23    2    1    2    0    0 -0.59492516404E+02  0.50252344510E+02 -0.29454003774E+03  0.31773828467E+03  0.90217105256E+02 0.  0.
          5    1    1    2  502    0  0.24029845886E+02 -0.42236421433E+02 -0.58033309848E+02  0.75837351224E+02  0.47000000000E+01 0.  1.
         -5    1    1    2    0  502  0.35462670518E+02 -0.80159230769E+01 -0.37619390904E+02  0.52527750713E+02  0.47000000000E+01 0. -1.
          5    1    3    3  503    0  0.12389930685E+02  0.16137487586E+02 -0.11813300700E+02  0.23991101713E+02  0.47000000000E+01 0. -1.
         -5    1    3    3    0  503 -0.71882447089E+02  0.34114856924E+02 -0.28272673704E+03  0.29374718296E+03  0.47000000000E+01 0.  1.
<mgrwt>
<rscale>  0 0.10971750E+03</rscale>
<asrwt>0</asrwt>
<pdfrwt beam="1">  1        2 0.64330472E-01 0.11917963E+03</pdfrwt>
<pdfrwt beam="2">  1       -2 0.43008190E-02 0.11917963E+03</pdfrwt>
<totfact> 0.17407043E+04</totfact>
</mgrwt>
</event>
<event>
 7    1  0.1378876E-005  0.1811805E+03  0.7546771E-02  0.1194577E+00
         -1   -1    0    0    0  501 -0.00000000000E+00  0.00000000000E+00  0.69748216863E+02  0.69748216863E+02  0.00000000000E+00 0.  1.
          1   -1    0    0  501    0  0.00000000000E+00 -0.00000000000E+00 -0.49117677101E+03  0.49117677101E+03  0.00000000000E+00 0. -1.
         23    2    1    2    0    0 -0.14179990226E+02  0.30138525674E+02  0.56885518793E+01  0.96968731005E+02  0.90890991400E+02 0.  0.
          5    1    3    3  502    0 -0.34504151956E+01 -0.30576126024E+02 -0.10844875044E+02  0.32962192925E+02  0.47000000000E+01 0. -1.
         -5    1    3    3    0  502 -0.10729575031E+02  0.60714651698E+02  0.16533426923E+02  0.64006538080E+02  0.47000000000E+01 0.  1.
          5    1    1    2  503    0 -0.76275650365E+02 -0.31821236725E+02 -0.13744893888E+03  0.16045206993E+03  0.47000000000E+01 0. -1.
         -5    1    1    2    0  503  0.90455640592E+02  0.16827110509E+01 -0.28966816714E+03  0.30350418694E+03  0.47000000000E+01 0.  1.
<mgrwt>
<rscale>  0 0.15490108E+03</rscale>
<asrwt>0</asrwt>
<pdfrwt beam="1">  1        1 0.75565654E-01 0.18118053E+03</pdfrwt>
<pdfrwt beam="2">  1       -1 0.10730495E-01 0.18118053E+03</pdfrwt>
<totfact> 0.24915710E+03</totfact>
</mgrwt>
</event>
<event>
 7    1  0.1378876E-005  0.1026805E+03  0.7546771E-02  0.1315904E+00
         -2   -1    0    0    0  501 -0.00000000000E+00  0.00000000000E+00  0.23050940748E+02  0.23050940748E+02  0.00000000000E+00 0. -1.
          2   -1    0    0  501    0  0.00000000000E+00 -0.00000000000E+00 -0.28846374958E+03  0.28846374958E+03  0.00000000000E+00 0.  1.
         23    2    1    2    0    0  0.44790159721E+02 -0.77993627080E+01 -0.23042869759E+03  0.25227103646E+03  0.92066838197E+02 0.  0.
          5    1    3    3  502    0  0.27525740880E+02 -0.22678942037E+02 -0.21207106541E+02  0.41759216835E+02  0.47000000000E+01 0. -1.
         -5    1    3    3    0  502  0.17264418841E+02  0.14879579329E+02 -0.20922159105E+03  0.21051181963E+03  0.47000000000E+01 0.  1.
          5    1    1    2  503    0 -0.23859306719E+02  0.98515968646E+01 -0.18277139313E+02  0.31975995675E+02  0.47000000000E+01 0. -1.
         -5    1    1    2    0  503 -0.20930853002E+02 -0.20522341566E+01 -0.16706971922E+02  0.27267658191E+02  0.47000000000E+01 0. -1.
<mgrwt>
<rscale>  0 0.84820097E+02</rscale>
<asrwt>0</asrwt>
<pdfrwt beam="1">  1        2 0.44379034E-01 0.10268053E+03</pdfrwt>
<pdfrwt beam="2">  1       -2 0.35462989E-02 0.10268053E+03</pdfrwt>
<totfact> 0.33730493E+04</totfact>
</mgrwt>
</event>
<event>
 7    1  0.1378876E-005  0.1094288E+03  0.7546771E-02  0.1262761E+00
         -1   -1    0    0    0  501 -0.00000000000E+00  0.00000000000E+00  0.11219975897E+02  0.11219975897E+02  0.00000000000E+00 0.  1.
          1   -1    0    0  501    0  0.00000000000E+00 -0.00000000000E+00 -0.11667236759E+04  0.11667236759E+04  0.00000000000E+00 0. -1.
         23    2    1    2    0    0 -0.23571039376E+02  0.46581130630E+02 -0.77445888208E+03  0.78215166404E+03  0.96173124627E+02 0.  0.
          5    1    3    3  502    0 -0.50440861331E+02  0.57785457305E+02 -0.63329570594E+03  0.63794120476E+03  0.47000000000E+01 0. -1.
         -5    1    1    2    0  503 -0.21014118084E+02 -0.43486479093E+02 -0.99715566183E+02  0.11089612780E+03  0.47000000000E+01 0.  1.
          5    1    1    2  503    0  0.44585157460E+02 -0.30946515367E+01 -0.28132925174E+03  0.28489585995E+03  0.47000000000E+01 0. -1.
         -5    1    3    3    0  502  0.26869821955E+02 -0.11204326676E+02 -0.14116317615E+03  0.14421045929E+03  0.47000000000E+01 0.  1.
<mgrwt>
<rscale>  0 0.10882498E+03</rscale>
<asrwt>0</asrwt>
<pdfrwt beam="1">  1        1 0.17949593E+00 0.10942881E+03</pdfrwt>
<pdfrwt beam="2">  1       -1 0.17261504E-02 0.10942881E+03</pdfrwt>
<totfact> 0.98279014E+03</totfact>
</mgrwt>
</event>
<event>
 7    1  0.1378876E-005  0.1106226E+03  0.7546771E-02  0.1287409E+00
          2   -1    0    0  501    0  0.00000000000E+00  0.00000000000E+00  0.48701415166E+03  0.48701415166E+03  0.00000000000E+00 0. -1.
         -2   -1    0    0    0  501 -0.00000000000E+00 -0.00000000000E+00 -0.18211562100E+02  0.18211562100E+02  0.00000000000E+00 0.  1.
         23    2    1    2    0    0  0.24119487601E+02  0.53585105325E+02  0.37765689147E+03  0.39352519705E+03  0.93724275664E+02 0.  0.
          5    1    1    2  502    0 -0.31414734184E+01 -0.36102306625E+02  0.46277423396E+02  0.58965543456E+02  0.47000000000E+01 0. -1.
         -5    1    3    3    0  503 -0.16516937074E+02  0.65251441066E+02  0.21103816441E+03  0.22156208297E+03  0.47000000000E+01 0.  1.
          5    1    3    3  503    0  0.40636424676E+02 -0.11666335741E+02  0.16661872706E+03  0.17196311409E+03  0.47000000000E+01 0. -1.
         -5    1    1    2    0  502 -0.20978014183E+02 -0.17482798700E+02  0.44868274700E+02  0.52734973253E+02  0.47000000000E+01 0.  1.
<mgrwt>
<rscale>  0 0.96692520E+02</rscale>
<asrwt>0</asrwt>
<pdfrwt beam="1">  1        2 0.74925244E-01 0.11062257E+03</pdfrwt>
<pdfrwt beam="2">  1       -2 0.28017792E-02 0.11062257E+03</pdfrwt>
<totfact> 0.27561950E+04</totfact>
</mgrwt>
</event>
<event>
 7    1  0.1378876E-005  0.1188871E+03  0.7546771E-02  0.1257849E+00
         -1   -1    0    0    0  501 -0.00000000000E+00  0.00000000000E+00  0.60931073422E+02  0.60931073422E+02  0.00000000000E+00 0.  1.
          1   -1    0    0  501    0  0.00000000000E+00 -0.00000000000E+00 -0.24558827337E+03  0.24558827337E+03  0.00000000000E+00 0. -1.
         23    2    1    2    0    0 -0.50387008365E+02  0.69021516899E+02 -0.17839969234E+03  0.21438423173E+03  0.82651849242E+02 0.  0.
          5    1    1    2  502    0  0.29606496227E+02 -0.62441614067E+02 -0.82196180244E+01  0.69750640905E+02  0.47000000000E+01 0. -1.
         -5    1    1    2    0  502  0.20780512139E+02 -0.65799028317E+01  0.19621104098E+01  0.22384474157E+02  0.47000000000E+01 0.  1.
          5    1    3    3  503    0 -0.16688391563E+02  0.77678118962E+02 -0.95242346171E+02  0.12411924542E+03  0.47000000000E+01 0. -1.
         -5    1    3    3    0  503 -0.33698616803E+02 -0.86566020625E+01 -0.83157346164E+02  0.90264986317E+02  0.47000000000E+01 0.  1.
<mgrwt>
<rscale>  0 0.11148243E+03</rscale>
<asrwt>0</asrwt>
<pdfrwt beam="1">  1        1 0.37782811E-01 0.11888713E+03</pdfrwt>
<pdfrwt beam="2">  1       -1 0.93740113E-02 0.11888713E+03</pdfrwt>
<totfact> 0.71670608E+03</totfact>
</mgrwt>
</event>
<event>
 7    1  0.1378876E-005  0.9644697E+02  0.7546771E-02  0.1329666E+00
         -3   -1    0    0    0  501 -0.00000000000E+00  0.00000000000E+00  0.87567367684E+02  0.87567367684E+02  0.00000000000E+00 0.  1.
          3   -1    0    0  501    0  0.00000000000E+00 -0.00000000000E+00 -0.57745137889E+02  0.57745137889E+02  0.00000000000E+00 0. -1.
         23    2    1    2    0    0 -0.95846026419E+01 -0.27412979275E+02  0.26526134412E+02  0.10002826214E+03  0.91971089909E+02 0.  0.
          5    1    1    2  502    0 -0.98109105351E+01  0.21608106699E+02  0.38306092921E+01  0.24493423774E+02  0.47000000000E+01 0.  1.
         -5    1    1    2    0  502  0.19395513177E+02  0.58048725762E+01 -0.53451390936E+00  0.20790819660E+02  0.47000000000E+01 0. -1.
          5    1    3    3  503    0  0.32297739919E+02 -0.24122737688E+02 -0.12529363730E+02  0.42474997738E+02  0.47000000000E+01 0. -1.
         -5    1    3    3    0  503 -0.41882342561E+02 -0.32902415869E+01  0.39055498141E+02  0.57553264400E+02  0.47000000000E+01 0.  1.
<mgrwt>
<rscale>  0 0.79783822E+02</rscale>
<asrwt>0</asrwt>
<pdfrwt beam="1">  1        3 0.88838673E-02 0.96446967E+02</pdfrwt>
<pdfrwt beam="2">  1       -3 0.13471903E-01 0.96446967E+02</pdfrwt>
<totfact> 0.84158430E+03</totfact>
</mgrwt>
</event>
<event>
 7    1  0.1378876E-005  0.1250115E+03  0.7546771E-02  0.1252003E+00
         -1   -1    0    0    0  501 -0.00000000000E+00  0.00000000000E+00  0.90059265334E+03  0.90059265334E+03  0.00000000000E+00 0.  1.
          1   -1    0    0  501    0  0.00000000000E+00 -0.00000000000E+00 -0.12856673857E+02  0.12856673857E+02  0.00000000000E+00 0. -1.
         23    2    1    2    0    0  0.59067555068E+02  0.62899153486E+02  0.56976374164E+03  0.58331688355E+03  0.90457646347E+02 0.  0.
          5    1    3    3  502    0 -0.17558473781E+02  0.40970902101E+02  0.18439202077E+03  0.18976148752E+03  0.47000000000E+01 0. -1.
         -5    1    3    3    0  502  0.76626028850E+02  0.21928251385E+02  0.38537172087E+03  0.39355539604E+03  0.47000000000E+01 0.  1.
          5    1    1    2  503    0 -0.18727699668E+02 -0.32592658297E+02  0.14758935310E+03  0.15237360420E+03  0.47000000000E+01 0. -1.
         -5    1    1    2    0  503 -0.40339855400E+02 -0.30306495189E+02  0.17038288475E+03  0.17775883944E+03  0.47000000000E+01 0.  1.
<mgrwt>
<rscale>  0 0.11475870E+03</rscale>
<asrwt>0</asrwt>
<pdfrwt beam="1">  1        1 0.19779505E-02 0.12501146E+03</pdfrwt>
<pdfrwt beam="2">  1       -1 0.13855267E+00 0.12501146E+03</pdfrwt>
<totfact> 0.27373617E+03</totfact>
</mgrwt>
</event>
<event>
 7    1  0.1378876E-005  0.1038468E+03  0.7546771E-02  0.1305400E+00
         -1   -1    0    0    0  501 -0.00000000000E+00  0.00000000000E+00  0.38531935388E+02  0.38531935388E+02  0.00000000000E+00 0.  1.
          1   -1    0    0  501    0  0.00000000000E+00 -0.00000000000E+00 -0.18160305694E+03  0.18160305694E+03  0.00000000000E+00 0. -1.
         23    2    1    2    0    0  0.18903070762E+02 -0.50236897278E+02 -0.12241052076E+03  0.16052569863E+03  0.88899338559E+02 0.  0.
          5    1    3    3  502    0 -0.31033769605E+02 -0.42863573408E+02 -0.64337500980E+02  0.83437310680E+02  0.47000000000E+01 0. -1.
         -5    1    1    2    0  503 -0.10371928287E+02  0.24236471079E+02 -0.35936320617E+01  0.27018283035E+02  0.47000000000E+01 0. -1.
          5    1    1    2  503    0 -0.85311424749E+01  0.26000426199E+02 -0.17066968739E+02  0.32591010668E+02  0.47000000000E+01 0. -1.
         -5    1    3    3    0  502  0.49936840367E+02 -0.73733238701E+01 -0.58073019776E+02  0.77088387949E+02  0.47000000000E+01 0.  1.
<mgrwt>
<rscale>  0 0.88956079E+02</rscale>
<asrwt>0</asrwt>
<pdfrwt beam="1">  1        1 0.27938932E-01 0.10384683E+03</pdfrwt>
<pdfrwt beam="2">  1       -1 0.59279901E-02 0.10384683E+03</pdfrwt>
<totfact> 0.20395862E+04</totfact>
</mgrwt>
</event>
<event>
 6    1  0.1378876E-005  0.1431506E+03  0.7546771E-02  0.1258997E+00
          2   -1    0    0  501    0  0.00000000000E+00  0.00000000000E+00  0.36323296161E+03  0.36323296161E+03  0.00000000000E+00 0. -1.
         -2   -1    0    0    0  501 -0.00000000000E+00 -0.00000000000E+00 -0.26839919758E+02  0.26839919758E+02  0.00000000000E+00 0.  1.
          5    1    1    2  502    0  0.23613229126E+02 -0.11068752703E+02  0.38413631480E+02  0.46666893614E+02  0.47000000000E+01 0.  1.
         -5    1    1    2    0  503 -0.18271631204E+02  0.17886190839E+02 -0.66766648757E+01  0.26840942298E+02  0.47000000000E+01 0.  1.
          5    1    1    2  503    0 -0.29140199410E+02 -0.44213815996E+01  0.28105566811E+03  0.28263594678E+03  0.47000000000E+01 0. -1.
         -5    1    1    2    0  502  0.23798601489E+02 -0.23960565363E+01  0.23600407138E+02  0.33929098674E+02  0.47000000000E+01 0.  1.
<mgrwt>
<rscale>  0 0.11085369E+03</rscale>
<asrwt>0</asrwt>
<pdfrwt beam="1">  1        2 0.55881991E-01 0.14315065E+03</pdfrwt>
<pdfrwt beam="2">  1       -2 0.41292187E-02 0.14315065E+03</pdfrwt>
<totfact> 0.21845725E+04</totfact>
</mgrwt>
</event>
<event>
 7    1  0.1378876E-005  0.1550476E+03  0.7546771E-02  0.1203620E+00
         -2   -1    0    0    0  501 -0.00000000000E+00  0.00000000000E+00  0.38994240155E+02  0.38994240155E+02  0.00000000000E+00 0.  1.
          2   -1    0    0  501    0  0.00000000000E+00 -0.00000000000E+00 -0.51560579795E+03  0.51560579795E+03  0.00000000000E+00 0. -1.
         23    2    1    2    0    0  0.93043313077E+02  0.79530844550E+02 -0.23199334795E+03  0.27903526639E+03  0.95171177641E+02 0.  0.
          5    1    1    2  502    0 -0.10993560255E+02 -0.21794262140E+02 -0.32941571330E+02  0.41268454672E+02  0.47000000000E+01 0. -1.
         -5    1    1    2    0  502 -0.82049752822E+02 -0.57736582410E+02 -0.21167663851E+03  0.23429631704E+03  0.47000000000E+01 0.  1.
          5    1    3    3  503    0 -0.34925821475E+01  0.24218844384E+02 -0.11439963739E+03  0.11708167059E+03  0.47000000000E+01 0. -1.
         -5    1    3    3    0  503  0.96535895225E+02  0.55312000166E+02 -0.11759371056E+03  0.16195359580E+03  0.47000000000E+01 0.  1.
<mgrwt>
<rscale>  0 0.14746702E+03</rscale>
<asrwt>0</asrwt>
<pdfrwt beam="1">  1        2 0.79323962E-01 0.15504763E+03</pdfrwt>
<pdfrwt beam="2">  1       -2 0.59991144E-02 0.15504763E+03</pdfrwt>
<totfact> 0.85738485E+03</totfact>
</mgrwt>
</event>
<event>
 7    1  0.1378876E-005  0.1931314E+03  0.7546771E-02  0.1157960E+00
          2   -1    0    0  501    0  0.00000000000E+00  0.00000000000E+00  0.70353215172E+03  0.70353215172E+03  0.00000000000E+00 0. -1.
         -2   -1    0    0    0  501 -0.00000000000E+00 -0.00000000000E+00 -0.57197021007E+02  0.57197021007E+02  0.00000000000E+00 0.  1.
         23    2    1    2    0    0  0.11222569669E+03  0.11219907397E+03  0.18334225674E+03  0.25906980160E+03  0.91211511320E+02 0.  0.
          5    1    1    2  502    0 -0.70189931193E+02 -0.57556984309E+02  0.39273158299E+03  0.40311241504E+03  0.47000000000E+01 0. -1.
         -5    1    3    3    0  503  0.12468204869E+03  0.86841427329E+02  0.16804049389E+03  0.22659820025E+03  0.47000000000E+01 0.  1.
          5    1    3    3  503    0 -0.12456352001E+02  0.25357646643E+02  0.15301762849E+02  0.32471601357E+02  0.47000000000E+01 0. -1.
         -5    1    1    2    0  502 -0.42035765495E+02 -0.54642089662E+02  0.70261290987E+02  0.98546956090E+02  0.47000000000E+01 0.  1.
<mgrwt>
<rscale>  0 0.19055691E+03</rscale>
<asrwt>0</asrwt>
<pdfrwt beam="1">  1        2 0.10823571E+00 0.19313136E+03</pdfrwt>
<pdfrwt beam="2">  1       -2 0.87995422E-02 0.19313136E+03</pdfrwt>
<totfact> 0.33506582E+03</totfact>
</mgrwt>
</event>
<event>
 7    1  0.1378876E-005  0.2022769E+03  0.7546771E-02  0.1169636E+00
         -2   -1    0    0    0  501 -0.00000000000E+00  0.00000000000E+00  0.69892329552E+02  0.69892329552E+02  0.00000000000E+00 0.  1.
          2   -1    0    0  501    0  0.00000000000E+00 -0.00000000000E+00 -0.49810746962E+03  0.49810746962E+03  0.00000000000E+00 0. -1.
         23    2    1    2    0    0  0.64156816973E+02  0.44249461544E+02 -0.36231573522E+02  0.12690221777E+03  0.93366663987E+02 0.  0.
          5    1    3    3  502    0  0.93117265605E+01  0.59602182386E+02 -0.34663698562E+02  0.69733710605E+02  0.47000000000E+01 0. -1.
         -5    1    1    2    0  503  0.30022206213E+02 -0.89435245928E+02 -0.14698983743E+03  0.17472291890E+03  0.47000000000E+01 0.  1.
          5    1    1    2  503    0 -0.94179023186E+02  0.45185784384E+02 -0.24499372912E+03  0.26637466251E+03  0.47000000000E+01 0. -1.
         -5    1    3    3    0  502  0.54845090412E+02 -0.15352720842E+02 -0.15678749605E+01  0.57168507165E+02  0.47000000000E+01 0.  1.
<mgrwt>
<rscale>  0 0.17811935E+03</rscale>
<asrwt>0</asrwt>
<pdfrwt beam="1">  1        2 0.76631919E-01 0.20227694E+03</pdfrwt>
<pdfrwt beam="2">  1       -2 0.10752666E-01 0.20227694E+03</pdfrwt>
<totfact> 0.36400294E+03</totfact>
</mgrwt>
</event>
<event>
 7    1  0.1378876E-005  0.1231040E+03  0.7546771E-02  0.1255872E+00
         -2   -1    0    0    0  501 -0.00000000000E+00  0.00000000000E+00  0.15464719571E+02  0.15464719571E+02  0.00000000000E+00 0.  1.
          2   -1    0    0  501    0  0.00000000000E+00 -0.00000000000E+00 -0.72807559812E+03  0.72807559812E+03  0.00000000000E+00 0. -1.
         23    2    1    2    0    0  0.81702902266E+02  0.15889871580E+02 -0.35598553918E+03  0.37667002144E+03  0.90701426062E+02 0.  0.
          5    1    1    2  502    0 -0.52159560726E+02 -0.87612510224E+01 -0.18321738323E+03  0.19075659573E+03  0.47000000000E+01 0. -1.
         -5    1    1    2    0  502 -0.29543341540E+02 -0.71286205578E+01 -0.17340795614E+03  0.17611370053E+03  0.47000000000E+01 0.  1.
          5    1    3    3  503    0  0.70677343018E+02 -0.89833694470E+01 -0.33351255101E+03  0.34106993333E+03  0.47000000000E+01 0. -1.
         -5    1    3    3    0  503  0.11025559247E+02  0.24873241027E+02 -0.22472988167E+02  0.35600088104E+02  0.47000000000E+01 0.  1.
<mgrwt>
<rscale>  0 0.11257642E+03</rscale>
<asrwt>0</asrwt>
<pdfrwt beam="1">  1        2 0.11201160E+00 0.12310402E+03</pdfrwt>
<pdfrwt beam="2">  1       -2 0.23791883E-02 0.12310402E+03</pdfrwt>
<totfact> 0.22398691E+04</totfact>
</mgrwt>
</event>
<event>
 7    1  0.1378876E-005  0.1445130E+03  0.7546771E-02  0.1214425E+00
         -2   -1    0    0    0  501 -0.00000000000E+00  0.00000000000E+00  0.53779058539E+02  0.53779058539E+02  0.00000000000E+00 0.  1.
          2   -1    0    0  501    0  0.00000000000E+00 -0.00000000000E+00 -0.33620064265E+03  0.33620064265E+03  0.00000000000E+00 0. -1.
         23    2    1    2    0    0 -0.89116401370E+02  0.57111647943E+02 -0.15561103153E+03  0.21236478168E+03  0.98389704943E+02 0.  0.
          5    1    1    2  502    0  0.40701134675E+02  0.13241874367E+01 -0.17758571752E+02  0.44674295818E+02  0.47000000000E+01 0. -1.
         -5    1    1    2    0  502  0.48415266696E+02 -0.58435835379E+02 -0.10905198083E+03  0.13294062370E+03  0.47000000000E+01 0.  1.
          5    1    3    3  503    0 -0.36938504737E+02  0.59082982482E+02 -0.14193173121E+03  0.15818330593E+03  0.47000000000E+01 0. -1.
         -5    1    3    3    0  503 -0.52177896634E+02 -0.19713345393E+01 -0.13679300325E+02  0.54181475749E+02  0.47000000000E+01 0.  1.
<mgrwt>
<rscale>  0 0.13918837E+03</rscale>
<asrwt>0</asrwt>
<pdfrwt beam="1">  1        2 0.51723176E-01 0.14451300E+03</pdfrwt>
<pdfrwt beam="2">  1       -2 0.82737013E-02 0.14451300E+03</pdfrwt>
<totfact> 0.82680439E+03</totfact>
</mgrwt>
</event>
<event>
 7    1  0.1378876E-005  0.1034817E+03  0.7546771E-02  0.1278777E+00
          2   -1    0    0  501    0  0.00000000000E+00  0.00000000000E+00  0.20126149177E+03  0.20126149177E+03  0.00000000000E+00 0. -1.
         -2   -1    0    0    0  501 -0.00000000000E+00 -0.00000000000E+00 -0.47915177532E+02  0.47915177532E+02  0.00000000000E+00 0.  1.
         23    2    1    2    0    0 -0.98148449203E+01 -0.38792634919E+02  0.78613198079E+02  0.12995572709E+03  0.95431946359E+02 0.  0.
          5    1    3    3  502    0 -0.19248835262E+02 -0.67769960799E+02  0.65967902884E+02  0.96628874859E+02  0.47000000000E+01 0. -1.
         -5    1    1    2    0  503 -0.45195573278E+01  0.53786413167E+02  0.80636191020E+02  0.97147773737E+02  0.47000000000E+01 0.  1.
          5    1    1    2  503    0  0.14334402248E+02 -0.14993778247E+02 -0.59030748583E+01  0.22073168479E+02  0.47000000000E+01 0. -1.
         -5    1    3    3    0  502  0.94339903422E+01  0.28977325879E+02  0.12645295195E+02  0.33326852228E+02  0.47000000000E+01 0.  1.
<mgrwt>
<rscale>  0 0.10072565E+03</rscale>
<asrwt>0</asrwt>
<pdfrwt beam="1">  1        2 0.30963306E-01 0.10348167E+03</pdfrwt>
<pdfrwt beam="2">  1       -2 0.73715659E-02 0.10348167E+03</pdfrwt>
<totfact> 0.16564236E+04</totfact>
</mgrwt>
</event>
<event>
 7    1  0.1378876E-005  0.1060738E+03  0.7546771E-02  0.1296334E+00
         -4   -1    0    0    0  501 -0.00000000000E+00  0.00000000000E+00  0.28645266070E+03  0.28645266070E+03  0.00000000000E+00 0.  1.
          4   -1    0    0  501    0  0.00000000000E+00 -0.00000000000E+00 -0.30792421440E+02  0.30792421440E+02  0.00000000000E+00 0. -1.
         23    2    1    2    0    0 -0.25616171763E+02  0.51971004985E+02  0.22352248365E+03  0.24741451752E+03  0.88850825368E+02 0.  0.
          5    1    1    2  502    0  0.12710629638E+02 -0.32916792336E+02  0.29428135901E+02  0.46186367102E+02  0.47000000000E+01 0. -1.
         -5    1    3    3    0  503 -0.31051023186E+02 -0.17555100856E+02  0.83269169056E+02  0.90709382768E+02  0.47000000000E+01 0.  1.
          5    1    3    3  503    0  0.54348514231E+01  0.69526105841E+02  0.14025331459E+03  0.15670513475E+03  0.47000000000E+01 0. -1.
         -5    1    1    2    0  502  0.12905542125E+02 -0.19054212649E+02  0.27096197099E+01  0.23644197516E+02  0.47000000000E+01 0. -1.
<mgrwt>
<rscale>  0 0.92746269E+02</rscale>
<asrwt>0</asrwt>
<pdfrwt beam="1">  1        4 0.47372958E-02 0.10607376E+03</pdfrwt>
<pdfrwt beam="2">  1       -4 0.44069638E-01 0.10607376E+03</pdfrwt>
<totfact> 0.20258713E+03</totfact>
</mgrwt>
</event>
<event>
 7    1  0.1378876E-005  0.1081683E+03  0.7546771E-02  0.1289286E+00
          4   -1    0    0  501    0  0.00000000000E+00  0.00000000000E+00  0.13363576280E+02  0.13363576280E+02  0.00000000000E+00 0. -1.
         -4   -1    0    0    0  501 -0.00000000000E+00 -0.00000000000E+00 -0.70905761543E+03  0.70905761543E+03  0.00000000000E+00 0.  1.
         23    2    1    2    0    0  0.45213050554E+02 -0.33127294494E+02 -0.25920859405E+03  0.28087271848E+03  0.92513518895E+02 0.  0.
          5    1    3    3  502    0  0.62088815562E+02 -0.48525425842E+02 -0.15336199646E+03  0.17248689785E+03  0.47000000000E+01 0. -1.
         -5    1    3    3    0  502 -0.16875765008E+02  0.15398131348E+02 -0.10584659759E+03  0.10838582063E+03  0.47000000000E+01 0.  1.
          5    1    1    2  503    0 -0.41214717586E+02  0.10037557651E+02 -0.26828132602E+03  0.27165486449E+03  0.47000000000E+01 0.  1.
         -5    1    1    2    0  503 -0.39983329678E+01  0.23089736844E+02 -0.16820411908E+03  0.16989360873E+03  0.47000000000E+01 0. -1.
<mgrwt>
<rscale>  0 0.95844085E+02</rscale>
<asrwt>0</asrwt>
<pdfrwt beam="1">  1        4 0.20559347E-02 0.10816834E+03</pdfrwt>
<pdfrwt beam="2">  1       -4 0.10908579E+00 0.10816834E+03</pdfrwt>
<totfact> 0.10694111E+03</totfact>
</mgrwt>
</event>
<event>
 7    1  0.1378876E-005  0.9796049E+02  0.7546771E-02  0.1310065E+00
         -2   -1    0    0    0  501 -0.00000000000E+00  0.00000000000E+00  0.17778122157E+02  0.17778122157E+02  0.00000000000E+00 0.  1.
          2   -1    0    0  501    0  0.00000000000E+00 -0.00000000000E+00 -0.36038947072E+03  0.36038947072E+03  0.00000000000E+00 0. -1.
         23    2    1    2    0    0  0.38704413769E+02  0.68198325830E+01 -0.19048514800E+03  0.21419815299E+03  0.89731351121E+02 0.  0.
          5    1    3    3  502    0 -0.86522571274E+01  0.27413392690E+02 -0.13559414888E+03  0.13868748632E+03  0.47000000000E+01 0. -1.
         -5    1    3    3    0  502  0.47356670897E+02 -0.20593560107E+02 -0.54890999128E+02  0.75510666674E+02  0.47000000000E+01 0.  1.
          5    1    1    2  503    0 -0.73996197176E+01 -0.21307244597E+02 -0.36038103629E+02  0.42773683000E+02  0.47000000000E+01 0.  1.
         -5    1    1    2    0  503 -0.31304794052E+02  0.14487412014E+02 -0.11608809694E+03  0.12119575689E+03  0.47000000000E+01 0. -1.
<mgrwt>
<rscale>  0 0.87086198E+02</rscale>
<asrwt>0</asrwt>
<pdfrwt beam="1">  1        2 0.55444535E-01 0.97960488E+02</pdfrwt>
<pdfrwt beam="2">  1       -2 0.27350957E-02 0.97960488E+02</pdfrwt>
<totfact> 0.38803378E+04</totfact>
</mgrwt>
</event>
<event>
 7    1  0.1378876E-005  0.1097503E+03  0.7546771E-02  0.1286249E+00
          2   -1    0    0  501    0  0.00000000000E+00  0.00000000000E+00  0.11649749051E+02  0.11649749051E+02  0.00000000000E+00 0.  1.
         -2   -1    0    0    0  501 -0.00000000000E+00 -0.00000000000E+00 -0.70135827447E+03  0.70135827447E+03  0.00000000000E+00 0. -1.
         23    2    1    2    0    0 -0.49481152586E+02 -0.32813588691E+02 -0.49116379140E+03  0.50327627093E+03  0.92303948112E+02 0.  0.
          5    1    3    3  502    0 -0.29472395857E+02 -0.57705037535E+02 -0.42174215930E+03  0.42671657152E+03  0.47000000000E+01 0. -1.
         -5    1    1    2    0  503  0.35914649775E+02  0.74054128338E+01 -0.89165650944E+02  0.96526190829E+02  0.47000000000E+01 0.  1.
          5    1    1    2  503    0  0.13566502811E+02  0.25408175857E+02 -0.10937908308E+03  0.11320556176E+03  0.47000000000E+01 0. -1.
         -5    1    3    3    0  502 -0.20008756730E+02  0.24891448844E+02 -0.69421632099E+02  0.76559699416E+02  0.47000000000E+01 0.  1.
<mgrwt>
<rscale>  0 0.97221645E+02</rscale>
<asrwt>0</asrwt>
<pdfrwt beam="1">  1        2 0.17922689E-02 0.10975033E+03</pdfrwt>
<pdfrwt beam="2">  1       -2 0.10790128E+00 0.10975033E+03</pdfrwt>
<totfact> 0.42423529E+03</totfact>
</mgrwt>
</event>
<event>
 7    1  0.1378876E-005  0.2464528E+03  0.7546771E-02  0.1135090E+00
          1   -1    0    0  501    0  0.00000000000E+00  0.00000000000E+00  0.10022769375E+04  0.10022769375E+04  0.00000000000E+00 0. -1.
         -1   -1    0    0    0  501 -0.00000000000E+00 -0.00000000000E+00 -0.39703754824E+02  0.39703754824E+02  0.00000000000E+00 0.  1.
         23    2    1    2    0    0 -0.54473325827E+02 -0.10931003402E+03  0.39425332100E+03  0.42252411860E+03  0.90415280325E+02 0.  0.
          5    1    1    2  502    0  0.98717553216E+02 -0.20315049148E+02  0.32372376692E+03  0.33908262091E+03  0.47000000000E+01 0. -1.
         -5    1    1    2    0  502 -0.44244227389E+02  0.12962508317E+03  0.24459609476E+03  0.28037395281E+03  0.47000000000E+01 0.  1.
          5    1    3    3  503    0 -0.34859890958E+02 -0.29884535392E+02  0.47548058197E+02  0.66266170038E+02  0.47000000000E+01 0. -1.
         -5    1    3    3    0  503 -0.19613434870E+02 -0.79425498633E+02  0.34670526280E+03  0.35625794857E+03  0.47000000000E+01 0.  1.
<mgrwt>
<rscale>  0 0.21838889E+03</rscale>
<asrwt>0</asrwt>
<pdfrwt beam="1">  1        1 0.15419643E+00 0.24645280E+03</pdfrwt>
<pdfrwt beam="2">  1       -1 0.61082707E-02 0.24645280E+03</pdfrwt>
<totfact> 0.20686223E+03</totfact>
</mgrwt>
</event>
<event>
 7    1  0.1378876E-005  0.8878089E+02  0.7546771E-02  0.1319259E+00
         -3   -1    0    0    0  501 -0.00000000000E+00  0.00000000000E+00  0.42229301135E+02  0.42229301135E+02  0.00000000000E+00 0.  1.
          3   -1    0    0  501    0  0.00000000000E+00 -0.00000000000E+00 -0.14923730582E+03  0.14923730582E+03  0.00000000000E+00 0. -1.
         23    2    1    2    0    0  0.76131486248E+01 -0.23017902499E+01 -0.53682384712E+02  0.10374894835E+03  0.88423908451E+02 0.  0.
          5    1    1    2  502    0  0.16155766736E+02 -0.19547055117E+02 -0.70166458092E+00  0.25800746031E+02  0.47000000000E+01 0.  1.
         -5    1    3    3    0  503  0.37569174872E+02  0.17967234913E+02 -0.39766498394E+01  0.42097127871E+02  0.47000000000E+01 0.  1.
          5    1    3    3  503    0 -0.29956026248E+02 -0.20269025163E+02 -0.49705734872E+02  0.61651820482E+02  0.47000000000E+01 0. -1.
         -5    1    1    2    0  502 -0.23768915361E+02  0.21848845367E+02 -0.52623955397E+02  0.61916912575E+02  0.47000000000E+01 0. -1.
<mgrwt>
<rscale>  0 0.83553741E+02</rscale>
<asrwt>0</asrwt>
<pdfrwt beam="1">  1        3 0.22959586E-01 0.88780887E+02</pdfrwt>
<pdfrwt beam="2">  1       -3 0.64968155E-02 0.88780887E+02</pdfrwt>
<totfact> 0.54490237E+03</totfact>
</mgrwt>
</event>
<event>
 7    1  0.1378876E-005  0.1049282E+03  0.7546771E-02  0.1307607E+00
         -2   -1    0    0    0  501 -0.00000000000E+00  0.00000000000E+00  0.11885856828E+03  0.11885856828E+03  0.00000000000E+00 0.  1.
          2   -1    0    0  501    0  0.00000000000E+00 -0.00000000000E+00 -0.56249503185E+02  0.56249503185E+02  0.00000000000E+00 0. -1.
         23    2    1    2    0    0 -0.24636505756E+02 -0.43479577694E+02  0.64218695908E+02  0.12302022055E+03  0.92263224899E+02 0.  0.
          5    1    3    3  502    0 -0.24966810925E+02 -0.22554587232E+00 -0.17216594314E+02  0.30690285734E+02  0.47000000000E+01 0. -1.
         -5    1    1    2    0  503  0.12042227139E+02  0.19422291449E+02  0.47400064695E+01  0.23807526141E+02  0.47000000000E+01 0.  1.
          5    1    1    2  503    0  0.12594278617E+02  0.24057286245E+02 -0.63496372830E+01  0.28280324768E+02  0.47000000000E+01 0.  1.
         -5    1    3    3    0  502  0.33030516835E+00 -0.43254031822E+02  0.81435290222E+02  0.92329934820E+02  0.47000000000E+01 0.  1.
<mgrwt>
<rscale>  0 0.88064629E+02</rscale>
<asrwt>0</asrwt>
<pdfrwt beam="1">  1        2 0.86537698E-02 0.10492823E+03</pdfrwt>
<pdfrwt beam="2">  1       -2 0.18285933E-01 0.10492823E+03</pdfrwt>
<totfact> 0.17029233E+04</totfact>
</mgrwt>
</event>
<event>
 7    1  0.1378876E-005  0.1438703E+03  0.7546771E-02  0.1218273E+00
         -1   -1    0    0    0  501 -0.00000000000E+00  0.00000000000E+00  0.42791831153E+03  0.42791831153E+03  0.00000000000E+00 0.  1.
          1   -1    0    0  501    0  0.00000000000E+00 -0.00000000000E+00 -0.49217165162E+02  0.49217165162E+02  0.00000000000E+00 0. -1.
         23    2    1    2    0    0 -0.11076358012E+03  0.57274041708E+01  0.31097345733E+03  0.34264143900E+03  0.91636732355E+02 0.  0.
          5    1    1    2  502    0  0.47489105121E+02 -0.18320170296E+02  0.24433046992E+02  0.56656045839E+02  0.47000000000E+01 0. -1.
         -5    1    1    2    0  502  0.63274475004E+02  0.12592766125E+02  0.43294642049E+02  0.77837991854E+02  0.47000000000E+01 0.  1.
          5    1    3    3  503    0 -0.32123700478E+02  0.20279855744E+02  0.25147768116E+02  0.45800708757E+02  0.47000000000E+01 0. -1.
         -5    1    3    3    0  503 -0.78639879646E+02 -0.14552451573E+02  0.28582568922E+03  0.29684073025E+03  0.47000000000E+01 0.  1.
<mgrwt>
<rscale>  0 0.13638812E+03</rscale>
<asrwt>0</asrwt>
<pdfrwt beam="1">  1        1 0.75718718E-02 0.14387030E+03</pdfrwt>
<pdfrwt beam="2">  1       -1 0.65833584E-01 0.14387030E+03</pdfrwt>
<totfact> 0.22095230E+03</totfact>
</mgrwt>
</event>
<event>
 7    1  0.1378876E-005  0.1269899E+03  0.7546771E-02  0.1245056E+00
          2   -1    0    0  501    0  0.00000000000E+00  0.00000000000E+00  0.38371312594E+03  0.38371312594E+03  0.00000000000E+00 0. -1.
         -2   -1    0    0    0  501 -0.00000000000E+00 -0.00000000000E+00 -0.48045548504E+02  0.48045548504E+02  0.00000000000E+00 0.  1.
         23    2    1    2    0    0 -0.21940342971E+02 -0.87493013588E+02  0.30391251682E+03  0.32937705852E+03  0.89386927045E+02 0.  0.
          5    1    3    3  502    0 -0.49758998636E+02 -0.57831401098E+02  0.25158111906E+03  0.26293645309E+03  0.47000000000E+01 0. -1.
         -5    1    3    3    0  502  0.27818655665E+02 -0.29661612491E+02  0.52331397760E+02  0.66440605431E+02  0.47000000000E+01 0.  1.
          5    1    1    2  503    0 -0.31944464316E+01  0.55330153928E+02  0.23947887001E+02  0.60557590057E+02  0.47000000000E+01 0. -1.
         -5    1    1    2    0  503  0.25134789402E+02  0.32162859660E+02  0.78071736205E+01  0.41824025867E+02  0.47000000000E+01 0.  1.
<mgrwt>
<rscale>  0 0.11882047E+03</rscale>
<asrwt>0</asrwt>
<pdfrwt beam="1">  1        2 0.59032787E-01 0.12698988E+03</pdfrwt>
<pdfrwt beam="2">  1       -2 0.73916231E-02 0.12698988E+03</pdfrwt>
<totfact> 0.84725813E+03</totfact>
</mgrwt>
</event>
<event>
 7    1  0.1378876E-005  0.1193663E+03  0.7546771E-02  0.1262451E+00
          2   -1    0    0  501    0  0.00000000000E+00  0.00000000000E+00  0.58758893758E+03  0.58758893758E+03  0.00000000000E+00 0. -1.
         -2   -1    0    0    0  501 -0.00000000000E+00 -0.00000000000E+00 -0.17596097106E+02  0.17596097106E+02  0.00000000000E+00 0.  1.
         23    2    1    2    0    0 -0.46751180435E+02 -0.59555480589E+02  0.30581773852E+03  0.32828769628E+03  0.92281060855E+02 0.  0.
          5    1    3    3  502    0 -0.68565497404E+01 -0.34984046982E+02  0.26037808632E+03  0.26284926033E+03  0.47000000000E+01 0. -1.
         -5    1    3    3    0  502 -0.39894630695E+02 -0.24571433607E+02  0.45439652203E+02  0.65438435954E+02  0.47000000000E+01 0.  1.
          5    1    1    2  503    0  0.33455124878E+02  0.16375388384E+02  0.11950316952E+03  0.12526171103E+03  0.47000000000E+01 0. -1.
         -5    1    1    2    0  503  0.13296055557E+02  0.43180092205E+02  0.14467193243E+03  0.15163562737E+03  0.47000000000E+01 0.  1.
<mgrwt>
<rscale>  0 0.10899053E+03</rscale>
<asrwt>0</asrwt>
<pdfrwt beam="1">  1        2 0.90398283E-01 0.11936634E+03</pdfrwt>
<pdfrwt beam="2">  1       -2 0.27070923E-02 0.11936634E+03</pdfrwt>
<totfact> 0.23727249E+04</totfact>
</mgrwt>
</event>
<event>
 7    1  0.1378876E-005  0.1280449E+03  0.7546771E-02  0.1248185E+00
          2   -1    0    0  501    0  0.00000000000E+00  0.00000000000E+00  0.27982306555E+02  0.27982306555E+02  0.00000000000E+00 0. -1.
         -2   -1    0    0    0  501 -0.00000000000E+00 -0.00000000000E+00 -0.48903266860E+03  0.48903266860E+03  0.00000000000E+00 0.  1.
         23    2    1    2    0    0 -0.80548118281E+02 -0.54846294272E+01 -0.36082047186E+03  0.38286668499E+03  0.99385134926E+02 0.  0.
          5    1    3    3  502    0 -0.28080862208E+02  0.46177552213E+02 -0.15021262081E+03  0.15970855519E+03  0.47000000000E+01 0. -1.
         -5    1    3    3    0  502 -0.52467256073E+02 -0.51662181641E+02 -0.21060785105E+03  0.22315812980E+03  0.47000000000E+01 0.  1.
          5    1    1    2  503    0  0.48462503593E+02  0.55169322814E+01 -0.85467436411E+02  0.98518137838E+02  0.47000000000E+01 0. -1.
         -5    1    1    2    0  503  0.32085614688E+02 -0.32302854168E-01 -0.14762453774E+02  0.35630152327E+02  0.47000000000E+01 0.  1.
<mgrwt>
<rscale>  0 0.11696763E+03</rscale>
<asrwt>0</asrwt>
<pdfrwt beam="1">  1        2 0.43049702E-02 0.12804486E+03</pdfrwt>
<pdfrwt beam="2">  1       -2 0.75235795E-01 0.12804486E+03</pdfrwt>
<totfact> 0.29778524E+03</totfact>
</mgrwt>
</event>
<event>
 7    1  0.1378876E-005  0.1168480E+03  0.7546771E-02  0.1257546E+00
          1   -1    0    0  501    0  0.00000000000E+00  0.00000000000E+00  0.22940975228E+03  0.22940975228E+03  0.00000000000E+00 0. -1.
         -1   -1    0    0    0  501 -0.00000000000E+00 -0.00000000000E+00 -0.53653277722E+02  0.53653277722E+02  0.00000000000E+00 0.  1.
         23    2    1    2    0    0  0.11122772975E+02 -0.30383041935E+02  0.43763429506E+02  0.10678026634E+03  0.91869158058E+02 0.  0.
          5    1    3    3  502    0 -0.14842313072E+02 -0.15783270048E+02  0.65797164061E+02  0.69431712274E+02  0.47000000000E+01 0. -1.
         -5    1    1    2    0  503 -0.22637987667E+02  0.70563417870E+02  0.92172537672E+02  0.11836190742E+03  0.47000000000E+01 0.  1.
          5    1    1    2  503    0  0.11515214692E+02 -0.40180375934E+02  0.39820507384E+02  0.57920856243E+02  0.47000000000E+01 0. -1.
         -5    1    3    3    0  502  0.25965086047E+02 -0.14599771887E+02 -0.22033734556E+02  0.37348554069E+02  0.47000000000E+01 0.  1.
<mgrwt>
<rscale>  0 0.11164924E+03</rscale>
<asrwt>0</asrwt>
<pdfrwt beam="1">  1        1 0.35293808E-01 0.11684797E+03</pdfrwt>
<pdfrwt beam="2">  1       -1 0.82543505E-02 0.11684797E+03</pdfrwt>
<totfact> 0.94332327E+03</totfact>
</mgrwt>
</event>
<event>
 7    1  0.1378876E-005  0.1149588E+03  0.7546771E-02  0.1259063E+00
          2   -1    0    0  501    0  0.00000000000E+00  0.00000000000E+00  0.51340656163E+03  0.51340656163E+03  0.00000000000E+00 0. -1.
         -2   -1    0    0    0  501 -0.00000000000E+00 -0.00000000000E+00 -0.13715297306E+03  0.13715297306E+03  0.00000000000E+00 0.  1.
         23    2    1    2    0    0  0.11728654570E+02  0.19074094414E+02 -0.11159045917E+03  0.14935364162E+03  0.96709344292E+02 0.  0.
          5    1    1    2  502    0 -0.16933744462E+02 -0.64216346455E+02  0.34028479938E+03  0.34673668041E+03  0.47000000000E+01 0. -1.
         -5    1    1    2    0  502  0.52050898921E+01  0.45142252041E+02  0.14755924837E+03  0.15446921266E+03  0.47000000000E+01 0.  1.
          5    1    3    3  503    0  0.48349847627E+02  0.68701798338E+01 -0.26412417759E+02  0.55719053728E+02  0.47000000000E+01 0. -1.
         -5    1    3    3    0  503 -0.36621193058E+02  0.12203914580E+02 -0.85178041409E+02  0.93634587895E+02  0.47000000000E+01 0.  1.
<mgrwt>
<rscale>  0 0.11081760E+03</rscale>
<asrwt>0</asrwt>
<pdfrwt beam="1">  1        2 0.78985624E-01 0.11495883E+03</pdfrwt>
<pdfrwt beam="2">  1       -2 0.21100458E-01 0.11495883E+03</pdfrwt>
<totfact> 0.11460151E+03</totfact>
</mgrwt>
</event>
<event>
 7    1  0.1378876E-005  0.1148105E+03  0.7546771E-02  0.1257577E+00
          1   -1    0    0  501    0  0.00000000000E+00  0.00000000000E+00  0.39559619031E+03  0.39559619031E+03  0.00000000000E+00 0. -1.
         -1   -1    0    0    0  501 -0.00000000000E+00 -0.00000000000E+00 -0.30895313049E+02  0.30895313049E+02  0.00000000000E+00 0.  1.
         23    2    1    2    0    0 -0.43599871753E+02 -0.11415997771E+01  0.13376673468E+03  0.16859225348E+03  0.92884641136E+02 0.  0.
          5    1    1    2  502    0  0.59541382062E+02  0.21517954554E+02  0.22075636713E+03  0.22970342221E+03  0.47000000000E+01 0. -1.
         -5    1    1    2    0  502 -0.15941510309E+02 -0.20376354777E+02  0.10177775451E+02  0.28195827671E+02  0.47000000000E+01 0.  1.
          5    1    3    3  503    0 -0.31483092619E+02  0.37180447630E+02  0.30476644776E+02  0.57658361784E+02  0.47000000000E+01 0. -1.
         -5    1    3    3    0  503 -0.12116779134E+02 -0.38322047407E+02  0.10329008990E+03  0.11093389169E+03  0.47000000000E+01 0.  1.
<mgrwt>
<rscale>  0 0.11163200E+03</rscale>
<asrwt>0</asrwt>
<pdfrwt beam="1">  1        1 0.60860949E-01 0.11481047E+03</pdfrwt>
<pdfrwt beam="2">  1       -1 0.47531254E-02 0.11481047E+03</pdfrwt>
<totfact> 0.10916110E+04</totfact>
</mgrwt>
</event>
<event>
 7    1  0.1378876E-005  0.9586423E+02  0.7546771E-02  0.1300519E+00
          2   -1    0    0  501    0  0.00000000000E+00  0.00000000000E+00  0.74113312981E+01  0.74113312981E+01  0.00000000000E+00 0. -1.
         -2   -1    0    0    0  501 -0.00000000000E+00 -0.00000000000E+00 -0.10979404189E+04  0.10979404189E+04  0.00000000000E+00 0.  1.
         23    2    1    2    0    0 -0.18310099055E+02  0.19858516473E+02 -0.44830798116E+03  0.45844301326E+03  0.91980052377E+02 0.  0.
          5    1    3    3  502    0 -0.44180036761E+02  0.39602335448E+02 -0.22551100592E+03  0.23323276874E+03  0.47000000000E+01 0. -1.
         -5    1    1    2    0  503  0.29462098582E+02  0.19607732793E+02 -0.34315497886E+03  0.34500711291E+03  0.47000000000E+01 0.  1.
          5    1    1    2  503    0 -0.11151999527E+02 -0.39466249266E+02 -0.29906612756E+03  0.30190162401E+03  0.47000000000E+01 0. -1.
         -5    1    3    3    0  502  0.25869937706E+02 -0.19743818975E+02 -0.22279697524E+03  0.22521024452E+03  0.47000000000E+01 0.  1.
<mgrwt>
<rscale>  0 0.90970104E+02</rscale>
<asrwt>0</asrwt>
<pdfrwt beam="1">  1        2 0.11402051E-02 0.95864229E+02</pdfrwt>
<pdfrwt beam="2">  1       -2 0.16891386E+00 0.95864229E+02</pdfrwt>
<totfact> 0.25661046E+03</totfact>
</mgrwt>
</event>
<event>
 7    1  0.1378876E-005  0.1279404E+03  0.7546771E-02  0.1245484E+00
          1   -1    0    0  501    0  0.00000000000E+00  0.00000000000E+00  0.13315899087E+03  0.13315899087E+03  0.00000000000E+00 0. -1.
         -1   -1    0    0    0  501 -0.00000000000E+00 -0.00000000000E+00 -0.93066356826E+02  0.93066356826E+02  0.00000000000E+00 0.  1.
         23    2    1    2    0    0  0.91338848199E+02  0.90182474082E+01  0.16869791158E+02  0.12904775561E+03  0.89132594474E+02 0.  0.
          5    1    1    2  502    0 -0.49654278730E+02 -0.14635840912E+02  0.11082183303E+02  0.53147530725E+02  0.47000000000E+01 0. -1.
         -5    1    3    3    0  503  0.20683210128E+02  0.39425807601E+02  0.25466081307E+02  0.51505347133E+02  0.47000000000E+01 0.  1.
          5    1    3    3  503    0  0.70655638071E+02 -0.30407560193E+02 -0.85962901491E+01  0.77542408477E+02  0.47000000000E+01 0. -1.
         -5    1    1    2    0  502 -0.41684569469E+02  0.56175935041E+01  0.12140659587E+02  0.44030061365E+02  0.47000000000E+01 0.  1.
<mgrwt>
<rscale>  0 0.11856457E+03</rscale>
<asrwt>0</asrwt>
<pdfrwt beam="1">  1        1 0.20485999E-01 0.12794035E+03</pdfrwt>
<pdfrwt beam="2">  1       -1 0.14317901E-01 0.12794035E+03</pdfrwt>
<totfact> 0.80608484E+03</totfact>
</mgrwt>
</event>
<event>
 7    1  0.1378876E-005  0.3524413E+03  0.7546771E-02  0.1068233E+00
          2   -1    0    0  501    0  0.00000000000E+00  0.00000000000E+00  0.10618262081E+04  0.10618262081E+04  0.00000000000E+00 0. -1.
         -2   -1    0    0    0  501 -0.00000000000E+00 -0.00000000000E+00 -0.19625834645E+03  0.19625834645E+03  0.00000000000E+00 0.  1.
         23    2    1    2    0    0 -0.27809312454E+03  0.20726824647E+02  0.85668535686E+03  0.90553132923E+03  0.91169075739E+02 0.  0.
          5    1    1    2  502    0  0.15864760399E+03 -0.11844564369E+03  0.57197238370E+01  0.19812429938E+03  0.47000000000E+01 0. -1.
         -5    1    1    2    0  502  0.11944552055E+03  0.97718819047E+02  0.31627809104E+01  0.15442892591E+03  0.47000000000E+01 0.  1.
          5    1    3    3  503    0 -0.20377289546E+03  0.55207957827E+02  0.60359133999E+03  0.63946532920E+03  0.47000000000E+01 0. -1.
         -5    1    3    3    0  503 -0.74320229077E+02 -0.34481133180E+02  0.25309401687E+03  0.26606600003E+03  0.47000000000E+01 0.  1.
<mgrwt>
<rscale>  0 0.33664806E+03</rscale>
<asrwt>0</asrwt>
<pdfrwt beam="1">  1        2 0.16335787E+00 0.35244131E+03</pdfrwt>
<pdfrwt beam="2">  1       -2 0.30193592E-01 0.35244131E+03</pdfrwt>
<totfact> 0.24290986E+02</totfact>
</mgrwt>
</event>
<event>
 7    1  0.1378876E-005  0.1015091E+03  0.7546771E-02  0.1301828E+00
         -2   -1    0    0    0  501 -0.00000000000E+00  0.00000000000E+00  0.16701862316E+02  0.16701862316E+02  0.00000000000E+00 0.  1.
          2   -1    0    0  501    0  0.00000000000E+00 -0.00000000000E+00 -0.47429940299E+03  0.47429940299E+03  0.00000000000E+00 0. -1.
         23    2    1    2    0    0 -0.21362182737E+02 -0.42206032921E+02 -0.18509000075E+03  0.21109808998E+03  0.89813156884E+02 0.  0.
          5    1    3    3  502    0 -0.27169519625E+01 -0.68619875937E+02 -0.12631082733E+03  0.14384917206E+03  0.47000000000E+01 0. -1.
         -5    1    3    3    0  502 -0.18645230775E+02  0.26413843016E+02 -0.58779173423E+02  0.67248917923E+02  0.47000000000E+01 0.  1.
          5    1    1    2  503    0 -0.99733322011E+01  0.21185081245E+02 -0.14101405291E+03  0.14302212465E+03  0.47000000000E+01 0.  1.
         -5    1    1    2    0  503  0.31335514938E+02  0.21020951676E+02 -0.13149348702E+03  0.13688105067E+03  0.47000000000E+01 0. -1.
<mgrwt>
<rscale>  0 0.90423934E+02</rscale>
<asrwt>0</asrwt>
<pdfrwt beam="1">  1        2 0.72969124E-01 0.10150909E+03</pdfrwt>
<pdfrwt beam="2">  1       -2 0.25695178E-02 0.10150909E+03</pdfrwt>
<totfact> 0.31874396E+04</totfact>
</mgrwt>
</event>
<event>
 7    1  0.1378876E-005  0.1039769E+03  0.7546771E-02  0.1305065E+00
          2   -1    0    0  501    0  0.00000000000E+00  0.00000000000E+00  0.41257776925E+03  0.41257776925E+03  0.00000000000E+00 0. -1.
         -2   -1    0    0    0  501 -0.00000000000E+00 -0.00000000000E+00 -0.16084509324E+02  0.16084509324E+02  0.00000000000E+00 0.  1.
         23    2    1    2    0    0 -0.32059764338E+02  0.38940163290E+02  0.29401408114E+03  0.31185809322E+03  0.90923185118E+02 0.  0.
          5    1    1    2  502    0  0.11999402783E+02 -0.31567231243E+02  0.59600613133E+02  0.68664392819E+02  0.47000000000E+01 0.  1.
         -5    1    1    2    0  502  0.20060361555E+02 -0.73729320468E+01  0.42878565653E+02  0.48139792533E+02  0.47000000000E+01 0. -1.
          5    1    3    3  503    0  0.89885194469E+01  0.24329156941E+02  0.24375461526E+03  0.24517565911E+03  0.47000000000E+01 0. -1.
         -5    1    3    3    0  503 -0.41048283785E+02  0.14611006349E+02  0.50259465874E+02  0.66682434105E+02  0.47000000000E+01 0.  1.
<mgrwt>
<rscale>  0 0.89092292E+02</rscale>
<asrwt>0</asrwt>
<pdfrwt beam="1">  1        2 0.63473495E-01 0.10397687E+03</pdfrwt>
<pdfrwt beam="2">  1       -2 0.24745402E-02 0.10397687E+03</pdfrwt>
<totfact> 0.39177754E+04</totfact>
</mgrwt>
</event>
