<event>
 7    1  0.2566315E-009  0.1010007E+03  0.7546771E-02  0.1278206E+00
          4   -1    0    0  501    0  0.00000000000E+00  0.00000000000E+00  0.70051274583E+02  0.70051274583E+02  0.00000000000E+00 0. -1.
         -4   -1    0    0    0  501 -0.00000000000E+00 -0.00000000000E+00 -0.36405997753E+02  0.36405997753E+02  0.00000000000E+00 0.  1.
         23    2    1    2    0    0 -0.88817841970E-15  0.00000000000E+00  0.33645276831E+02  0.10645727234E+03  0.10100072366E+03 0.  0.
          5    1    3    3  502    0  0.20969565615E+02 -0.18142107252E+00 -0.72822258856E+01  0.22690888249E+02  0.47000000000E+01 0. -1.
         -5    1    3    3    0  503 -0.20071749791E+02  0.67441473779E+01  0.10031012912E+02  0.23897068514E+02  0.47000000000E+01 0.  1.
          5    1    3    3  503    0 -0.76218985046E+01 -0.27412664347E+02  0.16256460609E+02  0.33104531638E+02  0.47000000000E+01 0.  1.
         -5    1    3    3    0  502  0.67240826807E+01  0.20849938041E+02  0.14640029195E+02  0.26764783934E+02  0.47000000000E+01 0. -1.
<mgrwt>
<rscale>  0 0.10100072E+03</rscale>
<asrwt>0</asrwt>
<pdfrwt beam="1">  1        4 0.10777119E-01 0.10100072E+03</pdfrwt>
<pdfrwt beam="2">  1       -4 0.56009228E-02 0.10100072E+03</pdfrwt>
<totfact> 0.19711245E+04</totfact>
</mgrwt>
</event>
<event>
 7    1  0.2566315E-009  0.1013502E+03  0.7546771E-02  0.1277482E+00
         -2   -1    0    0    0  501 -0.00000000000E+00  0.00000000000E+00  0.76870334796E+02  0.76870334796E+02  0.00000000000E+00 0.  1.
          2   -1    0    0  501    0  0.00000000000E+00 -0.00000000000E+00 -0.33406438225E+02  0.33406438225E+02  0.00000000000E+00 0. -1.
         23    2    1    2    0    0  0.00000000000E+00 -0.35527136788E-14  0.43463896571E+02  0.11027677302E+03  0.10135016706E+03 0.  0.
          5    1    3    3  502    0  0.17608393274E+02  0.17604968947E+02  0.14914616348E+02  0.29402826839E+02  0.47000000000E+01 0.  1.
         -5    1    3    3    0  503  0.87004228676E+01 -0.20374461472E+02 -0.23567091534E+01  0.22769719286E+02  0.47000000000E+01 0. -1.
          5    1    3    3  503    0 -0.10417634324E+02  0.19938355721E+02  0.24076769818E+02  0.33284320312E+02  0.47000000000E+01 0. -1.
         -5    1    3    3    0  502 -0.15891181818E+02 -0.17168863197E+02  0.68292195589E+01  0.24819906583E+02  0.47000000000E+01 0.  1.
<mgrwt>
<rscale>  0 0.10135017E+03</rscale>
<asrwt>0</asrwt>
<pdfrwt beam="1">  1        2 0.51394521E-02 0.10135017E+03</pdfrwt>
<pdfrwt beam="2">  1       -2 0.11826205E-01 0.10135017E+03</pdfrwt>
<totfact> 0.66411706E+04</totfact>
</mgrwt>
</event>
<event>
 7    1  0.2566315E-009  0.9022462E+02  0.7546771E-02  0.1302309E+00
         -1   -1    0    0    0  501 -0.00000000000E+00  0.00000000000E+00  0.46062903238E+02  0.46062903238E+02  0.00000000000E+00 0.  1.
          1   -1    0    0  501    0  0.00000000000E+00 -0.00000000000E+00 -0.44181329826E+02  0.44181329826E+02  0.00000000000E+00 0. -1.
         23    2    1    2    0    0  0.00000000000E+00  0.17763568394E-14  0.18815734122E+01  0.90244233065E+02  0.90224615726E+02 0.  0.
          5    1    3    3  502    0  0.19401639105E+02 -0.11110703483E+02 -0.83312826338E+01  0.24318133197E+02  0.47000000000E+01 0. -1.
         -5    1    3    3    0  502 -0.19514490379E+02  0.11527954397E+02  0.33104263355E+01  0.23382856751E+02  0.47000000000E+01 0. -1.
          5    1    3    3  503    0 -0.94665547796E+01 -0.18224700028E+02  0.52869829045E+01  0.21720900965E+02  0.47000000000E+01 0.  1.
         -5    1    3    3    0  503  0.95794060535E+01  0.17807449114E+02  0.16154468061E+01  0.20822342151E+02  0.47000000000E+01 0.  1.
<mgrwt>
<rscale>  0 0.90224616E+02</rscale>
<asrwt>0</asrwt>
<pdfrwt beam="1">  1        1 0.67971276E-02 0.90224616E+02</pdfrwt>
<pdfrwt beam="2">  1       -1 0.70866005E-02 0.90224616E+02</pdfrwt>
<totfact> 0.94789329E+04</totfact>
</mgrwt>
</event>
<event>
 7    1  0.2566315E-009  0.9740606E+02  0.7546771E-02  0.1285847E+00
         -1   -1    0    0    0  501 -0.00000000000E+00  0.00000000000E+00  0.10736490655E+02  0.10736490655E+02  0.00000000000E+00 0.  1.
          1   -1    0    0  501    0  0.00000000000E+00 -0.00000000000E+00 -0.22092739675E+03  0.22092739675E+03  0.00000000000E+00 0. -1.
         23    2    1    2    0    0 -0.31086244690E-14  0.00000000000E+00 -0.21019090609E+03  0.23166388740E+03  0.97406055880E+02 0.  0.
          5    1    3    3  502    0  0.21316405087E+02  0.99834868562E+01 -0.32259336127E+02  0.40209624507E+02  0.47000000000E+01 0.  1.
         -5    1    3    3    0  503 -0.18413221088E+02 -0.91380148489E+01 -0.35509083950E+02  0.41298124282E+02  0.47000000000E+01 0.  1.
          5    1    3    3  503    0  0.21555644100E+01  0.22336819829E+02 -0.79657364862E+02  0.82891288775E+02  0.47000000000E+01 0. -1.
         -5    1    3    3    0  502 -0.50587484089E+01 -0.23182291837E+02 -0.62765121156E+02  0.67264849840E+02  0.47000000000E+01 0. -1.
<mgrwt>
<rscale>  0 0.97406056E+02</rscale>
<asrwt>0</asrwt>
<pdfrwt beam="1">  1        1 0.33988830E-01 0.97406056E+02</pdfrwt>
<pdfrwt beam="2">  1       -1 0.16517678E-02 0.97406056E+02</pdfrwt>
<totfact> 0.10107117E+05</totfact>
</mgrwt>
</event>
<event>
 7    1  0.2566315E-009  0.9434158E+02  0.7546771E-02  0.1292666E+00
         -2   -1    0    0    0  501 -0.00000000000E+00  0.00000000000E+00  0.41983090418E+01  0.41983090418E+01  0.00000000000E+00 0.  1.
          2   -1    0    0  501    0  0.00000000000E+00 -0.00000000000E+00 -0.52999511478E+03  0.52999511478E+03  0.00000000000E+00 0. -1.
         23    2    1    2    0    0  0.00000000000E+00 -0.88817841970E-15 -0.52579680573E+03  0.53419342382E+03  0.94341576889E+02 0.  0.
          5    1    3    3  502    0 -0.20947999237E+02  0.45498889174E+01 -0.91704600608E+02  0.94293923101E+02  0.47000000000E+01 0.  1.
         -5    1    3    3    0  502  0.22139871129E+02 -0.23745084970E+01 -0.18636929389E+03  0.18775360420E+03  0.47000000000E+01 0.  1.
          5    1    3    3  503    0 -0.22779353607E+02 -0.66421727419E+01 -0.11417890226E+03  0.11671302040E+03  0.47000000000E+01 0. -1.
         -5    1    3    3    0  503  0.21587481715E+02  0.44667923215E+01 -0.13354400898E+03  0.13543287612E+03  0.47000000000E+01 0. -1.
<mgrwt>
<rscale>  0 0.94341577E+02</rscale>
<asrwt>0</asrwt>
<pdfrwt beam="1">  1        2 0.81537666E-01 0.94341577E+02</pdfrwt>
<pdfrwt beam="2">  1       -2 0.64589404E-03 0.94341577E+02</pdfrwt>
<totfact> 0.20055924E+05</totfact>
</mgrwt>
</event>
<event>
 7    1  0.2566315E-009  0.9718262E+02  0.7546771E-02  0.1286335E+00
         -1   -1    0    0    0  501 -0.00000000000E+00  0.00000000000E+00  0.78740446202E+01  0.78740446202E+01  0.00000000000E+00 0.  1.
          1   -1    0    0  501    0  0.00000000000E+00 -0.00000000000E+00 -0.29986053522E+03  0.29986053522E+03  0.00000000000E+00 0. -1.
         23    2    1    2    0    0  0.00000000000E+00 -0.35527136788E-14 -0.29198649060E+03  0.30773457984E+03  0.97182616432E+02 0.  0.
          5    1    3    3  502    0  0.19705724767E+02  0.17063065725E+02 -0.85251746879E+02  0.89271575244E+02  0.47000000000E+01 0.  1.
         -5    1    3    3    0  503 -0.15356628538E+02 -0.14668225303E+02 -0.39634927298E+02  0.45210621933E+02  0.47000000000E+01 0.  1.
          5    1    3    3  503    0  0.14423636270E+02 -0.13917547174E+02 -0.10924917934E+03  0.11117199553E+03  0.47000000000E+01 0. -1.
         -5    1    3    3    0  502 -0.18772732499E+02  0.11522706753E+02 -0.57850637077E+02  0.62080387133E+02  0.47000000000E+01 0. -1.
<mgrwt>
<rscale>  0 0.97182616E+02</rscale>
<asrwt>0</asrwt>
<pdfrwt beam="1">  1        1 0.46132394E-01 0.97182616E+02</pdfrwt>
<pdfrwt beam="2">  1       -1 0.12113914E-02 0.97182616E+02</pdfrwt>
<totfact> 0.10801530E+05</totfact>
</mgrwt>
</event>
<event>
 7    1  0.2566315E-009  0.9149858E+02  0.7546771E-02  0.1299263E+00
         -1   -1    0    0    0  501 -0.00000000000E+00  0.00000000000E+00  0.53010857190E+01  0.53010857190E+01  0.00000000000E+00 0.  1.
          1   -1    0    0  501    0  0.00000000000E+00 -0.00000000000E+00 -0.39482435347E+03  0.39482435347E+03  0.00000000000E+00 0. -1.
         23    2    1    2    0    0 -0.35527136788E-14  0.00000000000E+00 -0.38952326775E+03  0.40012543919E+03  0.91498584507E+02 0.  0.
          5    1    3    3  502    0 -0.11243522222E+02 -0.19592080652E+02 -0.77597237626E+02  0.80954849783E+02  0.47000000000E+01 0. -1.
         -5    1    3    3    0  503 -0.18833115045E+02  0.68699642112E+01 -0.73415291249E+02  0.76248131910E+02  0.47000000000E+01 0.  1.
          5    1    3    3  503    0  0.23802374710E+02 -0.66757735604E+01 -0.13082609296E+03  0.13322415544E+03  0.47000000000E+01 0. -1.
         -5    1    3    3    0  502  0.62742625574E+01  0.19397890002E+02 -0.10768464592E+03  0.10969830205E+03  0.47000000000E+01 0.  1.
<mgrwt>
<rscale>  0 0.91498585E+02</rscale>
<asrwt>0</asrwt>
<pdfrwt beam="1">  1        1 0.60742215E-01 0.91498585E+02</pdfrwt>
<pdfrwt beam="2">  1       -1 0.81555156E-03 0.91498585E+02</pdfrwt>
<totfact> 0.13334832E+05</totfact>
</mgrwt>
</event>
<event>
 7    1  0.2566315E-009  0.1023883E+03  0.7546771E-02  0.1275352E+00
         -1   -1    0    0    0  501 -0.00000000000E+00  0.00000000000E+00  0.46802421067E+01  0.46802421067E+01  0.00000000000E+00 0.  1.
          1   -1    0    0  501    0  0.00000000000E+00 -0.00000000000E+00 -0.55997939511E+03  0.55997939511E+03  0.00000000000E+00 0. -1.
         23    2    1    2    0    0  0.00000000000E+00  0.00000000000E+00 -0.55529915300E+03  0.56465963722E+03  0.10238826386E+03 0.  0.
          5    1    3    3  502    0 -0.12206091898E+02 -0.22441280875E+02 -0.12255535318E+03  0.12527770895E+03  0.47000000000E+01 0.  1.
         -5    1    3    3    0  502  0.17794969205E+02  0.17060996053E+02 -0.13249927529E+03  0.13485505725E+03  0.47000000000E+01 0.  1.
          5    1    3    3  503    0 -0.26217783450E+02  0.16928454260E+01 -0.11578282682E+03  0.11881915199E+03  0.47000000000E+01 0. -1.
         -5    1    3    3    0  503  0.20628906143E+02  0.36874393954E+01 -0.18446169771E+03  0.18570771901E+03  0.47000000000E+01 0. -1.
<mgrwt>
<rscale>  0 0.10238826E+03</rscale>
<asrwt>0</asrwt>
<pdfrwt beam="1">  1        1 0.86150704E-01 0.10238826E+03</pdfrwt>
<pdfrwt beam="2">  1       -1 0.72003701E-03 0.10238826E+03</pdfrwt>
<totfact> 0.10344688E+05</totfact>
</mgrwt>
</event>
<event>
 7    1  0.2566315E-009  0.1018624E+03  0.7546771E-02  0.1276428E+00
         -2   -1    0    0    0  501 -0.00000000000E+00  0.00000000000E+00  0.32518874907E+02  0.32518874907E+02  0.00000000000E+00 0. -1.
          2   -1    0    0  501    0  0.00000000000E+00 -0.00000000000E+00 -0.79768670823E+02  0.79768670823E+02  0.00000000000E+00 0.  1.
         23    2    1    2    0    0  0.17763568394E-14  0.00000000000E+00 -0.47249795915E+02  0.11228754573E+03  0.10186240578E+03 0.  0.
          5    1    3    3  502    0  0.36662632489E+01  0.21133570217E+02 -0.25016034224E+02  0.33286051803E+02  0.47000000000E+01 0.  1.
         -5    1    3    3    0  503 -0.20648438512E+02 -0.98467335496E+01  0.78707720157E+00  0.23367192067E+02  0.47000000000E+01 0.  1.
          5    1    3    3  503    0  0.27876032875E+02  0.60426490116E+01 -0.17954568720E+02  0.34030036054E+02  0.47000000000E+01 0. -1.
         -5    1    3    3    0  502 -0.10893857612E+02 -0.17329485679E+02 -0.50662701726E+01  0.21604265806E+02  0.47000000000E+01 0. -1.
<mgrwt>
<rscale>  0 0.10186241E+03</rscale>
<asrwt>0</asrwt>
<pdfrwt beam="1">  1        2 0.12272103E-01 0.10186241E+03</pdfrwt>
<pdfrwt beam="2">  1       -2 0.50029039E-02 0.10186241E+03</pdfrwt>
<totfact> 0.84079073E+04</totfact>
</mgrwt>
</event>
<event>
 7    1  0.2566315E-009  0.9261333E+02  0.7546771E-02  0.1296644E+00
         -2   -1    0    0    0  501 -0.00000000000E+00  0.00000000000E+00  0.17294474467E+03  0.17294474467E+03  0.00000000000E+00 0. -1.
          2   -1    0    0  501    0  0.00000000000E+00 -0.00000000000E+00 -0.12398799521E+02  0.12398799521E+02  0.00000000000E+00 0.  1.
         23    2    1    2    0    0  0.00000000000E+00  0.17763568394E-14  0.16054594515E+03  0.18534354419E+03  0.92613329871E+02 0.  0.
          5    1    3    3  502    0  0.17406717253E+02 -0.99055823298E+01  0.24031350838E+02  0.31634003697E+02  0.47000000000E+01 0. -1.
         -5    1    3    3    0  502  0.33254139034E+01  0.21461416201E+02  0.30044260686E+02  0.37368413977E+02  0.47000000000E+01 0.  1.
          5    1    3    3  503    0 -0.22572205350E+01 -0.23664509882E+02  0.51687846603E+02  0.57086141567E+02  0.47000000000E+01 0.  1.
         -5    1    3    3    0  503 -0.18474910621E+02  0.12108676011E+02  0.54782487023E+02  0.59254984952E+02  0.47000000000E+01 0. -1.
<mgrwt>
<rscale>  0 0.92613330E+02</rscale>
<asrwt>0</asrwt>
<pdfrwt beam="1">  1        2 0.19075077E-02 0.92613330E+02</pdfrwt>
<pdfrwt beam="2">  1       -2 0.26606882E-01 0.92613330E+02</pdfrwt>
<totfact> 0.63602885E+04</totfact>
</mgrwt>
</event>
<event>
 7    1  0.2566315E-009  0.9059603E+02  0.7546771E-02  0.1301415E+00
         -2   -1    0    0    0  501 -0.00000000000E+00  0.00000000000E+00  0.50473201221E+03  0.50473201221E+03  0.00000000000E+00 0.  1.
          2   -1    0    0  501    0  0.00000000000E+00 -0.00000000000E+00 -0.40653458670E+01  0.40653458670E+01  0.00000000000E+00 0. -1.
         23    2    1    2    0    0  0.00000000000E+00  0.35527136788E-14  0.50066666634E+03  0.50879735807E+03  0.90596030813E+02 0.  0.
          5    1    3    3  502    0 -0.82106364555E+01 -0.19996186095E+02  0.10827098831E+03  0.11050773239E+03  0.47000000000E+01 0.  1.
         -5    1    3    3    0  503  0.22332996445E+02  0.40403194880E+01  0.10478253622E+03  0.10731522170E+03  0.47000000000E+01 0.  1.
          5    1    3    3  503    0  0.76718827570E+01  0.19015218377E+02  0.11599786663E+03  0.11788991211E+03  0.47000000000E+01 0. -1.
         -5    1    3    3    0  502 -0.21794242747E+02 -0.30593517706E+01  0.17161527518E+03  0.17308449186E+03  0.47000000000E+01 0. -1.
<mgrwt>
<rscale>  0 0.90596031E+02</rscale>
<asrwt>0</asrwt>
<pdfrwt beam="1">  1        2 0.62543822E-03 0.90596031E+02</pdfrwt>
<pdfrwt beam="2">  1       -2 0.77651029E-01 0.90596031E+02</pdfrwt>
<totfact> 0.36640121E+04</totfact>
</mgrwt>
</event>
<event>
 7    1  0.2566315E-009  0.8927149E+02  0.7546771E-02  0.1304626E+00
         -1   -1    0    0    0  501 -0.00000000000E+00  0.00000000000E+00  0.38602757845E+01  0.38602757845E+01  0.00000000000E+00 0.  1.
          1   -1    0    0  501    0  0.00000000000E+00 -0.00000000000E+00 -0.51611588696E+03  0.51611588696E+03  0.00000000000E+00 0. -1.
         23    2    1    2    0    0 -0.35527136788E-14  0.25535129566E-14 -0.51225561117E+03  0.51997616274E+03  0.89271488402E+02 0.  0.
          5    1    3    3  502    0 -0.20035376919E+02  0.60289190254E+00 -0.96755680480E+02  0.98921845475E+02  0.47000000000E+01 0.  1.
         -5    1    3    3    0  503  0.22436226578E+02  0.69151938017E+00 -0.18270691225E+03  0.18414062085E+03  0.47000000000E+01 0. -1.
          5    1    3    3  503    0  0.47515553839E+01 -0.20909012192E+02 -0.97658399374E+02  0.10009504003E+03  0.47000000000E+01 0. -1.
         -5    1    3    3    0  502 -0.71524050434E+01  0.19614600909E+02 -0.13513461906E+03  0.13681865639E+03  0.47000000000E+01 0.  1.
<mgrwt>
<rscale>  0 0.89271488E+02</rscale>
<asrwt>0</asrwt>
<pdfrwt beam="1">  1        1 0.79402476E-01 0.89271488E+02</pdfrwt>
<pdfrwt beam="2">  1       -1 0.59388834E-03 0.89271488E+02</pdfrwt>
<totfact> 0.14780033E+05</totfact>
</mgrwt>
</event>
<event>
 7    1  0.2566315E-009  0.9860368E+02  0.7546771E-02  0.1283260E+00
         -1   -1    0    0    0  501 -0.00000000000E+00  0.00000000000E+00  0.22263318402E+03  0.22263318402E+03  0.00000000000E+00 0.  1.
          1   -1    0    0  501    0  0.00000000000E+00 -0.00000000000E+00 -0.10917831070E+02  0.10917831070E+02  0.00000000000E+00 0. -1.
         23    2    1    2    0    0  0.17763568394E-14  0.17763568394E-14  0.21171535295E+03  0.23355101509E+03  0.98603681346E+02 0.  0.
          5    1    3    3  502    0 -0.21741284337E+01 -0.19913742591E+02  0.53464384166E+02  0.57287122049E+02  0.47000000000E+01 0. -1.
         -5    1    3    3    0  502 -0.13684399547E+02 -0.20075687319E+02  0.88871585198E+02  0.92252613339E+02  0.47000000000E+01 0.  1.
          5    1    3    3  503    0  0.15453281707E+02  0.15681243214E+02  0.35787524878E+02  0.42279335865E+02  0.47000000000E+01 0.  1.
         -5    1    3    3    0  503  0.40524627429E+00  0.24308186695E+02  0.33591858703E+02  0.41731943833E+02  0.47000000000E+01 0. -1.
<mgrwt>
<rscale>  0 0.98603681E+02</rscale>
<asrwt>0</asrwt>
<pdfrwt beam="1">  1        1 0.16796665E-02 0.98603681E+02</pdfrwt>
<pdfrwt beam="2">  1       -1 0.34251256E-01 0.98603681E+02</pdfrwt>
<totfact> 0.54787798E+04</totfact>
</mgrwt>
</event>
<event>
 7    1  0.2566315E-009  0.1016684E+03  0.7546771E-02  0.1276826E+00
          2   -1    0    0  501    0  0.00000000000E+00  0.00000000000E+00  0.34923504224E+03  0.34923504224E+03  0.00000000000E+00 0. -1.
         -2   -1    0    0    0  501 -0.00000000000E+00 -0.00000000000E+00 -0.73993552332E+01  0.73993552332E+01  0.00000000000E+00 0.  1.
         23    2    1    2    0    0 -0.88817841970E-15  0.00000000000E+00  0.34183568701E+03  0.35663439747E+03  0.10166836553E+03 0.  0.
          5    1    3    3  502    0  0.29197498775E+02 -0.24534002001E+01  0.14957938823E+03  0.15249457856E+03  0.47000000000E+01 0. -1.
         -5    1    3    3    0  502 -0.95832235045E+01 -0.17645362143E+02  0.48784229301E+02  0.52964025587E+02  0.47000000000E+01 0.  1.
          5    1    3    3  503    0  0.43103781884E+01  0.21414130886E+02  0.83137665023E+02  0.86087779081E+02  0.47000000000E+01 0.  1.
         -5    1    3    3    0  503 -0.23924653459E+02 -0.13153685428E+01  0.60334404453E+02  0.65088014244E+02  0.47000000000E+01 0.  1.
<mgrwt>
<rscale>  0 0.10166837E+03</rscale>
<asrwt>0</asrwt>
<pdfrwt beam="1">  1        2 0.53728455E-01 0.10166837E+03</pdfrwt>
<pdfrwt beam="2">  1       -2 0.11383626E-02 0.10166837E+03</pdfrwt>
<totfact> 0.14197228E+05</totfact>
</mgrwt>
</event>
<event>
 7    1  0.2566315E-009  0.9308308E+02  0.7546771E-02  0.1295553E+00
         -4   -1    0    0    0  501 -0.00000000000E+00  0.00000000000E+00  0.87258022661E+01  0.87258022661E+01  0.00000000000E+00 0.  1.
          4   -1    0    0  501    0  0.00000000000E+00 -0.00000000000E+00 -0.24824250627E+03  0.24824250627E+03  0.00000000000E+00 0. -1.
         23    2    1    2    0    0  0.00000000000E+00 -0.17763568394E-14 -0.23951670401E+03  0.25696830854E+03  0.93083081680E+02 0.  0.
          5    1    3    3  502    0  0.75661079141E+01 -0.24421780017E+02 -0.86580520759E+02  0.90398815828E+02  0.47000000000E+01 0. -1.
         -5    1    3    3    0  503 -0.88367426561E+01  0.18522862587E+02 -0.69641894975E+02  0.72754848601E+02  0.47000000000E+01 0. -1.
          5    1    3    3  503    0  0.21307412949E+02  0.55375829621E+01 -0.40832090297E+02  0.46626390271E+02  0.47000000000E+01 0.  1.
         -5    1    3    3    0  502 -0.20036778207E+02  0.36133446818E+00 -0.42462197975E+02  0.47188253839E+02  0.47000000000E+01 0.  1.
<mgrwt>
<rscale>  0 0.93083082E+02</rscale>
<asrwt>0</asrwt>
<pdfrwt beam="1">  1        4 0.38191151E-01 0.93083082E+02</pdfrwt>
<pdfrwt beam="2">  1       -4 0.13424313E-02 0.93083082E+02</pdfrwt>
<totfact> 0.18185274E+04</totfact>
</mgrwt>
</event>
<event>
 7    1  0.2566315E-009  0.9581747E+02  0.7546771E-02  0.1289345E+00
         -4   -1    0    0    0  501 -0.00000000000E+00  0.00000000000E+00  0.47969127382E+03  0.47969127382E+03  0.00000000000E+00 0.  1.
          4   -1    0    0  501    0  0.00000000000E+00 -0.00000000000E+00 -0.47848415648E+01  0.47848415648E+01  0.00000000000E+00 0. -1.
         23    2    1    2    0    0  0.00000000000E+00  0.88817841970E-15  0.47490643225E+03  0.48447611538E+03  0.95817466993E+02 0.  0.
          5    1    3    3  502    0 -0.24984184533E+02 -0.71703540045E+00  0.12681896903E+03  0.12934397752E+03  0.47000000000E+01 0. -1.
         -5    1    3    3    0  502  0.21992093195E+02 -0.34434775938E+01  0.12239987910E+03  0.12449630559E+03  0.47000000000E+01 0. -1.
          5    1    3    3  503    0  0.69308132297E+01 -0.20464164123E+02  0.10097702998E+03  0.10336957370E+03  0.47000000000E+01 0.  1.
         -5    1    3    3    0  503 -0.39387218913E+01  0.24624677117E+02  0.12471055415E+03  0.12726625857E+03  0.47000000000E+01 0.  1.
<mgrwt>
<rscale>  0 0.95817467E+02</rscale>
<asrwt>0</asrwt>
<pdfrwt beam="1">  1        4 0.73612985E-03 0.95817467E+02</pdfrwt>
<pdfrwt beam="2">  1       -4 0.73798620E-01 0.95817467E+02</pdfrwt>
<totfact> 0.11715269E+04</totfact>
</mgrwt>
</event>
<event>
 7    1  0.2566315E-009  0.9601209E+02  0.7546771E-02  0.1288913E+00
         -1   -1    0    0    0  501 -0.00000000000E+00  0.00000000000E+00  0.41865629536E+03  0.41865629536E+03  0.00000000000E+00 0.  1.
          1   -1    0    0  501    0  0.00000000000E+00 -0.00000000000E+00 -0.55047072024E+01  0.55047072024E+01  0.00000000000E+00 0. -1.
         23    2    1    2    0    0 -0.17763568394E-14  0.00000000000E+00  0.41315158816E+03  0.42416100257E+03  0.96012089331E+02 0.  0.
          5    1    3    3  502    0  0.15496192719E+02  0.15871613138E+02  0.12526462104E+03  0.12730025678E+03  0.47000000000E+01 0.  1.
         -5    1    3    3    0  503  0.33454183917E+00 -0.20772647464E+02  0.11648226432E+03  0.11841377750E+03  0.47000000000E+01 0.  1.
          5    1    3    3  503    0  0.44404300374E+00  0.21489702845E+02  0.11773864319E+03  0.11977680328E+03  0.47000000000E+01 0. -1.
         -5    1    3    3    0  502 -0.16274777562E+02 -0.16588668519E+02  0.53666059606E+02  0.58670165004E+02  0.47000000000E+01 0. -1.
<mgrwt>
<rscale>  0 0.96012089E+02</rscale>
<asrwt>0</asrwt>
<pdfrwt beam="1">  1        1 0.84687836E-03 0.96012089E+02</pdfrwt>
<pdfrwt beam="2">  1       -1 0.64408636E-01 0.96012089E+02</pdfrwt>
<totfact> 0.45445534E+04</totfact>
</mgrwt>
</event>
<event>
 7    1  0.2566315E-009  0.9298311E+02  0.7546771E-02  0.1295784E+00
          1   -1    0    0  501    0  0.00000000000E+00  0.00000000000E+00  0.52323788989E+03  0.52323788989E+03  0.00000000000E+00 0. -1.
         -1   -1    0    0    0  501 -0.00000000000E+00 -0.00000000000E+00 -0.41309404774E+01  0.41309404774E+01  0.00000000000E+00 0.  1.
         23    2    1    2    0    0 -0.88817841970E-15  0.35527136788E-14  0.51910694941E+03  0.52736883037E+03  0.92983107685E+02 0.  0.
          5    1    3    3  502    0 -0.14137934269E+02 -0.18096601599E+02  0.10732067665E+03  0.10985074333E+03  0.47000000000E+01 0.  1.
         -5    1    3    3    0  503  0.94445930377E+01  0.19742602698E+02  0.19663774255E+03  0.19790771207E+03  0.47000000000E+01 0. -1.
          5    1    3    3  503    0  0.74772894450E+01 -0.21578414919E+02  0.11976447654E+03  0.12201294066E+03  0.47000000000E+01 0. -1.
         -5    1    3    3    0  502 -0.27839482135E+01  0.19932413820E+02  0.95384053674E+02  0.97597434309E+02  0.47000000000E+01 0.  1.
<mgrwt>
<rscale>  0 0.92983108E+02</rscale>
<asrwt>0</asrwt>
<pdfrwt beam="1">  1        1 0.80498085E-01 0.92983108E+02</pdfrwt>
<pdfrwt beam="2">  1       -1 0.63552972E-03 0.92983108E+02</pdfrwt>
<totfact> 0.13287747E+05</totfact>
</mgrwt>
</event>
<event>
 7    1  0.2566315E-009  0.9222344E+02  0.7546771E-02  0.1297555E+00
         -1   -1    0    0    0  501 -0.00000000000E+00  0.00000000000E+00  0.10369685065E+02  0.10369685065E+02  0.00000000000E+00 0.  1.
          1   -1    0    0  501    0  0.00000000000E+00 -0.00000000000E+00 -0.20504872623E+03  0.20504872623E+03  0.00000000000E+00 0. -1.
         23    2    1    2    0    0 -0.35527136788E-14 -0.17763568394E-14 -0.19467904116E+03  0.21541841129E+03  0.92223439838E+02 0.  0.
          5    1    3    3  502    0  0.15076418070E+02 -0.14028947126E+02 -0.67317574238E+02  0.70553919385E+02  0.47000000000E+01 0. -1.
         -5    1    3    3    0  502  0.19149132031E+02 -0.85206545069E+01 -0.23884853818E+02  0.32122687507E+02  0.47000000000E+01 0. -1.
          5    1    3    3  503    0 -0.19152141414E+02  0.77105681916E+01 -0.67508942280E+02  0.70751711430E+02  0.47000000000E+01 0.  1.
         -5    1    3    3    0  503 -0.15073408687E+02  0.14839033442E+02 -0.35967670827E+02  0.41990092970E+02  0.47000000000E+01 0.  1.
<mgrwt>
<rscale>  0 0.92223440E+02</rscale>
<asrwt>0</asrwt>
<pdfrwt beam="1">  1        1 0.31545961E-01 0.92223440E+02</pdfrwt>
<pdfrwt beam="2">  1       -1 0.15953360E-02 0.92223440E+02</pdfrwt>
<totfact> 0.11539052E+05</totfact>
</mgrwt>
</event>
<event>
 7    1  0.2566315E-009  0.9258172E+02  0.7546771E-02  0.1296717E+00
         -1   -1    0    0    0  501 -0.00000000000E+00  0.00000000000E+00  0.69655963264E+02  0.69655963264E+02  0.00000000000E+00 0.  1.
          1   -1    0    0  501    0  0.00000000000E+00 -0.00000000000E+00 -0.30763250906E+02  0.30763250906E+02  0.00000000000E+00 0. -1.
         23    2    1    2    0    0  0.00000000000E+00  0.00000000000E+00  0.38892712358E+02  0.10041921417E+03  0.92581723359E+02 0.  0.
          5    1    3    3  502    0  0.19772844753E+02 -0.79579373132E+01 -0.19030459283E+01  0.21909033290E+02  0.47000000000E+01 0. -1.
         -5    1    3    3    0  502 -0.19940466854E+02 -0.29505566085E+01  0.25988802661E+02  0.33224025439E+02  0.47000000000E+01 0. -1.
          5    1    3    3  503    0  0.19773658437E+02  0.33880027862E+01  0.32472760960E+01  0.20859312858E+02  0.47000000000E+01 0.  1.
         -5    1    3    3    0  503 -0.19606036336E+02  0.75204911355E+01  0.11559679530E+02  0.24426842583E+02  0.47000000000E+01 0.  1.
<mgrwt>
<rscale>  0 0.92581723E+02</rscale>
<asrwt>0</asrwt>
<pdfrwt beam="1">  1        1 0.47328078E-02 0.92581723E+02</pdfrwt>
<pdfrwt beam="2">  1       -1 0.10716302E-01 0.92581723E+02</pdfrwt>
<totfact> 0.83293896E+04</totfact>
</mgrwt>
</event>
<event>
 7    1  0.2566315E-009  0.1017281E+03  0.7546771E-02  0.1276703E+00
         -2   -1    0    0    0  501 -0.00000000000E+00  0.00000000000E+00  0.87108681516E+01  0.87108681516E+01  0.00000000000E+00 0.  1.
          2   -1    0    0  501    0  0.00000000000E+00 -0.00000000000E+00 -0.29700276122E+03  0.29700276122E+03  0.00000000000E+00 0. -1.
         23    2    1    2    0    0  0.00000000000E+00  0.00000000000E+00 -0.28829189307E+03  0.30571362937E+03  0.10172810612E+03 0.  0.
          5    1    3    3  502    0 -0.49951291744E+00 -0.20188442619E+02 -0.33762376841E+02  0.39620838185E+02  0.47000000000E+01 0.  1.
         -5    1    3    3    0  503 -0.16742359818E+02  0.13946409691E+02 -0.65598466836E+02  0.69282449486E+02  0.47000000000E+01 0. -1.
          5    1    3    3  503    0  0.82571642433E+01 -0.22617981229E+02 -0.82370813252E+02  0.85946464221E+02  0.47000000000E+01 0. -1.
         -5    1    3    3    0  502  0.89847084921E+01  0.28860014158E+02 -0.10656023614E+03  0.11086387748E+03  0.47000000000E+01 0.  1.
<mgrwt>
<rscale>  0 0.10172811E+03</rscale>
<asrwt>0</asrwt>
<pdfrwt beam="1">  1        2 0.45692731E-01 0.10172811E+03</pdfrwt>
<pdfrwt beam="2">  1       -2 0.13401336E-02 0.10172811E+03</pdfrwt>
<totfact> 0.13337878E+05</totfact>
</mgrwt>
</event>
<event>
 7    1  0.2566315E-009  0.9195953E+02  0.7546771E-02  0.1298175E+00
         -1   -1    0    0    0  501 -0.00000000000E+00  0.00000000000E+00  0.89260367687E+02  0.89260367687E+02  0.00000000000E+00 0.  1.
          1   -1    0    0  501    0  0.00000000000E+00 -0.00000000000E+00 -0.23685080030E+02  0.23685080030E+02  0.00000000000E+00 0. -1.
         23    2    1    2    0    0 -0.35527136788E-14  0.00000000000E+00  0.65575287657E+02  0.11294544772E+03  0.91959533538E+02 0.  0.
          5    1    3    3  502    0  0.19196926136E+02  0.12811901066E+02  0.26277786720E+02  0.35288508851E+02  0.47000000000E+01 0. -1.
         -5    1    3    3    0  503 -0.18454569529E+02 -0.11421300845E+02  0.14826032808E+02  0.26700533671E+02  0.47000000000E+01 0.  1.
          5    1    3    3  503    0  0.21125446230E+02  0.23984239134E+00  0.77762371297E+01  0.22997866568E+02  0.47000000000E+01 0.  1.
         -5    1    3    3    0  502 -0.21867802837E+02 -0.16304426125E+01  0.16695231000E+02  0.27958538627E+02  0.47000000000E+01 0. -1.
<mgrwt>
<rscale>  0 0.91959534E+02</rscale>
<asrwt>0</asrwt>
<pdfrwt beam="1">  1        1 0.36438585E-02 0.91959534E+02</pdfrwt>
<pdfrwt beam="2">  1       -1 0.13732364E-01 0.91959534E+02</pdfrwt>
<totfact> 0.81258071E+04</totfact>
</mgrwt>
</event>
<event>
 7    1  0.2566315E-009  0.9427076E+02  0.7546771E-02  0.1292827E+00
         -2   -1    0    0    0  501 -0.00000000000E+00  0.00000000000E+00  0.11840768193E+03  0.11840768193E+03  0.00000000000E+00 0.  1.
          2   -1    0    0  501    0  0.00000000000E+00 -0.00000000000E+00 -0.18763511824E+02  0.18763511824E+02  0.00000000000E+00 0. -1.
         23    2    1    2    0    0  0.35527136788E-14  0.35527136788E-14  0.99644170106E+02  0.13717119375E+03  0.94270757714E+02 0.  0.
          5    1    3    3  502    0  0.18740733399E+02 -0.96315043522E+01  0.13760174577E+02  0.25601042338E+02  0.47000000000E+01 0.  1.
         -5    1    3    3    0  502 -0.19176332830E+02  0.11268813499E+02  0.25080670422E+02  0.33850375586E+02  0.47000000000E+01 0. -1.
          5    1    3    3  503    0  0.13295631332E+02  0.18902153146E+02  0.32665119554E+02  0.40288524936E+02  0.47000000000E+01 0.  1.
         -5    1    3    3    0  503 -0.12860031901E+02 -0.20539462293E+02  0.28138205553E+02  0.37431250894E+02  0.47000000000E+01 0. -1.
<mgrwt>
<rscale>  0 0.94270758E+02</rscale>
<asrwt>0</asrwt>
<pdfrwt beam="1">  1        2 0.28866942E-02 0.94270758E+02</pdfrwt>
<pdfrwt beam="2">  1       -2 0.18216566E-01 0.94270758E+02</pdfrwt>
<totfact> 0.69656492E+04</totfact>
</mgrwt>
</event>
<event>
 7    1  0.2566315E-009  0.9066006E+02  0.7546771E-02  0.1301261E+00
         -2   -1    0    0    0  501 -0.00000000000E+00  0.00000000000E+00  0.61038409671E+03  0.61038409671E+03  0.00000000000E+00 0.  1.
          2   -1    0    0  501    0  0.00000000000E+00 -0.00000000000E+00 -0.33664235468E+01  0.33664235468E+01  0.00000000000E+00 0. -1.
         23    2    1    2    0    0  0.00000000000E+00  0.00000000000E+00  0.60701767317E+03  0.61375052026E+03  0.90660055058E+02 0.  0.
          5    1    3    3  502    0 -0.11760513450E+02 -0.18822360874E+02  0.12472415201E+03  0.12677063951E+03  0.47000000000E+01 0. -1.
         -5    1    3    3    0  502  0.80986488622E+01  0.18850779399E+02  0.19476216076E+03  0.19589622064E+03  0.47000000000E+01 0. -1.
          5    1    3    3  503    0 -0.17182808133E+02  0.10672815905E+02  0.15889550548E+03  0.16024677706E+03  0.47000000000E+01 0.  1.
         -5    1    3    3    0  503  0.20844672720E+02 -0.10701234430E+02  0.12863585491E+03  0.13083688306E+03  0.47000000000E+01 0.  1.
<mgrwt>
<rscale>  0 0.90660055E+02</rscale>
<asrwt>0</asrwt>
<pdfrwt beam="1">  1        2 0.51791180E-03 0.90660055E+02</pdfrwt>
<pdfrwt beam="2">  1       -2 0.93905158E-01 0.90660055E+02</pdfrwt>
<totfact> 0.31257409E+04</totfact>
</mgrwt>
</event>
<event>
 7    1  0.2566315E-009  0.9937121E+02  0.7546771E-02  0.1281624E+00
          1   -1    0    0  501    0  0.00000000000E+00  0.00000000000E+00  0.46894673379E+02  0.46894673379E+02  0.00000000000E+00 0. -1.
         -1   -1    0    0    0  501 -0.00000000000E+00 -0.00000000000E+00 -0.52642643622E+02  0.52642643622E+02  0.00000000000E+00 0.  1.
         23    2    1    2    0    0  0.00000000000E+00  0.17763568394E-14 -0.57479702430E+01  0.99537317002E+02  0.99371214715E+02 0.  0.
          5    1    3    3  502    0  0.64280947909E+00  0.23403693817E+02  0.87791835339E+01  0.25442290617E+02  0.47000000000E+01 0. -1.
         -5    1    3    3    0  502 -0.74347115069E+01 -0.26195309376E+02 -0.38046339519E+01  0.27893268149E+02  0.47000000000E+01 0.  1.
          5    1    3    3  503    0  0.17473637562E+02 -0.14741475994E+02 -0.91924733772E+01  0.25084471111E+02  0.47000000000E+01 0.  1.
         -5    1    3    3    0  503 -0.10681735534E+02  0.17533091553E+02 -0.15300464479E+01  0.21117287126E+02  0.47000000000E+01 0. -1.
<mgrwt>
<rscale>  0 0.99371215E+02</rscale>
<asrwt>0</asrwt>
<pdfrwt beam="1">  1        1 0.72145652E-02 0.99371215E+02</pdfrwt>
<pdfrwt beam="2">  1       -1 0.80988682E-02 0.99371215E+02</pdfrwt>
<totfact> 0.72821180E+04</totfact>
</mgrwt>
</event>
<event>
 7    1  0.2566315E-009  0.9282849E+02  0.7546771E-02  0.1296143E+00
          1   -1    0    0  501    0  0.00000000000E+00  0.00000000000E+00  0.33839736985E+02  0.33839736985E+02  0.00000000000E+00 0. -1.
         -1   -1    0    0    0  501 -0.00000000000E+00 -0.00000000000E+00 -0.63661312162E+02  0.63661312162E+02  0.00000000000E+00 0.  1.
         23    2    1    2    0    0  0.00000000000E+00  0.00000000000E+00 -0.29821575177E+02  0.97501049148E+02  0.92828488294E+02 0.  0.
          5    1    3    3  502    0 -0.19140353215E+02  0.13529137383E+02 -0.15233107394E+02  0.28346573698E+02  0.47000000000E+01 0. -1.
         -5    1    3    3    0  502 -0.14196182774E+02 -0.16647908228E+02 -0.53057998607E+01  0.22998390507E+02  0.47000000000E+01 0. -1.
          5    1    3    3  503    0  0.15006663132E+02  0.13271427952E+02  0.39206809746E+01  0.20947374002E+02  0.47000000000E+01 0.  1.
         -5    1    3    3    0  503  0.18329872856E+02 -0.10152657107E+02 -0.13203348897E+02  0.25208710942E+02  0.47000000000E+01 0.  1.
<mgrwt>
<rscale>  0 0.92828488E+02</rscale>
<asrwt>0</asrwt>
<pdfrwt beam="1">  1        1 0.52061134E-02 0.92828488E+02</pdfrwt>
<pdfrwt beam="2">  1       -1 0.97940479E-02 0.92828488E+02</pdfrwt>
<totfact> 0.83938915E+04</totfact>
</mgrwt>
</event>
<event>
 7    1  0.2566315E-009  0.9157677E+02  0.7546771E-02  0.1299078E+00
          2   -1    0    0  501    0  0.00000000000E+00  0.00000000000E+00  0.27956274521E+03  0.27956274521E+03  0.00000000000E+00 0. -1.
         -2   -1    0    0    0  501 -0.00000000000E+00 -0.00000000000E+00 -0.74994837433E+01  0.74994837433E+01  0.00000000000E+00 0.  1.
         23    2    1    2    0    0 -0.17763568394E-14 -0.35527136788E-14  0.27206326147E+03  0.28706222895E+03  0.91576771355E+02 0.  0.
          5    1    3    3  502    0  0.13542375273E+02  0.16785344099E+02  0.60676157390E+02  0.64566475668E+02  0.47000000000E+01 0. -1.
         -5    1    3    3    0  502 -0.11443254760E+02 -0.20301895859E+02  0.57239759032E+02  0.61980602361E+02  0.47000000000E+01 0.  1.
          5    1    3    3  503    0  0.19891925328E+02 -0.36561404170E+01  0.61611786625E+02  0.65016600243E+02  0.47000000000E+01 0. -1.
         -5    1    3    3    0  503 -0.21991045841E+02  0.71726921774E+01  0.92535558420E+02  0.95498550682E+02  0.47000000000E+01 0.  1.
<mgrwt>
<rscale>  0 0.91576771E+02</rscale>
<asrwt>0</asrwt>
<pdfrwt beam="1">  1        2 0.43009645E-01 0.91576771E+02</pdfrwt>
<pdfrwt beam="2">  1       -2 0.11537669E-02 0.91576771E+02</pdfrwt>
<totfact> 0.17295859E+05</totfact>
</mgrwt>
</event>
<event>
 7    1  0.2566315E-009  0.9118089E+02  0.7546771E-02  0.1300017E+00
         -1   -1    0    0    0  501 -0.00000000000E+00  0.00000000000E+00  0.83013541127E+01  0.83013541127E+01  0.00000000000E+00 0.  1.
          1   -1    0    0  501    0  0.00000000000E+00 -0.00000000000E+00 -0.25037949328E+03  0.25037949328E+03  0.00000000000E+00 0. -1.
         23    2    1    2    0    0  0.00000000000E+00  0.00000000000E+00 -0.24207813917E+03  0.25868084739E+03  0.91180893531E+02 0.  0.
          5    1    3    3  502    0 -0.20720347460E+02  0.15868180409E+00 -0.37612830429E+02  0.43199224433E+02  0.47000000000E+01 0.  1.
         -5    1    3    3    0  502  0.10746885939E+02  0.19873869669E+02 -0.51652745302E+02  0.56573512797E+02  0.47000000000E+01 0.  1.
          5    1    3    3  503    0 -0.11347204052E+02 -0.17267715500E+02 -0.85632577013E+02  0.88215425433E+02  0.47000000000E+01 0. -1.
         -5    1    3    3    0  503  0.21320665572E+02 -0.27648359726E+01 -0.67179986424E+02  0.70692684730E+02  0.47000000000E+01 0. -1.
<mgrwt>
<rscale>  0 0.91180894E+02</rscale>
<asrwt>0</asrwt>
<pdfrwt beam="1">  1        1 0.38519922E-01 0.91180894E+02</pdfrwt>
<pdfrwt beam="2">  1       -1 0.12771314E-02 0.91180894E+02</pdfrwt>
<totfact> 0.12369182E+05</totfact>
</mgrwt>
</event>
<event>
 7    1  0.2566315E-009  0.1014043E+03  0.7546771E-02  0.1277370E+00
          2   -1    0    0  501    0  0.00000000000E+00  0.00000000000E+00  0.78763198368E+03  0.78763198368E+03  0.00000000000E+00 0. -1.
         -2   -1    0    0    0  501 -0.00000000000E+00 -0.00000000000E+00 -0.32638438697E+01  0.32638438697E+01  0.00000000000E+00 0.  1.
         23    2    1    2    0    0  0.00000000000E+00  0.00000000000E+00  0.78436813981E+03  0.79089582755E+03  0.10140429619E+03 0.  0.
          5    1    3    3  502    0  0.16118013159E+02 -0.12569483517E+02  0.19280380106E+03  0.19394117141E+03  0.47000000000E+01 0. -1.
         -5    1    3    3    0  503 -0.13089747196E+02  0.26405362389E+02  0.24818077452E+03  0.24996874102E+03  0.47000000000E+01 0.  1.
          5    1    3    3  503    0 -0.24594008698E+02 -0.11555093607E+02  0.20128876933E+03  0.20316900381E+03  0.47000000000E+01 0. -1.
         -5    1    3    3    0  502  0.21565742735E+02 -0.22807852641E+01  0.14209479490E+03  0.14381691131E+03  0.47000000000E+01 0. -1.
<mgrwt>
<rscale>  0 0.10140430E+03</rscale>
<asrwt>0</asrwt>
<pdfrwt beam="1">  1        2 0.12117400E+00 0.10140430E+03</pdfrwt>
<pdfrwt beam="2">  1       -2 0.50213045E-03 0.10140430E+03</pdfrwt>
<totfact> 0.18338436E+05</totfact>
</mgrwt>
</event>
<event>
 7    1  0.2566315E-009  0.9624485E+02  0.7546771E-02  0.1288397E+00
         -4   -1    0    0    0  501 -0.00000000000E+00  0.00000000000E+00  0.10218299906E+03  0.10218299906E+03  0.00000000000E+00 0.  1.
          4   -1    0    0  501    0  0.00000000000E+00 -0.00000000000E+00 -0.22662947554E+02  0.22662947554E+02  0.00000000000E+00 0. -1.
         23    2    1    2    0    0  0.00000000000E+00  0.00000000000E+00  0.79520051507E+02  0.12484594662E+03  0.96244853342E+02 0.  0.
          5    1    3    3  502    0  0.11812415317E+02 -0.22404658065E+02  0.34588329968E+02  0.43127073035E+02  0.47000000000E+01 0. -1.
         -5    1    3    3    0  503 -0.18348226895E+02 -0.85197662557E+01  0.81353806785E+01  0.22305117485E+02  0.47000000000E+01 0. -1.
          5    1    3    3  503    0  0.16754231628E+02  0.12278444357E+02  0.29629192969E+02  0.36488951057E+02  0.47000000000E+01 0.  1.
         -5    1    3    3    0  502 -0.10218420050E+02  0.18645979964E+02  0.71671478916E+01  0.22924805038E+02  0.47000000000E+01 0.  1.
<mgrwt>
<rscale>  0 0.96244853E+02</rscale>
<asrwt>0</asrwt>
<pdfrwt beam="1">  1        4 0.34866074E-02 0.96244853E+02</pdfrwt>
<pdfrwt beam="2">  1       -4 0.15720461E-01 0.96244853E+02</pdfrwt>
<totfact> 0.21586694E+04</totfact>
</mgrwt>
</event>
<event>
 7    1  0.2566315E-009  0.9458625E+02  0.7546771E-02  0.1292111E+00
         -3   -1    0    0    0  501 -0.00000000000E+00  0.00000000000E+00  0.10434216660E+03  0.10434216660E+03  0.00000000000E+00 0.  1.
          3   -1    0    0  501    0  0.00000000000E+00 -0.00000000000E+00 -0.21435627509E+02  0.21435627509E+02  0.00000000000E+00 0. -1.
         23    2    1    2    0    0  0.13322676296E-14 -0.35527136788E-14  0.82906539089E+02  0.12577779411E+03  0.94586253054E+02 0.  0.
          5    1    3    3  502    0  0.16110222779E+02 -0.14178038850E+02  0.20810826852E+02  0.30261139732E+02  0.47000000000E+01 0.  1.
         -5    1    3    3    0  502  0.28054937899E+01  0.20490941952E+02  0.18960271559E+02  0.28448750325E+02  0.47000000000E+01 0.  1.
          5    1    3    3  503    0 -0.12753408807E+02 -0.25783042416E+02  0.17653002977E+02  0.34075405009E+02  0.47000000000E+01 0. -1.
         -5    1    3    3    0  503 -0.61623077613E+01  0.19470139313E+02  0.25482437700E+02  0.32992499041E+02  0.47000000000E+01 0. -1.
<mgrwt>
<rscale>  0 0.94586253E+02</rscale>
<asrwt>0</asrwt>
<pdfrwt beam="1">  1        3 0.32977889E-02 0.94586253E+02</pdfrwt>
<pdfrwt beam="2">  1       -3 0.16052641E-01 0.94586253E+02</pdfrwt>
<totfact> 0.29730165E+04</totfact>
</mgrwt>
</event>
<event>
 7    1  0.2566315E-009  0.1031862E+03  0.7546771E-02  0.1273735E+00
          2   -1    0    0  501    0  0.00000000000E+00  0.00000000000E+00  0.24210732347E+02  0.24210732347E+02  0.00000000000E+00 0. -1.
         -2   -1    0    0    0  501 -0.00000000000E+00 -0.00000000000E+00 -0.10994498452E+03  0.10994498452E+03  0.00000000000E+00 0.  1.
         23    2    1    2    0    0  0.35527136788E-14  0.13322676296E-14 -0.85734252176E+02  0.13415571687E+03  0.10318621212E+03 0.  0.
          5    1    3    3  502    0  0.21621742908E+02  0.34390710668E+01 -0.11317486929E+02  0.25089888134E+02  0.47000000000E+01 0.  1.
         -5    1    3    3    0  503 -0.21949599924E+02 -0.28929914836E+01 -0.17574042820E+02  0.28654691022E+02  0.47000000000E+01 0. -1.
          5    1    3    3  503    0  0.18413388604E+02 -0.15626713630E+02 -0.49539189417E+02  0.55312461045E+02  0.47000000000E+01 0. -1.
         -5    1    3    3    0  502 -0.18085531588E+02  0.15080634047E+02 -0.73035330098E+01  0.25098676668E+02  0.47000000000E+01 0.  1.
<mgrwt>
<rscale>  0 0.10318621E+03</rscale>
<asrwt>0</asrwt>
<pdfrwt beam="1">  1        2 0.37247280E-02 0.10318621E+03</pdfrwt>
<pdfrwt beam="2">  1       -2 0.16914613E-01 0.10318621E+03</pdfrwt>
<totfact> 0.56920700E+04</totfact>
</mgrwt>
</event>
<event>
 7    1  0.2566315E-009  0.1030375E+03  0.7546771E-02  0.1274035E+00
         -1   -1    0    0    0  501 -0.00000000000E+00  0.00000000000E+00  0.18835590004E+03  0.18835590004E+03  0.00000000000E+00 0.  1.
          1   -1    0    0  501    0  0.00000000000E+00 -0.00000000000E+00 -0.14091324862E+02  0.14091324862E+02  0.00000000000E+00 0. -1.
         23    2    1    2    0    0  0.00000000000E+00  0.35527136788E-14  0.17426457518E+03  0.20244722490E+03  0.10303754999E+03 0.  0.
          5    1    3    3  502    0 -0.29172816887E+01  0.28407971086E+02  0.55595436472E+02  0.62677475301E+02  0.47000000000E+01 0.  1.
         -5    1    3    3    0  502  0.97580745355E+01 -0.22558881744E+02  0.40112918596E+02  0.47278530037E+02  0.47000000000E+01 0.  1.
          5    1    3    3  503    0  0.96721409451E+01 -0.19422039848E+02  0.19638720003E+02  0.29640095574E+02  0.47000000000E+01 0. -1.
         -5    1    3    3    0  503 -0.16512933792E+02  0.13572950506E+02  0.58917500106E+02  0.62851123988E+02  0.47000000000E+01 0. -1.
<mgrwt>
<rscale>  0 0.10303755E+03</rscale>
<asrwt>0</asrwt>
<pdfrwt beam="1">  1        1 0.21678963E-02 0.10303755E+03</pdfrwt>
<pdfrwt beam="2">  1       -1 0.28977829E-01 0.10303755E+03</pdfrwt>
<totfact> 0.51287374E+04</totfact>
</mgrwt>
</event>
<event>
 7    1  0.2566315E-009  0.1001312E+03  0.7546771E-02  0.1280020E+00
         -3   -1    0    0    0  501 -0.00000000000E+00  0.00000000000E+00  0.22805487750E+02  0.22805487750E+02  0.00000000000E+00 0.  1.
          3   -1    0    0  501    0  0.00000000000E+00 -0.00000000000E+00 -0.10991063798E+03  0.10991063798E+03  0.00000000000E+00 0. -1.
         23    2    1    2    0    0  0.00000000000E+00 -0.17763568394E-14 -0.87105150228E+02  0.13271612573E+03  0.10013122806E+03 0.  0.
          5    1    3    3  502    0  0.17430375889E+02 -0.13148451214E+02 -0.43591483091E+02  0.48979660790E+02  0.47000000000E+01 0. -1.
         -5    1    3    3    0  502 -0.66092389536E+01  0.23815575060E+02 -0.58093763966E+01  0.25820583052E+02  0.47000000000E+01 0. -1.
          5    1    3    3  503    0  0.92726436860E+01 -0.18583784701E+02 -0.13881571561E+02  0.25419028379E+02  0.47000000000E+01 0.  1.
         -5    1    3    3    0  503 -0.20093780621E+02  0.79166608552E+01 -0.23822719179E+02  0.32496853507E+02  0.47000000000E+01 0.  1.
<mgrwt>
<rscale>  0 0.10013123E+03</rscale>
<asrwt>0</asrwt>
<pdfrwt beam="1">  1        3 0.16909329E-01 0.10013123E+03</pdfrwt>
<pdfrwt beam="2">  1       -3 0.35085366E-02 0.10013123E+03</pdfrwt>
<totfact> 0.25085426E+04</totfact>
</mgrwt>
</event>
<event>
 7    1  0.2566315E-009  0.9935035E+02  0.7546771E-02  0.1281668E+00
         -1   -1    0    0    0  501 -0.00000000000E+00  0.00000000000E+00  0.10565389881E+02  0.10565389881E+02  0.00000000000E+00 0.  1.
          1   -1    0    0  501    0  0.00000000000E+00 -0.00000000000E+00 -0.23355720440E+03  0.23355720440E+03  0.00000000000E+00 0. -1.
         23    2    1    2    0    0  0.00000000000E+00  0.00000000000E+00 -0.22299181452E+03  0.24412259428E+03  0.99350348242E+02 0.  0.
          5    1    3    3  502    0  0.22127985842E+02  0.93921477322E+01 -0.29464758677E+02  0.38316082789E+02  0.47000000000E+01 0.  1.
         -5    1    3    3    0  502  0.18522816477E+02 -0.76289667381E+01 -0.46032629284E+02  0.50422106486E+02  0.47000000000E+01 0. -1.
          5    1    3    3  503    0 -0.19543288593E+02  0.77904843544E+01 -0.10041213587E+03  0.10270014024E+03  0.47000000000E+01 0. -1.
         -5    1    3    3    0  503 -0.21107513726E+02 -0.95536653485E+01 -0.47082290687E+02  0.52684264763E+02  0.47000000000E+01 0.  1.
<mgrwt>
<rscale>  0 0.99350348E+02</rscale>
<asrwt>0</asrwt>
<pdfrwt beam="1">  1        1 0.35931876E-01 0.99350348E+02</pdfrwt>
<pdfrwt beam="2">  1       -1 0.16254447E-02 0.99350348E+02</pdfrwt>
<totfact> 0.96886520E+04</totfact>
</mgrwt>
</event>
<event>
 7    1  0.2566315E-009  0.9227564E+02  0.7546771E-02  0.1297433E+00
          1   -1    0    0  501    0  0.00000000000E+00  0.00000000000E+00  0.20169865583E+03  0.20169865583E+03  0.00000000000E+00 0.  1.
         -1   -1    0    0    0  501 -0.00000000000E+00 -0.00000000000E+00 -0.10553854966E+02  0.10553854966E+02  0.00000000000E+00 0. -1.
         23    2    1    2    0    0  0.17763568394E-14  0.00000000000E+00  0.19114480087E+03  0.21225251080E+03  0.92275638397E+02 0.  0.
          5    1    3    3  502    0  0.70886936021E+01 -0.22196444861E+02  0.63491805487E+02  0.67795509478E+02  0.47000000000E+01 0. -1.
         -5    1    3    3    0  502 -0.80177816727E+01  0.21713054389E+02  0.46657934789E+02  0.52295262048E+02  0.47000000000E+01 0.  1.
          5    1    3    3  503    0  0.17198333414E+02 -0.11884165618E+02  0.28677768336E+02  0.35798330427E+02  0.47000000000E+01 0.  1.
         -5    1    3    3    0  503 -0.16269245343E+02  0.12367556090E+02  0.52317292254E+02  0.56363408844E+02  0.47000000000E+01 0. -1.
<mgrwt>
<rscale>  0 0.92275638E+02</rscale>
<asrwt>0</asrwt>
<pdfrwt beam="1">  1        1 0.31030560E-01 0.92275638E+02</pdfrwt>
<pdfrwt beam="2">  1       -1 0.16236701E-02 0.92275638E+02</pdfrwt>
<totfact> 0.11484609E+05</totfact>
</mgrwt>
</event>
<event>
 7    1  0.2566315E-009  0.9739576E+02  0.7546771E-02  0.1285870E+00
          3   -1    0    0  501    0  0.00000000000E+00  0.00000000000E+00  0.31420402529E+03  0.31420402529E+03  0.00000000000E+00 0.  1.
         -3   -1    0    0    0  501 -0.00000000000E+00 -0.00000000000E+00 -0.75475917830E+01  0.75475917830E+01  0.00000000000E+00 0. -1.
         23    2    1    2    0    0  0.00000000000E+00  0.17763568394E-14  0.30665643351E+03  0.32175161707E+03  0.97395764168E+02 0.  0.
          5    1    3    3  502    0 -0.21868639038E+02 -0.18898196528E+01  0.75035765564E+02  0.78321548155E+02  0.47000000000E+01 0. -1.
         -5    1    3    3    0  502  0.41082045917E+01 -0.24922374714E+02  0.80637261175E+02  0.84631318057E+02  0.47000000000E+01 0.  1.
          5    1    3    3  503    0 -0.33122336248E+01  0.23983639125E+02  0.10587500076E+03  0.10870966665E+03  0.47000000000E+01 0. -1.
         -5    1    3    3    0  503  0.21072668071E+02  0.28285552409E+01  0.45108406007E+02  0.50089084209E+02  0.47000000000E+01 0.  1.
<mgrwt>
<rscale>  0 0.97395764E+02</rscale>
<asrwt>0</asrwt>
<pdfrwt beam="1">  1        3 0.48339071E-01 0.97395764E+02</pdfrwt>
<pdfrwt beam="2">  1       -3 0.11611682E-02 0.97395764E+02</pdfrwt>
<totfact> 0.19432098E+04</totfact>
</mgrwt>
</event>
<event>
 7    1  0.2566315E-009  0.1005866E+03  0.7546771E-02  0.1279067E+00
          4   -1    0    0  501    0  0.00000000000E+00  0.00000000000E+00  0.11790356116E+03  0.11790356116E+03  0.00000000000E+00 0. -1.
         -4   -1    0    0    0  501 -0.00000000000E+00 -0.00000000000E+00 -0.21453257843E+02  0.21453257843E+02  0.00000000000E+00 0.  1.
         23    2    1    2    0    0 -0.35527136788E-14  0.17763568394E-14  0.96450303314E+02  0.13935681900E+03  0.10058658952E+03 0.  0.
          5    1    3    3  502    0 -0.25518529337E+01 -0.20529405089E+02  0.22620616271E+02  0.31012105817E+02  0.47000000000E+01 0.  1.
         -5    1    3    3    0  503  0.14032128390E+02  0.14627892201E+02  0.69152810732E+01  0.21926854990E+02  0.47000000000E+01 0.  1.
          5    1    3    3  503    0 -0.28182366295E+02  0.17765746880E+02  0.42362446899E+02  0.54097453170E+02  0.47000000000E+01 0. -1.
         -5    1    3    3    0  502  0.16702090839E+02 -0.11864233993E+02  0.24551959071E+02  0.32320405023E+02  0.47000000000E+01 0. -1.
<mgrwt>
<rscale>  0 0.10058659E+03</rscale>
<asrwt>0</asrwt>
<pdfrwt beam="1">  1        4 0.18139009E-01 0.10058659E+03</pdfrwt>
<pdfrwt beam="2">  1       -4 0.33005013E-02 0.10058659E+03</pdfrwt>
<totfact> 0.18547712E+04</totfact>
</mgrwt>
</event>
<event>
 7    1  0.2566315E-009  0.1008837E+03  0.7546771E-02  0.1278449E+00
         -1   -1    0    0    0  501 -0.00000000000E+00  0.00000000000E+00  0.12874535693E+02  0.12874535693E+02  0.00000000000E+00 0.  1.
          1   -1    0    0  501    0  0.00000000000E+00 -0.00000000000E+00 -0.19762874101E+03  0.19762874101E+03  0.00000000000E+00 0. -1.
         23    2    1    2    0    0  0.00000000000E+00 -0.17763568394E-14 -0.18475420532E+03  0.21050327670E+03  0.10088366132E+03 0.  0.
          5    1    3    3  502    0  0.19353896253E+02 -0.15172485492E+02 -0.36535290134E+02  0.44291026646E+02  0.47000000000E+01 0. -1.
         -5    1    3    3    0  502  0.23678721521E+02  0.12748273036E+02 -0.60167330826E+02  0.66071158738E+02  0.47000000000E+01 0.  1.
          5    1    3    3  503    0 -0.24578076484E+02 -0.57466194917E+01 -0.60025055135E+02  0.65285547582E+02  0.47000000000E+01 0. -1.
         -5    1    3    3    0  503 -0.18454541290E+02  0.81708319477E+01 -0.28026529222E+02  0.34855543737E+02  0.47000000000E+01 0.  1.
<mgrwt>
<rscale>  0 0.10088366E+03</rscale>
<asrwt>0</asrwt>
<pdfrwt beam="1">  1        1 0.30404420E-01 0.10088366E+03</pdfrwt>
<pdfrwt beam="2">  1       -1 0.19806979E-02 0.10088366E+03</pdfrwt>
<totfact> 0.89905807E+04</totfact>
</mgrwt>
</event>
<event>
 7    1  0.2566315E-009  0.9846156E+02  0.7546771E-02  0.1283565E+00
         -2   -1    0    0    0  501 -0.00000000000E+00  0.00000000000E+00  0.61857982708E+01  0.61857982708E+01  0.00000000000E+00 0.  1.
          2   -1    0    0  501    0  0.00000000000E+00 -0.00000000000E+00 -0.39181192439E+03  0.39181192439E+03  0.00000000000E+00 0. -1.
         23    2    1    2    0    0  0.35527136788E-14 -0.88817841970E-15 -0.38562612612E+03  0.39799772266E+03  0.98461556444E+02 0.  0.
          5    1    3    3  502    0  0.18767925207E+02  0.94874410573E+01 -0.93603646302E+02  0.96051960706E+02  0.47000000000E+01 0. -1.
         -5    1    3    3    0  503 -0.22350980689E+02  0.58040083022E+01 -0.81255398235E+02  0.84603679545E+02  0.47000000000E+01 0. -1.
          5    1    3    3  503    0 -0.17058383509E+02 -0.13482003046E+02 -0.16923510847E+03  0.17069084566E+03  0.47000000000E+01 0.  1.
         -5    1    3    3    0  502  0.20641438990E+02 -0.18094463133E+01 -0.41531973112E+02  0.46651236748E+02  0.47000000000E+01 0.  1.
<mgrwt>
<rscale>  0 0.98461556E+02</rscale>
<asrwt>0</asrwt>
<pdfrwt beam="1">  1        2 0.60278764E-01 0.98461556E+02</pdfrwt>
<pdfrwt beam="2">  1       -2 0.95166117E-03 0.98461556E+02</pdfrwt>
<totfact> 0.16141460E+05</totfact>
</mgrwt>
</event>
<event>
 7    1  0.2566315E-009  0.9459633E+02  0.7546771E-02  0.1292088E+00
          1   -1    0    0  501    0  0.00000000000E+00  0.00000000000E+00  0.47812481154E+03  0.47812481154E+03  0.00000000000E+00 0. -1.
         -1   -1    0    0    0  501 -0.00000000000E+00 -0.00000000000E+00 -0.46789380566E+01  0.46789380566E+01  0.00000000000E+00 0.  1.
         23    2    1    2    0    0  0.35527136788E-14  0.00000000000E+00  0.47344587349E+03  0.48280374960E+03  0.94596329243E+02 0.  0.
          5    1    3    3  502    0 -0.24814598871E+02  0.33214128499E+01  0.16607552412E+03  0.16801775445E+03  0.47000000000E+01 0. -1.
         -5    1    3    3    0  503  0.23056646459E+02 -0.37699274249E+01  0.10562151770E+03  0.10827657318E+03  0.47000000000E+01 0.  1.
          5    1    3    3  503    0 -0.30829020491E+01 -0.20925867706E+02  0.10056936240E+03  0.10287702794E+03  0.47000000000E+01 0.  1.
         -5    1    3    3    0  502  0.48408544608E+01  0.21374382281E+02  0.10117946927E+03  0.10363239403E+03  0.47000000000E+01 0. -1.
<mgrwt>
<rscale>  0 0.94596329E+02</rscale>
<asrwt>0</asrwt>
<pdfrwt beam="1">  1        1 0.73557625E-01 0.94596329E+02</pdfrwt>
<pdfrwt beam="2">  1       -1 0.71983700E-03 0.94596329E+02</pdfrwt>
<totfact> 0.12559054E+05</totfact>
</mgrwt>
</event>
<event>
 7    1  0.2566315E-009  0.9901191E+02  0.7546771E-02  0.1282388E+00
          2   -1    0    0  501    0  0.00000000000E+00  0.00000000000E+00  0.20817688586E+03  0.20817688586E+03  0.00000000000E+00 0. -1.
         -2   -1    0    0    0  501 -0.00000000000E+00 -0.00000000000E+00 -0.11772870670E+02  0.11772870670E+02  0.00000000000E+00 0.  1.
         23    2    1    2    0    0 -0.35527136788E-14  0.17763568394E-14  0.19640401519E+03  0.21994975653E+03  0.99011909460E+02 0.  0.
          5    1    3    3  502    0  0.22951064292E+02  0.80896802522E+01  0.30641651255E+02  0.39410595914E+02  0.47000000000E+01 0.  1.
         -5    1    3    3    0  502 -0.28800085692E+01 -0.20028458343E+02  0.43606730206E+02  0.48301868620E+02  0.47000000000E+01 0. -1.
          5    1    3    3  503    0  0.28008520279E+01  0.22932414124E+02  0.73086145508E+02  0.76794629075E+02  0.47000000000E+01 0. -1.
         -5    1    3    3    0  503 -0.22871907751E+02 -0.10993636033E+02  0.49069488222E+02  0.55442662921E+02  0.47000000000E+01 0.  1.
<mgrwt>
<rscale>  0 0.99011909E+02</rscale>
<asrwt>0</asrwt>
<pdfrwt beam="1">  1        2 0.32027210E-01 0.99011909E+02</pdfrwt>
<pdfrwt beam="2">  1       -2 0.18112110E-02 0.99011909E+02</pdfrwt>
<totfact> 0.12557834E+05</totfact>
</mgrwt>
</event>
<event>
 7    1  0.2566315E-009  0.9699716E+02  0.7546771E-02  0.1286740E+00
          1   -1    0    0  501    0  0.00000000000E+00  0.00000000000E+00  0.10329495209E+02  0.10329495209E+02  0.00000000000E+00 0. -1.
         -1   -1    0    0    0  501 -0.00000000000E+00 -0.00000000000E+00 -0.22770832789E+03  0.22770832789E+03  0.00000000000E+00 0.  1.
         23    2    1    2    0    0  0.00000000000E+00 -0.35527136788E-14 -0.21737883268E+03  0.23803782310E+03  0.96997156290E+02 0.  0.
          5    1    3    3  502    0  0.54129150266E+00  0.23356238989E+02 -0.56782089575E+02  0.61580050282E+02  0.47000000000E+01 0. -1.
         -5    1    3    3    0  503  0.85603978917E+01  0.18824462327E+02 -0.54938772703E+02  0.58889723553E+02  0.47000000000E+01 0.  1.
          5    1    3    3  503    0  0.26453017247E+01 -0.23201066305E+02 -0.28680204214E+02  0.37281781243E+02  0.47000000000E+01 0. -1.
         -5    1    3    3    0  502 -0.11746991119E+02 -0.18979635011E+02 -0.76977766191E+02  0.80286268024E+02  0.47000000000E+01 0.  1.
<mgrwt>
<rscale>  0 0.96997156E+02</rscale>
<asrwt>0</asrwt>
<pdfrwt beam="1">  1        1 0.15891532E-02 0.96997156E+02</pdfrwt>
<pdfrwt beam="2">  1       -1 0.35032048E-01 0.96997156E+02</pdfrwt>
<totfact> 0.56793911E+04</totfact>
</mgrwt>
</event>
<event>
 7    1  0.2566315E-009  0.9777375E+02  0.7546771E-02  0.1285048E+00
         -3   -1    0    0    0  501 -0.00000000000E+00  0.00000000000E+00  0.10167002834E+03  0.10167002834E+03  0.00000000000E+00 0.  1.
          3   -1    0    0  501    0  0.00000000000E+00 -0.00000000000E+00 -0.23506695770E+02  0.23506695770E+02  0.00000000000E+00 0. -1.
         23    2    1    2    0    0  0.88817841970E-15  0.00000000000E+00  0.78163332574E+02  0.12517672411E+03  0.97773747504E+02 0.  0.
          5    1    3    3  502    0  0.21645310413E+01  0.22874177968E+02  0.64277785829E+01  0.24317062936E+02  0.47000000000E+01 0. -1.
         -5    1    3    3    0  502 -0.72755540156E+01 -0.18701182848E+02  0.19580410709E+02  0.28427986381E+02  0.47000000000E+01 0. -1.
          5    1    3    3  503    0 -0.80646056067E+01  0.19646433496E+02  0.29810854697E+02  0.36902537453E+02  0.47000000000E+01 0.  1.
         -5    1    3    3    0  503  0.13175628581E+02 -0.23819428615E+02  0.22344288585E+02  0.35529137345E+02  0.47000000000E+01 0.  1.
<mgrwt>
<rscale>  0 0.97773748E+02</rscale>
<asrwt>0</asrwt>
<pdfrwt beam="1">  1        3 0.36164148E-02 0.97773748E+02</pdfrwt>
<pdfrwt beam="2">  1       -3 0.15641543E-01 0.97773748E+02</pdfrwt>
<totfact> 0.27187145E+04</totfact>
</mgrwt>
</event>
<event>
 7    1  0.2566315E-009  0.9166797E+02  0.7546771E-02  0.1298862E+00
         -2   -1    0    0    0  501 -0.00000000000E+00  0.00000000000E+00  0.17010217436E+03  0.17010217436E+03  0.00000000000E+00 0. -1.
          2   -1    0    0  501    0  0.00000000000E+00 -0.00000000000E+00 -0.12349953666E+02  0.12349953666E+02  0.00000000000E+00 0.  1.
         23    2    1    2    0    0  0.00000000000E+00  0.00000000000E+00  0.15775222069E+03  0.18245212803E+03  0.91667965438E+02 0.  0.
          5    1    3    3  502    0  0.10162668110E+02 -0.20413652885E+02  0.33262374301E+02  0.40601386569E+02  0.47000000000E+01 0.  1.
         -5    1    3    3    0  503 -0.11022720204E+02  0.18824339795E+02  0.29251778955E+02  0.36791475935E+02  0.47000000000E+01 0. -1.
          5    1    3    3  503    0  0.21224501405E+02  0.61935444598E+01  0.55465298330E+02  0.59894313350E+02  0.47000000000E+01 0. -1.
         -5    1    3    3    0  502 -0.20364449311E+02 -0.46042313696E+01  0.39772769107E+02  0.45164952172E+02  0.47000000000E+01 0.  1.
<mgrwt>
<rscale>  0 0.91667965E+02</rscale>
<asrwt>0</asrwt>
<pdfrwt beam="1">  1        2 0.18999930E-02 0.91667965E+02</pdfrwt>
<pdfrwt beam="2">  1       -2 0.26169564E-01 0.91667965E+02</pdfrwt>
<totfact> 0.65713599E+04</totfact>
</mgrwt>
</event>
<event>
 7    1  0.2566315E-009  0.9540321E+02  0.7546771E-02  0.1290271E+00
          3   -1    0    0  501    0  0.00000000000E+00  0.00000000000E+00  0.16067722777E+03  0.16067722777E+03  0.00000000000E+00 0. -1.
         -3   -1    0    0    0  501 -0.00000000000E+00 -0.00000000000E+00 -0.14161577103E+02  0.14161577103E+02  0.00000000000E+00 0.  1.
         23    2    1    2    0    0 -0.88817841970E-15  0.00000000000E+00  0.14651565067E+03  0.17483880487E+03  0.95403206441E+02 0.  0.
          5    1    3    3  502    0  0.12994469813E+02  0.18468762582E+02  0.33999478497E+02  0.41085349884E+02  0.47000000000E+01 0.  1.
         -5    1    3    3    0  503 -0.48613160630E+01  0.19772741513E+02  0.17085479048E+02  0.26992541472E+02  0.47000000000E+01 0.  1.
          5    1    3    3  503    0  0.65810421437E+01 -0.22857063587E+02  0.64608112592E+02  0.69007634971E+02  0.47000000000E+01 0. -1.
         -5    1    3    3    0  502 -0.14714195893E+02 -0.15384440507E+02  0.30822580528E+02  0.37753278545E+02  0.47000000000E+01 0. -1.
<mgrwt>
<rscale>  0 0.95403206E+02</rscale>
<asrwt>0</asrwt>
<pdfrwt beam="1">  1        3 0.24719572E-01 0.95403206E+02</pdfrwt>
<pdfrwt beam="2">  1       -3 0.21787043E-02 0.95403206E+02</pdfrwt>
<totfact> 0.26398971E+04</totfact>
</mgrwt>
</event>
<event>
 7    1  0.2566315E-009  0.9063180E+02  0.7546771E-02  0.1301329E+00
          3   -1    0    0  501    0  0.00000000000E+00  0.00000000000E+00  0.57682445084E+02  0.57682445084E+02  0.00000000000E+00 0. -1.
         -3   -1    0    0    0  501 -0.00000000000E+00 -0.00000000000E+00 -0.35600621901E+02  0.35600621901E+02  0.00000000000E+00 0.  1.
         23    2    1    2    0    0  0.00000000000E+00 -0.88817841970E-15  0.22081823183E+02  0.93283066984E+02  0.90631802757E+02 0.  0.
          5    1    3    3  502    0  0.56244543437E+01  0.19643933940E+02  0.67896805620E+01  0.22038792831E+02  0.47000000000E+01 0.  1.
         -5    1    3    3    0  503 -0.19994669596E+02  0.18531545190E+01  0.83579794312E+01  0.22252344014E+02  0.47000000000E+01 0. -1.
          5    1    3    3  503    0  0.21413694625E+02  0.33853760061E+01  0.40561579531E+01  0.22551042227E+02  0.47000000000E+01 0. -1.
         -5    1    3    3    0  502 -0.70434793722E+01 -0.24882464465E+02  0.28780052364E+01  0.26440887914E+02  0.47000000000E+01 0.  1.
<mgrwt>
<rscale>  0 0.90631803E+02</rscale>
<asrwt>0</asrwt>
<pdfrwt beam="1">  1        3 0.88742223E-02 0.90631803E+02</pdfrwt>
<pdfrwt beam="2">  1       -3 0.54770188E-02 0.90631803E+02</pdfrwt>
<totfact> 0.35755943E+04</totfact>
</mgrwt>
</event>
<event>
 7    1  0.2566315E-009  0.1023908E+03  0.7546771E-02  0.1275347E+00
         -2   -1    0    0    0  501 -0.00000000000E+00  0.00000000000E+00  0.84546512851E+02  0.84546512851E+02  0.00000000000E+00 0. -1.
          2   -1    0    0  501    0  0.00000000000E+00 -0.00000000000E+00 -0.31000300365E+02  0.31000300365E+02  0.00000000000E+00 0.  1.
         23    2    1    2    0    0  0.00000000000E+00  0.88817841970E-15  0.53546212486E+02  0.11554681322E+03  0.10239076703E+03 0.  0.
          5    1    3    3  502    0 -0.21992211254E+02 -0.72372579877E+01  0.10643061141E+02  0.25911387641E+02  0.47000000000E+01 0. -1.
         -5    1    3    3    0  503  0.25530600781E+02 -0.18705356938E+02  0.15037634217E+02  0.35354241574E+02  0.47000000000E+01 0.  1.
          5    1    3    3  503    0 -0.19036152100E+02  0.75908018176E+01  0.18722710072E+02  0.28153600684E+02  0.47000000000E+01 0. -1.
         -5    1    3    3    0  502  0.15497762573E+02  0.18351813108E+02  0.91428070562E+01  0.26127583317E+02  0.47000000000E+01 0.  1.
<mgrwt>
<rscale>  0 0.10239077E+03</rscale>
<asrwt>0</asrwt>
<pdfrwt beam="1">  1        2 0.47692770E-02 0.10239077E+03</pdfrwt>
<pdfrwt beam="2">  1       -2 0.13007156E-01 0.10239077E+03</pdfrwt>
<totfact> 0.62979498E+04</totfact>
</mgrwt>
</event>
<event>
 7    1  0.2566315E-009  0.9196664E+02  0.7546771E-02  0.1298158E+00
         -2   -1    0    0    0  501 -0.00000000000E+00  0.00000000000E+00  0.25607382544E+02  0.25607382544E+02  0.00000000000E+00 0.  1.
          2   -1    0    0  501    0  0.00000000000E+00 -0.00000000000E+00 -0.82572512482E+02  0.82572512482E+02  0.00000000000E+00 0. -1.
         23    2    1    2    0    0  0.00000000000E+00  0.00000000000E+00 -0.56965129938E+02  0.10817989503E+03  0.91966644274E+02 0.  0.
          5    1    3    3  502    0 -0.20633494211E+02  0.16141922920E+01 -0.60582597479E+01  0.22071230398E+02  0.47000000000E+01 0. -1.
         -5    1    3    3    0  503 -0.17473331163E+02  0.13060466057E+02 -0.27042943208E+02  0.35061429704E+02  0.47000000000E+01 0.  1.
          5    1    3    3  503    0  0.19192632937E+02 -0.57095448207E+01 -0.21016728711E+02  0.29406613998E+02  0.47000000000E+01 0.  1.
         -5    1    3    3    0  502  0.18914192436E+02 -0.89651135287E+01 -0.28471982712E+01  0.21640620926E+02  0.47000000000E+01 0.  1.
<mgrwt>
<rscale>  0 0.91966644E+02</rscale>
<asrwt>0</asrwt>
<pdfrwt beam="1">  1        2 0.12703464E-01 0.91966644E+02</pdfrwt>
<pdfrwt beam="2">  1       -2 0.39395973E-02 0.91966644E+02</pdfrwt>
<totfact> 0.11315879E+05</totfact>
</mgrwt>
</event>
<event>
 7    1  0.2566315E-009  0.9794780E+02  0.7546771E-02  0.1284672E+00
         -4   -1    0    0    0  501 -0.00000000000E+00  0.00000000000E+00  0.92428520597E+02  0.92428520597E+02  0.00000000000E+00 0.  1.
          4   -1    0    0  501    0  0.00000000000E+00 -0.00000000000E+00 -0.25949166272E+02  0.25949166272E+02  0.00000000000E+00 0. -1.
         23    2    1    2    0    0  0.88817841970E-15  0.00000000000E+00  0.66479354325E+02  0.11837768687E+03  0.97947803431E+02 0.  0.
          5    1    3    3  502    0  0.69579035054E+01 -0.19741518048E+02  0.97046667346E+01  0.23545923478E+02  0.47000000000E+01 0.  1.
         -5    1    3    3    0  502 -0.22936646182E+02  0.82678585926E+01  0.21030677428E+02  0.32539616115E+02  0.47000000000E+01 0. -1.
          5    1    3    3  503    0  0.21417198347E+02 -0.99227725463E+01  0.57340124727E+01  0.24741194375E+02  0.47000000000E+01 0. -1.
         -5    1    3    3    0  503 -0.54384556704E+01  0.21396432001E+02  0.30009997689E+02  0.37550952901E+02  0.47000000000E+01 0.  1.
<mgrwt>
<rscale>  0 0.97947803E+02</rscale>
<asrwt>0</asrwt>
<pdfrwt beam="1">  1        4 0.39921795E-02 0.97947803E+02</pdfrwt>
<pdfrwt beam="2">  1       -4 0.14219772E-01 0.97947803E+02</pdfrwt>
<totfact> 0.20875122E+04</totfact>
</mgrwt>
</event>
<event>
 7    1  0.2566315E-009  0.8817279E+02  0.7546771E-02  0.1307338E+00
         -2   -1    0    0    0  501 -0.00000000000E+00  0.00000000000E+00  0.34886215744E+01  0.34886215744E+01  0.00000000000E+00 0.  1.
          2   -1    0    0  501    0  0.00000000000E+00 -0.00000000000E+00 -0.55712843270E+03  0.55712843270E+03  0.00000000000E+00 0. -1.
         23    2    1    2    0    0  0.00000000000E+00 -0.17763568394E-14 -0.55363981112E+03  0.56061705427E+03  0.88172791041E+02 0.  0.
          5    1    3    3  502    0  0.20738449167E+02  0.75262509728E+00 -0.16000536296E+03  0.16141392720E+03  0.47000000000E+01 0. -1.
         -5    1    3    3    0  503  0.17961227079E+02  0.10072167386E+02 -0.12213598753E+03  0.12394895596E+03  0.47000000000E+01 0.  1.
          5    1    3    3  503    0 -0.15152272054E+02 -0.13748724195E+02 -0.13669869241E+03  0.13830126996E+03  0.47000000000E+01 0. -1.
         -5    1    3    3    0  502 -0.23547404192E+02  0.29239317125E+01 -0.13479976822E+03  0.13695290115E+03  0.47000000000E+01 0.  1.
<mgrwt>
<rscale>  0 0.88172791E+02</rscale>
<asrwt>0</asrwt>
<pdfrwt beam="1">  1        2 0.85712062E-01 0.88172791E+02</pdfrwt>
<pdfrwt beam="2">  1       -2 0.53671104E-03 0.88172791E+02</pdfrwt>
<totfact> 0.24354789E+05</totfact>
</mgrwt>
</event>
<event>
 7    1  0.2566315E-009  0.1008361E+03  0.7546771E-02  0.1278547E+00
         -4   -1    0    0    0  501 -0.00000000000E+00  0.00000000000E+00  0.88738223166E+01  0.88738223166E+01  0.00000000000E+00 0.  1.
          4   -1    0    0  501    0  0.00000000000E+00 -0.00000000000E+00 -0.28645832237E+03  0.28645832237E+03  0.00000000000E+00 0. -1.
         23    2    1    2    0    0  0.00000000000E+00  0.17763568394E-14 -0.27758450005E+03  0.29533214468E+03  0.10083610968E+03 0.  0.
          5    1    3    3  502    0 -0.23033548325E+02 -0.11328987411E+02 -0.53595811972E+02  0.59611168124E+02  0.47000000000E+01 0. -1.
         -5    1    3    3    0  502  0.15201628303E+02  0.15338405806E+02 -0.86927884158E+02  0.89693384594E+02  0.47000000000E+01 0.  1.
          5    1    3    3  503    0 -0.12577065206E+02  0.16325282879E+02 -0.54248687287E+02  0.58221194617E+02  0.47000000000E+01 0.  1.
         -5    1    3    3    0  503  0.20408985228E+02 -0.20334701274E+02 -0.82812116633E+02  0.87806397347E+02  0.47000000000E+01 0. -1.
<mgrwt>
<rscale>  0 0.10083611E+03</rscale>
<asrwt>0</asrwt>
<pdfrwt beam="1">  1        4 0.44070507E-01 0.10083611E+03</pdfrwt>
<pdfrwt beam="2">  1       -4 0.13652036E-02 0.10083611E+03</pdfrwt>
<totfact> 0.13715236E+04</totfact>
</mgrwt>
</event>
<event>
 7    1  0.2566315E-009  0.9186428E+02  0.7546771E-02  0.1298399E+00
          1   -1    0    0  501    0  0.00000000000E+00  0.00000000000E+00  0.59278348904E+03  0.59278348904E+03  0.00000000000E+00 0. -1.
         -1   -1    0    0    0  501 -0.00000000000E+00 -0.00000000000E+00 -0.35590763271E+01  0.35590763271E+01  0.00000000000E+00 0.  1.
         23    2    1    2    0    0  0.00000000000E+00  0.00000000000E+00  0.58922441271E+03  0.59634256537E+03  0.91864284310E+02 0.  0.
          5    1    3    3  502    0 -0.11229268256E+01  0.22823324889E+02  0.10732719014E+03  0.10983342327E+03  0.47000000000E+01 0. -1.
         -5    1    3    3    0  503 -0.13860089480E+02  0.15587514911E+02  0.12581113739E+03  0.12761506570E+03  0.47000000000E+01 0.  1.
          5    1    3    3  503    0  0.17944724999E+00 -0.20772972333E+02  0.16626136076E+03  0.16762004254E+03  0.47000000000E+01 0.  1.
         -5    1    3    3    0  502  0.14803569055E+02 -0.17637867467E+02  0.18982472442E+03  0.19127403386E+03  0.47000000000E+01 0. -1.
<mgrwt>
<rscale>  0 0.91864284E+02</rscale>
<asrwt>0</asrwt>
<pdfrwt beam="1">  1        1 0.91197381E-01 0.91864284E+02</pdfrwt>
<pdfrwt beam="2">  1       -1 0.54755068E-03 0.91864284E+02</pdfrwt>
<totfact> 0.13869408E+05</totfact>
</mgrwt>
</event>
<event>
 7    1  0.2566315E-009  0.9512039E+02  0.7546771E-02  0.1290905E+00
         -2   -1    0    0    0  501 -0.00000000000E+00  0.00000000000E+00  0.67113951406E+01  0.67113951406E+01  0.00000000000E+00 0.  1.
          2   -1    0    0  501    0  0.00000000000E+00 -0.00000000000E+00 -0.33703456528E+03  0.33703456528E+03  0.00000000000E+00 0. -1.
         23    2    1    2    0    0  0.00000000000E+00 -0.17763568394E-14 -0.33032317014E+03  0.34374596042E+03  0.95120389899E+02 0.  0.
          5    1    3    3  502    0  0.24564011815E+02 -0.94842161871E+01 -0.91842181724E+02  0.95657813988E+02  0.47000000000E+01 0. -1.
         -5    1    3    3    0  503  0.15914654051E+02  0.16156414631E+02 -0.89403373817E+02  0.92354529922E+02  0.47000000000E+01 0.  1.
          5    1    3    3  503    0 -0.19021200350E+02 -0.71329668225E+01 -0.96915013600E+02  0.99132714780E+02  0.47000000000E+01 0.  1.
         -5    1    3    3    0  502 -0.21457465516E+02  0.46076837897E+00 -0.52162600998E+02  0.56600901731E+02  0.47000000000E+01 0.  1.
<mgrwt>
<rscale>  0 0.95120390E+02</rscale>
<asrwt>0</asrwt>
<pdfrwt beam="1">  1        2 0.51851488E-01 0.95120390E+02</pdfrwt>
<pdfrwt beam="2">  1       -2 0.10325220E-02 0.95120390E+02</pdfrwt>
<totfact> 0.16752746E+05</totfact>
</mgrwt>
</event>
<event>
 7    1  0.2566315E-009  0.9247146E+02  0.7546771E-02  0.1296975E+00
          1   -1    0    0  501    0  0.00000000000E+00  0.00000000000E+00  0.69240004240E+03  0.69240004240E+03  0.00000000000E+00 0. -1.
         -1   -1    0    0    0  501 -0.00000000000E+00 -0.00000000000E+00 -0.30874390284E+01  0.30874390284E+01  0.00000000000E+00 0.  1.
         23    2    1    2    0    0  0.00000000000E+00 -0.39968028887E-14  0.68931260337E+03  0.69548748143E+03  0.92471464012E+02 0.  0.
          5    1    3    3  502    0 -0.10138078366E+02 -0.17420068617E+02  0.19366999477E+03  0.19477267852E+03  0.47000000000E+01 0. -1.
         -5    1    3    3    0  502  0.20517322264E+02 -0.20815730728E+01  0.11500623942E+03  0.11693510407E+03  0.47000000000E+01 0. -1.
          5    1    3    3  503    0 -0.23234115293E+02 -0.11288557315E+01  0.15826841094E+03  0.16003774033E+03  0.47000000000E+01 0.  1.
         -5    1    3    3    0  503  0.12854871394E+02  0.20630497421E+02  0.22236795824E+03  0.22374195851E+03  0.47000000000E+01 0.  1.
<mgrwt>
<rscale>  0 0.92471464E+02</rscale>
<asrwt>0</asrwt>
<pdfrwt beam="1">  1        1 0.10652296E+00 0.92471464E+02</pdfrwt>
<pdfrwt beam="2">  1       -1 0.47499117E-03 0.92471464E+02</pdfrwt>
<totfact> 0.13697593E+05</totfact>
</mgrwt>
</event>
<event>
 7    1  0.3399196E-009  0.9142581E+02  0.7546771E-02  0.1299435E+00
          2   -1    0    0  501    0  0.00000000000E+00  0.00000000000E+00  0.78839122931E+02  0.78839122931E+02  0.00000000000E+00 0. -1.
         -2   -1    0    0    0  501 -0.00000000000E+00 -0.00000000000E+00 -0.26505492545E+02  0.26505492545E+02  0.00000000000E+00 0.  1.
         23    2    1    2    0    0  0.35527136788E-14  0.11102230246E-14  0.52333630386E+02  0.10534461548E+03  0.91425812222E+02 0.  0.
          5    1    3    3  502    0  0.97814270835E+01 -0.21149395098E+02  0.13463786164E+02  0.27319164823E+02  0.47000000000E+01 0. -1.
         -5    1    3    3    0  503  0.20800218469E+02  0.50390209135E+00  0.12076067115E+02  0.24511719700E+02  0.47000000000E+01 0.  1.
          5    1    3    3  503    0 -0.23244610554E+02 -0.64286536209E-01  0.15832017294E+02  0.28514186367E+02  0.47000000000E+01 0.  1.
         -5    1    3    3    0  502 -0.73370349987E+01  0.20709779542E+02  0.10961759812E+02  0.24999544585E+02  0.47000000000E+01 0. -1.
<mgrwt>
<rscale>  0 0.91425812E+02</rscale>
<asrwt>0</asrwt>
<pdfrwt beam="1">  1        2 0.12129096E-01 0.91425812E+02</pdfrwt>
<pdfrwt beam="2">  1       -2 0.40777681E-02 0.91425812E+02</pdfrwt>
<totfact> 0.11351222E+05</totfact>
</mgrwt>
</event>
<event>
 7    1  0.2566315E-009  0.9434789E+02  0.7546771E-02  0.1292652E+00
         -2   -1    0    0    0  501 -0.00000000000E+00  0.00000000000E+00  0.12816599292E+02  0.12816599292E+02  0.00000000000E+00 0.  1.
          2   -1    0    0  501    0  0.00000000000E+00 -0.00000000000E+00 -0.17363272646E+03  0.17363272646E+03  0.00000000000E+00 0. -1.
         23    2    1    2    0    0  0.00000000000E+00 -0.12212453271E-14 -0.16081612716E+03  0.18644932575E+03  0.94347889833E+02 0.  0.
          5    1    3    3  502    0 -0.21029346132E+02  0.64159122493E+00 -0.28563975829E+02  0.35785971458E+02  0.47000000000E+01 0.  1.
         -5    1    3    3    0  502  0.21214473676E+02  0.26434730477E+01 -0.68135073013E+02  0.71564795938E+02  0.47000000000E+01 0.  1.
          5    1    3    3  503    0  0.12303712448E+02 -0.19671999053E+02 -0.43772599920E+02  0.49764439015E+02  0.47000000000E+01 0. -1.
         -5    1    3    3    0  503 -0.12488839992E+02  0.16386934780E+02 -0.20344478402E+02  0.29334119337E+02  0.47000000000E+01 0.  1.
<mgrwt>
<rscale>  0 0.94347890E+02</rscale>
<asrwt>0</asrwt>
<pdfrwt beam="1">  1        2 0.26712724E-01 0.94347890E+02</pdfrwt>
<pdfrwt beam="2">  1       -2 0.19717847E-02 0.94347890E+02</pdfrwt>
<totfact> 0.13405016E+05</totfact>
</mgrwt>
</event>
<event>
 7    1  0.2566315E-009  0.9730279E+02  0.7546771E-02  0.1286072E+00
         -1   -1    0    0    0  501 -0.00000000000E+00  0.00000000000E+00  0.32453780785E+02  0.32453780785E+02  0.00000000000E+00 0.  1.
          1   -1    0    0  501    0  0.00000000000E+00 -0.00000000000E+00 -0.72933198478E+02  0.72933198478E+02  0.00000000000E+00 0. -1.
         23    2    1    2    0    0 -0.35527136788E-14  0.88817841970E-15 -0.40479417693E+02  0.10538697926E+03  0.97302785887E+02 0.  0.
          5    1    3    3  502    0  0.25358682635E+01 -0.23177471922E+02 -0.79912826182E+01  0.25091361669E+02  0.47000000000E+01 0. -1.
         -5    1    3    3    0  503 -0.20502825275E+02 -0.54256425140E+01 -0.43064433569E+01  0.22145855038E+02  0.47000000000E+01 0.  1.
          5    1    3    3  503    0  0.21674841254E+02  0.27352373081E+01 -0.20949410371E+02  0.30630835140E+02  0.47000000000E+01 0. -1.
         -5    1    3    3    0  502 -0.37078842417E+01  0.25867877128E+02 -0.72322813467E+01  0.27518927416E+02  0.47000000000E+01 0.  1.
<mgrwt>
<rscale>  0 0.97302786E+02</rscale>
<asrwt>0</asrwt>
<pdfrwt beam="1">  1        1 0.11220492E-01 0.97302786E+02</pdfrwt>
<pdfrwt beam="2">  1       -1 0.49928894E-02 0.97302786E+02</pdfrwt>
<totfact> 0.82935034E+04</totfact>
</mgrwt>
</event>
<event>
 7    1  0.2566315E-009  0.9035479E+02  0.7546771E-02  0.1301995E+00
          2   -1    0    0  501    0  0.00000000000E+00  0.00000000000E+00  0.19813940952E+03  0.19813940952E+03  0.00000000000E+00 0. -1.
         -2   -1    0    0    0  501 -0.00000000000E+00 -0.00000000000E+00 -0.10300813591E+02  0.10300813591E+02  0.00000000000E+00 0.  1.
         23    2    1    2    0    0 -0.35527136788E-14  0.00000000000E+00  0.18783859593E+03  0.20844022311E+03  0.90354792292E+02 0.  0.
          5    1    3    3  502    0 -0.18860524660E+02 -0.10949734384E+02  0.39898191528E+02  0.45711833924E+02  0.47000000000E+01 0. -1.
         -5    1    3    3    0  503  0.49116043458E+01  0.19955051190E+02  0.44460000053E+02  0.49204771415E+02  0.47000000000E+01 0. -1.
          5    1    3    3  503    0 -0.59940227078E+01 -0.20717399318E+02  0.38344642730E+02  0.44244102080E+02  0.47000000000E+01 0.  1.
         -5    1    3    3    0  502  0.19942943022E+02  0.11712082511E+02  0.65135761617E+02  0.69279515692E+02  0.47000000000E+01 0.  1.
<mgrwt>
<rscale>  0 0.90354792E+02</rscale>
<asrwt>0</asrwt>
<pdfrwt beam="1">  1        2 0.30482983E-01 0.90354792E+02</pdfrwt>
<pdfrwt beam="2">  1       -2 0.15847407E-02 0.90354792E+02</pdfrwt>
<totfact> 0.15796015E+05</totfact>
</mgrwt>
</event>
<event>
 7    1  0.2566315E-009  0.9006825E+02  0.7546771E-02  0.1302687E+00
         -3   -1    0    0    0  501 -0.00000000000E+00  0.00000000000E+00  0.48722096830E+01  0.48722096830E+01  0.00000000000E+00 0.  1.
          3   -1    0    0  501    0  0.00000000000E+00 -0.00000000000E+00 -0.41625307653E+03  0.41625307653E+03  0.00000000000E+00 0. -1.
         23    2    1    2    0    0 -0.53290705182E-14 -0.35527136788E-14 -0.41138086684E+03  0.42112528621E+03  0.90068246792E+02 0.  0.
          5    1    3    3  502    0 -0.17153371604E+02 -0.11951934656E+02 -0.15195032097E+03  0.15345382674E+03  0.47000000000E+01 0.  1.
         -5    1    3    3    0  502 -0.78003638743E+01  0.18464365412E+02 -0.55417581643E+02  0.59118328984E+02  0.47000000000E+01 0.  1.
          5    1    3    3  503    0  0.87434517436E+01 -0.19506954997E+02 -0.96613910226E+02  0.99062136514E+02  0.47000000000E+01 0. -1.
         -5    1    3    3    0  503  0.16210283735E+02  0.12994524240E+02 -0.10739905400E+03  0.10949099397E+03  0.47000000000E+01 0.  1.
<mgrwt>
<rscale>  0 0.90068247E+02</rscale>
<asrwt>0</asrwt>
<pdfrwt beam="1">  1        3 0.64038931E-01 0.90068247E+02</pdfrwt>
<pdfrwt beam="2">  1       -3 0.74957076E-03 0.90068247E+02</pdfrwt>
<totfact> 0.20655867E+04</totfact>
</mgrwt>
</event>
<event>
 7    1  0.2566315E-009  0.1032726E+03  0.7546771E-02  0.1273561E+00
          2   -1    0    0  501    0  0.00000000000E+00  0.00000000000E+00  0.11240816465E+02  0.11240816465E+02  0.00000000000E+00 0. -1.
         -2   -1    0    0    0  501 -0.00000000000E+00 -0.00000000000E+00 -0.23719872970E+03  0.23719872970E+03  0.00000000000E+00 0.  1.
         23    2    1    2    0    0  0.88817841970E-15  0.00000000000E+00 -0.22595791324E+03  0.24843954617E+03  0.10327259823E+03 0.  0.
          5    1    3    3  502    0 -0.22677827090E+02 -0.80366139667E+01 -0.40292588765E+02  0.47164114695E+02  0.47000000000E+01 0.  1.
         -5    1    3    3    0  502  0.60708707566E+01  0.22371756068E+02 -0.70420479707E+02  0.74286505528E+02  0.47000000000E+01 0.  1.
          5    1    3    3  503    0 -0.25731774566E+01 -0.26797250918E+02 -0.41965423630E+02  0.50078944472E+02  0.47000000000E+01 0. -1.
         -5    1    3    3    0  503  0.19180133790E+02  0.12462108816E+02 -0.73279421137E+02  0.76909981475E+02  0.47000000000E+01 0. -1.
<mgrwt>
<rscale>  0 0.10327260E+03</rscale>
<asrwt>0</asrwt>
<pdfrwt beam="1">  1        2 0.17293565E-02 0.10327260E+03</pdfrwt>
<pdfrwt beam="2">  1       -2 0.36492110E-01 0.10327260E+03</pdfrwt>
<totfact> 0.41851792E+04</totfact>
</mgrwt>
</event>
<event>
 7    1  0.2566315E-009  0.9960875E+02  0.7546771E-02  0.1281121E+00
          2   -1    0    0  501    0  0.00000000000E+00  0.00000000000E+00  0.17658075611E+03  0.17658075611E+03  0.00000000000E+00 0. -1.
         -2   -1    0    0    0  501 -0.00000000000E+00 -0.00000000000E+00 -0.14047259995E+02  0.14047259995E+02  0.00000000000E+00 0.  1.
         23    2    1    2    0    0  0.00000000000E+00  0.00000000000E+00  0.16253349611E+03  0.19062801610E+03  0.99608750443E+02 0.  0.
          5    1    3    3  502    0  0.31571130325E+01  0.23108298384E+02  0.21035858705E+02  0.31757804842E+02  0.47000000000E+01 0.  1.
         -5    1    3    3    0  503 -0.10810757698E+02 -0.19940419282E+02  0.53882647417E+02  0.58650852473E+02  0.47000000000E+01 0. -1.
          5    1    3    3  503    0 -0.11591788239E+01  0.21229588926E+02  0.32446325409E+02  0.39075480471E+02  0.47000000000E+01 0.  1.
         -5    1    3    3    0  502  0.88128234890E+01 -0.24397468027E+02  0.55168664582E+02  0.61143878318E+02  0.47000000000E+01 0. -1.
<mgrwt>
<rscale>  0 0.99608750E+02</rscale>
<asrwt>0</asrwt>
<pdfrwt beam="1">  1        2 0.27166269E-01 0.99608750E+02</pdfrwt>
<pdfrwt beam="2">  1       -2 0.21611170E-02 0.99608750E+02</pdfrwt>
<totfact> 0.11632662E+05</totfact>
</mgrwt>
</event>
<event>
 7    1  0.2566315E-009  0.9830788E+02  0.7546771E-02  0.1283895E+00
          3   -1    0    0  501    0  0.00000000000E+00  0.00000000000E+00  0.12265970444E+03  0.12265970444E+03  0.00000000000E+00 0. -1.
         -3   -1    0    0    0  501 -0.00000000000E+00 -0.00000000000E+00 -0.19697663492E+02  0.19697663492E+02  0.00000000000E+00 0.  1.
         23    2    1    2    0    0  0.17763568394E-14  0.00000000000E+00  0.10296204095E+03  0.14235736793E+03  0.98307875210E+02 0.  0.
          5    1    3    3  502    0  0.69334671685E+01  0.21994439787E+02  0.36199110468E+02  0.43177470366E+02  0.47000000000E+01 0. -1.
         -5    1    3    3    0  502 -0.89723135195E+01 -0.21265418038E+02  0.80640578805E+01  0.24896574940E+02  0.47000000000E+01 0.  1.
          5    1    3    3  503    0 -0.18632220442E+02 -0.97196354213E+01  0.36005311087E+02  0.41953585994E+02  0.47000000000E+01 0.  1.
         -5    1    3    3    0  503  0.20671066793E+02  0.89906136726E+01  0.22693561512E+02  0.32329736632E+02  0.47000000000E+01 0. -1.
<mgrwt>
<rscale>  0 0.98307875E+02</rscale>
<asrwt>0</asrwt>
<pdfrwt beam="1">  1        3 0.18870723E-01 0.98307875E+02</pdfrwt>
<pdfrwt beam="2">  1       -3 0.30304098E-02 0.98307875E+02</pdfrwt>
<totfact> 0.25885011E+04</totfact>
</mgrwt>
</event>
<event>
 7    1  0.2566315E-009  0.1012588E+03  0.7546771E-02  0.1277671E+00
         -2   -1    0    0    0  501 -0.00000000000E+00  0.00000000000E+00  0.47574148745E+02  0.47574148745E+02  0.00000000000E+00 0.  1.
          2   -1    0    0  501    0  0.00000000000E+00 -0.00000000000E+00 -0.53880851022E+02  0.53880851022E+02  0.00000000000E+00 0. -1.
         23    2    1    2    0    0  0.35527136788E-14  0.00000000000E+00 -0.63067022771E+01  0.10145499977E+03  0.10125878966E+03 0.  0.
          5    1    3    3  502    0  0.21012504652E+02 -0.11902562228E+02 -0.41185218429E+01  0.24944910533E+02  0.47000000000E+01 0. -1.
         -5    1    3    3    0  503 -0.21431181910E+02 -0.66110198509E+01  0.78286288690E+01  0.24215254934E+02  0.47000000000E+01 0. -1.
          5    1    3    3  503    0 -0.20735043635E+02 -0.20696471588E+01 -0.55976562487E+01  0.22082781287E+02  0.47000000000E+01 0.  1.
         -5    1    3    3    0  502  0.21153720893E+02  0.20583229238E+02 -0.44191530544E+01  0.30212053012E+02  0.47000000000E+01 0.  1.
<mgrwt>
<rscale>  0 0.10125879E+03</rscale>
<asrwt>0</asrwt>
<pdfrwt beam="1">  1        2 0.82893617E-02 0.10125879E+03</pdfrwt>
<pdfrwt beam="2">  1       -2 0.73190998E-02 0.10125879E+03</pdfrwt>
<totfact> 0.76287813E+04</totfact>
</mgrwt>
</event>
<event>
 7    1  0.2566315E-009  0.9781535E+02  0.7546771E-02  0.1284958E+00
         -4   -1    0    0    0  501 -0.00000000000E+00  0.00000000000E+00  0.16665808656E+02  0.16665808656E+02  0.00000000000E+00 0. -1.
          4   -1    0    0  501    0  0.00000000000E+00 -0.00000000000E+00 -0.14352503544E+03  0.14352503544E+03  0.00000000000E+00 0.  1.
         23    2    1    2    0    0 -0.35527136788E-14  0.35527136788E-14 -0.12685922678E+03  0.16019084410E+03  0.97815352129E+02 0.  0.
          5    1    3    3  502    0  0.23716527857E+02 -0.86560923268E+01 -0.19564094076E+02  0.32283825749E+02  0.47000000000E+01 0. -1.
         -5    1    3    3    0  502  0.24076455334E+01 -0.21017723996E+02 -0.44157910318E+02  0.49188947159E+02  0.47000000000E+01 0.  1.
          5    1    3    3  503    0 -0.53234163382E+01  0.20589612870E+02 -0.42171075793E+02  0.47463254768E+02  0.47000000000E+01 0.  1.
         -5    1    3    3    0  503 -0.20800757052E+02  0.90842034533E+01 -0.20966146598E+02  0.31254816421E+02  0.47000000000E+01 0. -1.
<mgrwt>
<rscale>  0 0.97815352E+02</rscale>
<asrwt>0</asrwt>
<pdfrwt beam="1">  1        4 0.22080774E-01 0.97815352E+02</pdfrwt>
<pdfrwt beam="2">  1       -4 0.25639706E-02 0.97815352E+02</pdfrwt>
<totfact> 0.19160495E+04</totfact>
</mgrwt>
</event>
<event>
 7    1  0.2566315E-009  0.9812017E+02  0.7546771E-02  0.1284299E+00
         -1   -1    0    0    0  501 -0.00000000000E+00  0.00000000000E+00  0.26180977197E+02  0.26180977197E+02  0.00000000000E+00 0.  1.
          1   -1    0    0  501    0  0.00000000000E+00 -0.00000000000E+00 -0.91932853697E+02  0.91932853697E+02  0.00000000000E+00 0. -1.
         23    2    1    2    0    0  0.00000000000E+00  0.17763568394E-14 -0.65751876500E+02  0.11811383089E+03  0.98120170125E+02 0.  0.
          5    1    3    3  502    0 -0.23890974784E+00  0.20618360081E+02 -0.20154259822E+02  0.29214004163E+02  0.47000000000E+01 0. -1.
         -5    1    3    3    0  502  0.27117449134E+02  0.11993954776E+02 -0.13859400131E+02  0.33066357082E+02  0.47000000000E+01 0.  1.
          5    1    3    3  503    0 -0.11622675380E+02 -0.17097289726E+02 -0.64883832196E+01  0.22171896981E+02  0.47000000000E+01 0.  1.
         -5    1    3    3    0  503 -0.15255864006E+02 -0.15515025131E+02 -0.25249833328E+02  0.33661572668E+02  0.47000000000E+01 0.  1.
<mgrwt>
<rscale>  0 0.98120170E+02</rscale>
<asrwt>0</asrwt>
<pdfrwt beam="1">  1        1 0.14143516E-01 0.98120170E+02</pdfrwt>
<pdfrwt beam="2">  1       -1 0.40278426E-02 0.98120170E+02</pdfrwt>
<totfact> 0.84198918E+04</totfact>
</mgrwt>
</event>
<event>
 7    1  0.2566315E-009  0.9292103E+02  0.7546771E-02  0.1295928E+00
          3   -1    0    0  501    0  0.00000000000E+00  0.00000000000E+00  0.11730618794E+02  0.11730618794E+02  0.00000000000E+00 0. -1.
         -3   -1    0    0    0  501 -0.00000000000E+00 -0.00000000000E+00 -0.18401241986E+03  0.18401241986E+03  0.00000000000E+00 0.  1.
         23    2    1    2    0    0  0.00000000000E+00  0.17763568394E-14 -0.17228180106E+03  0.19574303865E+03  0.92921032080E+02 0.  0.
          5    1    3    3  502    0 -0.20700714868E+02  0.92902894100E+01 -0.59434054362E+02  0.63791268143E+02  0.47000000000E+01 0. -1.
         -5    1    3    3    0  502  0.17172209306E+01  0.21216353650E+02 -0.29423352885E+02  0.36618386160E+02  0.47000000000E+01 0.  1.
          5    1    3    3  503    0 -0.23186285100E+01 -0.20995908929E+02 -0.31519992118E+02  0.38233547220E+02  0.47000000000E+01 0.  1.
         -5    1    3    3    0  503  0.21302122447E+02 -0.95107341309E+01 -0.51904401699E+02  0.57099837129E+02  0.47000000000E+01 0.  1.
<mgrwt>
<rscale>  0 0.92921032E+02</rscale>
<asrwt>0</asrwt>
<pdfrwt beam="1">  1        3 0.18047108E-02 0.92921032E+02</pdfrwt>
<pdfrwt beam="2">  1       -3 0.28309600E-01 0.92921032E+02</pdfrwt>
<totfact> 0.27283886E+04</totfact>
</mgrwt>
</event>
<event>
 7    1  0.2566315E-009  0.9385093E+02  0.7546771E-02  0.1293785E+00
          1   -1    0    0  501    0  0.00000000000E+00  0.00000000000E+00  0.12540405531E+03  0.12540405531E+03  0.00000000000E+00 0. -1.
         -1   -1    0    0    0  501 -0.00000000000E+00 -0.00000000000E+00 -0.17559236679E+02  0.17559236679E+02  0.00000000000E+00 0.  1.
         23    2    1    2    0    0  0.53290705182E-14 -0.35527136788E-14  0.10784481863E+03  0.14296329199E+03  0.93850934735E+02 0.  0.
          5    1    3    3  502    0 -0.81732139161E+01  0.23185453892E+02  0.27113039635E+02  0.36899506990E+02  0.47000000000E+01 0.  1.
         -5    1    3    3    0  503  0.11854701702E+02 -0.16163022496E+02  0.22006162958E+02  0.30135335684E+02  0.47000000000E+01 0. -1.
          5    1    3    3  503    0  0.20799871711E+02  0.73261289672E+00  0.32847906968E+02  0.39169457196E+02  0.47000000000E+01 0. -1.
         -5    1    3    3    0  502 -0.24481359497E+02 -0.77550442925E+01  0.25877709072E+02  0.36758992120E+02  0.47000000000E+01 0.  1.
<mgrwt>
<rscale>  0 0.93850935E+02</rscale>
<asrwt>0</asrwt>
<pdfrwt beam="1">  1        1 0.19292931E-01 0.93850935E+02</pdfrwt>
<pdfrwt beam="2">  1       -1 0.27014211E-02 0.93850935E+02</pdfrwt>
<totfact> 0.10037433E+05</totfact>
</mgrwt>
</event>
<event>
 7    1  0.2566316E-009  0.9400304E+02  0.7546771E-02  0.1293437E+00
         -1   -1    0    0    0  501 -0.00000000000E+00  0.00000000000E+00  0.48413482344E+01  0.48413482344E+01  0.00000000000E+00 0.  1.
          1   -1    0    0  501    0  0.00000000000E+00 -0.00000000000E+00 -0.45630737006E+03  0.45630737006E+03  0.00000000000E+00 0. -1.
         23    2    1    2    0    0  0.35527136788E-14 -0.17763568394E-14 -0.45146602182E+03  0.46114871829E+03  0.94003039959E+02 0.  0.
          5    1    3    3  502    0 -0.18308158720E+02 -0.13648242756E+02 -0.10611500655E+03  0.10864597471E+03  0.47000000000E+01 0.  1.
         -5    1    3    3    0  503 -0.10846134833E+02  0.18201676704E+02 -0.13340303393E+03  0.13515694261E+03  0.47000000000E+01 0. -1.
          5    1    3    3  503    0  0.94671990647E+01 -0.18912536844E+02 -0.12747214326E+03  0.12930022898E+03  0.47000000000E+01 0. -1.
         -5    1    3    3    0  502  0.19687094488E+02  0.14359102897E+02 -0.84475838090E+02  0.88045571986E+02  0.47000000000E+01 0.  1.
<mgrwt>
<rscale>  0 0.94003040E+02</rscale>
<asrwt>0</asrwt>
<pdfrwt beam="1">  1        1 0.70201157E-01 0.94003040E+02</pdfrwt>
<pdfrwt beam="2">  1       -1 0.74482256E-03 0.94003040E+02</pdfrwt>
<totfact> 0.12690545E+05</totfact>
</mgrwt>
</event>
<event>
 7    1  0.2566315E-009  0.9237057E+02  0.7546771E-02  0.1297210E+00
         -2   -1    0    0    0  501 -0.00000000000E+00  0.00000000000E+00  0.15854702317E+02  0.15854702317E+02  0.00000000000E+00 0. -1.
          2   -1    0    0  501    0  0.00000000000E+00 -0.00000000000E+00 -0.13453930876E+03  0.13453930876E+03  0.00000000000E+00 0.  1.
         23    2    1    2    0    0 -0.17763568394E-14  0.00000000000E+00 -0.11868460644E+03  0.15039401107E+03  0.92370573025E+02 0.  0.
          5    1    3    3  502    0 -0.10176679954E+02 -0.17864115748E+02 -0.39909338694E+02  0.45139082416E+02  0.47000000000E+01 0. -1.
         -5    1    3    3    0  503 -0.13822545860E+01 -0.22604134996E+02 -0.19820880981E+02  0.30460053669E+02  0.47000000000E+01 0.  1.
          5    1    3    3  503    0  0.13851927049E+02  0.19289515147E+02 -0.30431975738E+02  0.38886455545E+02  0.47000000000E+01 0.  1.
         -5    1    3    3    0  502 -0.22929925096E+01  0.21178735597E+02 -0.28522411026E+02  0.35908419442E+02  0.47000000000E+01 0. -1.
<mgrwt>
<rscale>  0 0.92370573E+02</rscale>
<asrwt>0</asrwt>
<pdfrwt beam="1">  1        2 0.20698354E-01 0.92370573E+02</pdfrwt>
<pdfrwt beam="2">  1       -2 0.24391851E-02 0.92370573E+02</pdfrwt>
<totfact> 0.13009726E+05</totfact>
</mgrwt>
</event>
<event>
 7    1  0.2566315E-009  0.9323757E+02  0.7546771E-02  0.1295196E+00
          1   -1    0    0  501    0  0.00000000000E+00  0.00000000000E+00  0.51356448347E+02  0.51356448347E+02  0.00000000000E+00 0. -1.
         -1   -1    0    0    0  501 -0.00000000000E+00 -0.00000000000E+00 -0.42318169964E+02  0.42318169964E+02  0.00000000000E+00 0.  1.
         23    2    1    2    0    0  0.17763568394E-14  0.35527136788E-14  0.90382783831E+01  0.93674618311E+02  0.93237565603E+02 0.  0.
          5    1    3    3  502    0  0.43483756424E+01  0.23784128497E+02  0.35298413190E+00  0.24633467821E+02  0.47000000000E+01 0. -1.
         -5    1    3    3    0  503 -0.49394120212E+01 -0.21029798768E+02 -0.53118721142E+01  0.22736671100E+02  0.47000000000E+01 0. -1.
          5    1    3    3  503    0 -0.17919936374E+02 -0.12491136233E+02  0.42016622199E+01  0.22735359453E+02  0.47000000000E+01 0.  1.
         -5    1    3    3    0  502  0.18510972753E+02  0.97368065046E+01  0.97955041455E+01  0.23569119937E+02  0.47000000000E+01 0.  1.
<mgrwt>
<rscale>  0 0.93237566E+02</rscale>
<asrwt>0</asrwt>
<pdfrwt beam="1">  1        1 0.79009920E-02 0.93237566E+02</pdfrwt>
<pdfrwt beam="2">  1       -1 0.65104877E-02 0.93237566E+02</pdfrwt>
<totfact> 0.88431533E+04</totfact>
</mgrwt>
</event>
<event>
 7    1  0.2566315E-009  0.9313810E+02  0.7546771E-02  0.1295425E+00
         -2   -1    0    0    0  501 -0.00000000000E+00  0.00000000000E+00  0.61714822438E+01  0.61714822438E+01  0.00000000000E+00 0.  1.
          2   -1    0    0  501    0  0.00000000000E+00 -0.00000000000E+00 -0.35140287142E+03  0.35140287142E+03  0.00000000000E+00 0. -1.
         23    2    1    2    0    0  0.00000000000E+00  0.17763568394E-14 -0.34523138918E+03  0.35757435366E+03  0.93138103511E+02 0.  0.
          5    1    3    3  502    0 -0.20265212136E+02  0.66349207661E+01 -0.11022039091E+03  0.11236247403E+03  0.47000000000E+01 0. -1.
         -5    1    3    3    0  503  0.16647642612E+02  0.11664723114E+02 -0.94473443174E+02  0.96749838423E+02  0.47000000000E+01 0. -1.
          5    1    3    3  503    0 -0.18762374367E+02 -0.83909733331E+01 -0.44478848530E+02  0.49222891950E+02  0.47000000000E+01 0.  1.
         -5    1    3    3    0  502  0.22379943891E+02 -0.99086705473E+01 -0.96058706563E+02  0.99239149266E+02  0.47000000000E+01 0.  1.
<mgrwt>
<rscale>  0 0.93138104E+02</rscale>
<asrwt>0</asrwt>
<pdfrwt beam="1">  1        2 0.54061984E-01 0.93138104E+02</pdfrwt>
<pdfrwt beam="2">  1       -2 0.94945874E-03 0.93138104E+02</pdfrwt>
<totfact> 0.17997308E+05</totfact>
</mgrwt>
</event>
<event>
 7    1  0.2566315E-009  0.9500240E+02  0.7546771E-02  0.1291171E+00
         -2   -1    0    0    0  501 -0.00000000000E+00  0.00000000000E+00  0.17069837981E+03  0.17069837981E+03  0.00000000000E+00 0.  1.
          2   -1    0    0  501    0  0.00000000000E+00 -0.00000000000E+00 -0.13218426723E+02  0.13218426723E+02  0.00000000000E+00 0. -1.
         23    2    1    2    0    0 -0.35527136788E-14  0.00000000000E+00  0.15747995308E+03  0.18391680653E+03  0.95002400502E+02 0.  0.
          5    1    3    3  502    0  0.20761294551E+02  0.11902836141E+02  0.61254308395E+02  0.65930942330E+02  0.47000000000E+01 0.  1.
         -5    1    3    3    0  503  0.20359450497E+02 -0.16576727695E+01  0.28923009635E+02  0.35719540729E+02  0.47000000000E+01 0. -1.
          5    1    3    3  503    0 -0.20393245099E+02  0.46135372176E+00  0.18356884634E+02  0.27841740362E+02  0.47000000000E+01 0. -1.
         -5    1    3    3    0  502 -0.20727499949E+02 -0.10706517093E+02  0.48945750420E+02  0.54424583109E+02  0.47000000000E+01 0.  1.
<mgrwt>
<rscale>  0 0.95002401E+02</rscale>
<asrwt>0</asrwt>
<pdfrwt beam="1">  1        2 0.20336042E-02 0.95002401E+02</pdfrwt>
<pdfrwt beam="2">  1       -2 0.26261288E-01 0.95002401E+02</pdfrwt>
<totfact> 0.59919219E+04</totfact>
</mgrwt>
</event>
<event>
 7    1  0.2566315E-009  0.9488533E+02  0.7546771E-02  0.1291435E+00
          1   -1    0    0  501    0  0.00000000000E+00  0.00000000000E+00  0.17188183036E+02  0.17188183036E+02  0.00000000000E+00 0. -1.
         -1   -1    0    0    0  501 -0.00000000000E+00 -0.00000000000E+00 -0.13095080816E+03  0.13095080816E+03  0.00000000000E+00 0.  1.
         23    2    1    2    0    0  0.00000000000E+00  0.17763568394E-14 -0.11376262513E+03  0.14813899120E+03  0.94885329940E+02 0.  0.
          5    1    3    3  502    0  0.16517694886E+02 -0.15053091478E+02 -0.16206555105E+02  0.28003075470E+02  0.47000000000E+01 0. -1.
         -5    1    3    3    0  502 -0.17286223405E+02  0.18629111266E+02 -0.50653357387E+02  0.56865718326E+02  0.47000000000E+01 0.  1.
          5    1    3    3  503    0  0.20813473857E+02  0.79904763736E+00 -0.25354300364E+02  0.33147695517E+02  0.47000000000E+01 0. -1.
         -5    1    3    3    0  503 -0.20044945338E+02 -0.43750674256E+01 -0.21548412272E+02  0.30122501888E+02  0.47000000000E+01 0.  1.
<mgrwt>
<rscale>  0 0.94885330E+02</rscale>
<asrwt>0</asrwt>
<pdfrwt beam="1">  1        1 0.26443359E-02 0.94885330E+02</pdfrwt>
<pdfrwt beam="2">  1       -1 0.20146278E-01 0.94885330E+02</pdfrwt>
<totfact> 0.69528790E+04</totfact>
</mgrwt>
</event>
<event>
 7    1  0.2566315E-009  0.9273931E+02  0.7546771E-02  0.1296350E+00
         -1   -1    0    0    0  501 -0.00000000000E+00  0.00000000000E+00  0.51109546278E+01  0.51109546278E+01  0.00000000000E+00 0.  1.
          1   -1    0    0  501    0  0.00000000000E+00 -0.00000000000E+00 -0.42069342666E+03  0.42069342666E+03  0.00000000000E+00 0. -1.
         23    2    1    2    0    0 -0.35527136788E-14  0.00000000000E+00 -0.41558247204E+03  0.42580438129E+03  0.92739312395E+02 0.  0.
          5    1    3    3  502    0 -0.18173940736E+02 -0.11984043818E+02 -0.10530799726E+03  0.10763723202E+03  0.47000000000E+01 0.  1.
         -5    1    3    3    0  502  0.16890014208E+02  0.11162378682E+02 -0.15978950309E+03  0.16113549136E+03  0.47000000000E+01 0. -1.
          5    1    3    3  503    0  0.12795357166E+02 -0.16185126001E+02 -0.10192895829E+03  0.10410226706E+03  0.47000000000E+01 0. -1.
         -5    1    3    3    0  503 -0.11511430639E+02  0.17006791137E+02 -0.48556013388E+02  0.52929390855E+02  0.47000000000E+01 0.  1.
<mgrwt>
<rscale>  0 0.92739312E+02</rscale>
<asrwt>0</asrwt>
<pdfrwt beam="1">  1        1 0.64722100E-01 0.92739312E+02</pdfrwt>
<pdfrwt beam="2">  1       -1 0.78630029E-03 0.92739312E+02</pdfrwt>
<totfact> 0.12997918E+05</totfact>
</mgrwt>
</event>
<event>
 7    1  0.2566315E-009  0.1001727E+03  0.7546771E-02  0.1279933E+00
          1   -1    0    0  501    0  0.00000000000E+00  0.00000000000E+00  0.12422012255E+03  0.12422012255E+03  0.00000000000E+00 0. -1.
         -1   -1    0    0    0  501 -0.00000000000E+00 -0.00000000000E+00 -0.20195137410E+02  0.20195137410E+02  0.00000000000E+00 0.  1.
         23    2    1    2    0    0  0.88817841970E-15  0.35527136788E-14  0.10402498514E+03  0.14441525996E+03  0.10017269975E+03 0.  0.
          5    1    3    3  502    0  0.16682624400E+02 -0.11516777264E+02  0.16612685906E+02  0.26627381554E+02  0.47000000000E+01 0. -1.
         -5    1    3    3    0  502 -0.33084699614E+01  0.20071547119E+02  0.19367619207E+02  0.28478196063E+02  0.47000000000E+01 0.  1.
          5    1    3    3  503    0 -0.10364341415E+02 -0.28508717954E+02  0.19083181987E+02  0.36144493455E+02  0.47000000000E+01 0. -1.
         -5    1    3    3    0  503 -0.30098130232E+01  0.19953948099E+02  0.48961498042E+02  0.53165188890E+02  0.47000000000E+01 0.  1.
<mgrwt>
<rscale>  0 0.10017270E+03</rscale>
<asrwt>0</asrwt>
<pdfrwt beam="1">  1        1 0.19110788E-01 0.10017270E+03</pdfrwt>
<pdfrwt beam="2">  1       -1 0.31069443E-02 0.10017270E+03</pdfrwt>
<totfact> 0.83857125E+04</totfact>
</mgrwt>
</event>
<event>
 7    1  0.2566315E-009  0.1011607E+03  0.7546771E-02  0.1277874E+00
          2   -1    0    0  501    0  0.00000000000E+00  0.00000000000E+00  0.53635605494E+02  0.53635605494E+02  0.00000000000E+00 0. -1.
         -2   -1    0    0    0  501 -0.00000000000E+00 -0.00000000000E+00 -0.47699119524E+02  0.47699119524E+02  0.00000000000E+00 0.  1.
         23    2    1    2    0    0  0.00000000000E+00  0.00000000000E+00  0.59364859704E+01  0.10133472502E+03  0.10116068717E+03 0.  0.
          5    1    3    3  502    0 -0.57928681410E+01 -0.22297116567E+02  0.33722524609E+01  0.23752490715E+02  0.47000000000E+01 0.  1.
         -5    1    3    3    0  503 -0.26877499625E+02  0.11297759245E+02  0.10292494160E+02  0.31274027340E+02  0.47000000000E+01 0.  1.
          5    1    3    3  503    0  0.22814068099E+02 -0.64997383146E+01 -0.85908647957E+01  0.25663617425E+02  0.47000000000E+01 0. -1.
         -5    1    3    3    0  502  0.98562996672E+01  0.17499095637E+02  0.86260414502E+00  0.20644589537E+02  0.47000000000E+01 0. -1.
<mgrwt>
<rscale>  0 0.10116069E+03</rscale>
<asrwt>0</asrwt>
<pdfrwt beam="1">  1        2 0.82516316E-02 0.10116069E+03</pdfrwt>
<pdfrwt beam="2">  1       -2 0.73383261E-02 0.10116069E+03</pdfrwt>
<totfact> 0.76403676E+04</totfact>
</mgrwt>
</event>
<event>
 7    1  0.2566315E-009  0.1026301E+03  0.7546771E-02  0.1274860E+00
         -2   -1    0    0    0  501 -0.00000000000E+00  0.00000000000E+00  0.82745885045E+02  0.82745885045E+02  0.00000000000E+00 0.  1.
          2   -1    0    0  501    0  0.00000000000E+00 -0.00000000000E+00 -0.31823143170E+02  0.31823143170E+02  0.00000000000E+00 0. -1.
         23    2    1    2    0    0  0.17763568394E-14  0.35527136788E-14  0.50922741875E+02  0.11456902822E+03  0.10263009591E+03 0.  0.
          5    1    3    3  502    0 -0.12365281953E+02  0.24114951068E+02  0.13056494613E+02  0.30446561618E+02  0.47000000000E+01 0. -1.
         -5    1    3    3    0  502  0.13504544951E+02 -0.17146079308E+02  0.19482014411E+02  0.29631058967E+02  0.47000000000E+01 0.  1.
          5    1    3    3  503    0  0.12887269069E+02  0.16587486853E+02  0.15502794345E+02  0.26526459557E+02  0.47000000000E+01 0. -1.
         -5    1    3    3    0  503 -0.14026532067E+02 -0.23556358612E+02  0.28814385069E+01  0.27964948074E+02  0.47000000000E+01 0.  1.
<mgrwt>
<rscale>  0 0.10263010E+03</rscale>
<asrwt>0</asrwt>
<pdfrwt beam="1">  1        2 0.48958682E-02 0.10263010E+03</pdfrwt>
<pdfrwt beam="2">  1       -2 0.12730136E-01 0.10263010E+03</pdfrwt>
<totfact> 0.63024690E+04</totfact>
</mgrwt>
</event>
<event>
 7    1  0.2566315E-009  0.1014553E+03  0.7546771E-02  0.1277265E+00
         -1   -1    0    0    0  501 -0.00000000000E+00  0.00000000000E+00  0.53972205724E+02  0.53972205724E+02  0.00000000000E+00 0.  1.
          1   -1    0    0  501    0  0.00000000000E+00 -0.00000000000E+00 -0.47678133194E+02  0.47678133194E+02  0.00000000000E+00 0. -1.
         23    2    1    2    0    0  0.00000000000E+00  0.17763568394E-14  0.62940725302E+01  0.10165033892E+03  0.10145529091E+03 0.  0.
          5    1    3    3  502    0 -0.21475428202E+02 -0.69427914123E+01 -0.15321849503E+02  0.27681138727E+02  0.47000000000E+01 0. -1.
         -5    1    3    3    0  502  0.19454163810E+02  0.79137587148E+01  0.80661337833E+01  0.22983571976E+02  0.47000000000E+01 0.  1.
          5    1    3    3  503    0 -0.15993301590E+02  0.16613513139E+02  0.60213419881E+01  0.24292819389E+02  0.47000000000E+01 0.  1.
         -5    1    3    3    0  503  0.18014565981E+02 -0.17584480441E+02  0.75284462616E+01  0.26692808826E+02  0.47000000000E+01 0. -1.
<mgrwt>
<rscale>  0 0.10145529E+03</rscale>
<asrwt>0</asrwt>
<pdfrwt beam="1">  1        1 0.73350974E-02 0.10145529E+03</pdfrwt>
<pdfrwt beam="2">  1       -1 0.83034162E-02 0.10145529E+03</pdfrwt>
<totfact> 0.68826614E+04</totfact>
</mgrwt>
</event>
<event>
 7    1  0.2566315E-009  0.9953962E+02  0.7546771E-02  0.1281267E+00
         -2   -1    0    0    0  501 -0.00000000000E+00  0.00000000000E+00  0.13574307755E+03  0.13574307755E+03  0.00000000000E+00 0.  1.
          2   -1    0    0  501    0  0.00000000000E+00 -0.00000000000E+00 -0.18247956347E+02  0.18247956347E+02  0.00000000000E+00 0. -1.
         23    2    1    2    0    0  0.00000000000E+00 -0.35527136788E-14  0.11749512120E+03  0.15399103389E+03  0.99539615299E+02 0.  0.
          5    1    3    3  502    0 -0.15133456898E+02 -0.15471944098E+02  0.28897430381E+02  0.36408159175E+02  0.47000000000E+01 0.  1.
         -5    1    3    3    0  502  0.22383232289E+02  0.13505139933E+02  0.16930347066E+02  0.31498008574E+02  0.47000000000E+01 0. -1.
          5    1    3    3  503    0  0.65516284876E+01 -0.18968959482E+02  0.21387913846E+02  0.29703166807E+02  0.47000000000E+01 0. -1.
         -5    1    3    3    0  503 -0.13801403879E+02  0.20935763647E+02  0.50279429906E+02  0.56381699338E+02  0.47000000000E+01 0.  1.
<mgrwt>
<rscale>  0 0.99539615E+02</rscale>
<asrwt>0</asrwt>
<pdfrwt beam="1">  1        2 0.28073780E-02 0.99539615E+02</pdfrwt>
<pdfrwt beam="2">  1       -2 0.20883550E-01 0.99539615E+02</pdfrwt>
<totfact> 0.57994782E+04</totfact>
</mgrwt>
</event>
