<event>
 8    1  0.6396648E-004  0.1305340E+03  0.7546771E-02  0.1227062E+00
          1   -1    0    0  501    0  0.00000000000E+00  0.00000000000E+00  0.28863638436E+03  0.28863638436E+03  0.00000000000E+00 0. -1.
         -1   -1    0    0    0  501 -0.00000000000E+00 -0.00000000000E+00 -0.61488933264E+02  0.61488933264E+02  0.00000000000E+00 0.  1.
         23    2    1    2    0    0 -0.77130184389E+02 -0.53283232058E+02  0.15229310449E+03  0.20057995206E+03  0.90834791419E+02 0.  0.
         23    2    1    2    0    0  0.77130184389E+02  0.53283232058E+02  0.74854346611E+02  0.14954536557E+03  0.89288717053E+02 0.  0.
          5    1    3    3  502    0 -0.60408598905E+02 -0.68656157890E+02  0.15191851962E+03  0.17738149126E+03  0.47000000000E+01 0. -1.
         -5    1    4    4    0  503  0.53543832147E+02  0.76525692966E+02  0.67414983888E+02  0.11528223496E+03  0.47000000000E+01 0.  1.
          5    1    4    4  503    0  0.23586352242E+02 -0.23242460908E+02  0.74393627230E+01  0.34263130605E+02  0.47000000000E+01 0. -1.
         -5    1    3    3    0  502 -0.16721585484E+02  0.15372925832E+02  0.37458486649E+00  0.23198460801E+02  0.47000000000E+01 0.  1.
<mgrwt>
<rscale>  0 0.13026540E+03</rscale>
<asrwt>0</asrwt>
<pdfrwt beam="1">  1        1 0.44405597E-01 0.13053401E+03</pdfrwt>
<pdfrwt beam="2">  1       -1 0.94598360E-02 0.13053401E+03</pdfrwt>
<totfact> 0.58295044E+03</totfact>
</mgrwt>
</event>
<event>
 8    1  0.6396648E-004  0.1187985E+03  0.7546771E-02  0.1246816E+00
         -2   -1    0    0    0  501 -0.00000000000E+00  0.00000000000E+00  0.67628782215E+02  0.67628782215E+02  0.00000000000E+00 0.  1.
          2   -1    0    0  501    0  0.00000000000E+00 -0.00000000000E+00 -0.25971450411E+03  0.25971450411E+03  0.00000000000E+00 0. -1.
         23    2    1    2    0    0 -0.94364894783E+01  0.66325412387E+02 -0.17472548015E+03  0.21128674104E+03  0.98107012298E+02 0.  0.
         23    2    1    2    0    0  0.94364894783E+01 -0.66325412387E+02 -0.17360241738E+02  0.11605654528E+03  0.93164564336E+02 0.  0.
          5    1    4    4  502    0 -0.37812197501E+02 -0.46404219899E+02 -0.22912417471E+02  0.64266498105E+02  0.47000000000E+01 0. -1.
         -5    1    4    4    0  502  0.47248686979E+02 -0.19921192488E+02  0.55521757328E+01  0.51790047178E+02  0.47000000000E+01 0.  1.
          5    1    3    3  503    0  0.94833830028E+01 -0.23247515147E+02 -0.25093866422E+02  0.35807452377E+02  0.47000000000E+01 0. -1.
         -5    1    3    3    0  503 -0.18919872481E+02  0.89572927534E+02 -0.14963161373E+03  0.17547928866E+03  0.47000000000E+01 0.  1.
<mgrwt>
<rscale>  0 0.11777341E+03</rscale>
<asrwt>0</asrwt>
<pdfrwt beam="1">  1        2 0.39956078E-01 0.11879854E+03</pdfrwt>
<pdfrwt beam="2">  1       -2 0.10404428E-01 0.11879854E+03</pdfrwt>
<totfact> 0.74969093E+03</totfact>
</mgrwt>
</event>
<event>
 8    1  0.6396648E-004  0.1302997E+03  0.7546771E-02  0.1227437E+00
         -2   -1    0    0    0  501 -0.00000000000E+00  0.00000000000E+00  0.60810992540E+03  0.60810992540E+03  0.00000000000E+00 0.  1.
          2   -1    0    0  501    0  0.00000000000E+00 -0.00000000000E+00 -0.33713680313E+02  0.33713680313E+02  0.00000000000E+00 0. -1.
         23    2    1    2    0    0  0.81444397111E+02  0.41825485971E+02  0.15033906891E+03  0.19819933697E+03  0.91096544609E+02 0.  0.
         23    2    1    2    0    0 -0.81444397111E+02 -0.41825485971E+02  0.42405717618E+03  0.44362426874E+03  0.92711606856E+02 0.  0.
          5    1    3    3  502    0  0.94253122509E+02  0.21781356094E+02  0.86294850357E+02  0.12971881041E+03  0.47000000000E+01 0. -1.
         -5    1    3    3    0  502 -0.12808725398E+02  0.20044129878E+02  0.64044218549E+02  0.68480526564E+02  0.47000000000E+01 0.  1.
          5    1    4    4  503    0  0.18814053828E+01 -0.45750928175E+02  0.17359479877E+03  0.17959379520E+03  0.47000000000E+01 0. -1.
         -5    1    4    4    0  503 -0.83325802493E+02  0.39254422034E+01  0.25046237741E+03  0.26403047354E+03  0.47000000000E+01 0.  1.
<mgrwt>
<rscale>  0 0.13001268E+03</rscale>
<asrwt>0</asrwt>
<pdfrwt beam="1">  1        2 0.51867205E-02 0.13029967E+03</pdfrwt>
<pdfrwt beam="2">  1       -2 0.93555365E-01 0.13029967E+03</pdfrwt>
<totfact> 0.14437314E+03</totfact>
</mgrwt>
</event>
<event>
 8    1  0.6396648E-004  0.2203012E+03  0.7546771E-02  0.1134174E+00
          3   -1    0    0  501    0  0.00000000000E+00  0.00000000000E+00  0.21996424004E+03  0.21996424004E+03  0.00000000000E+00 0. -1.
         -3   -1    0    0    0  501 -0.00000000000E+00 -0.00000000000E+00 -0.22862096868E+03  0.22862096868E+03  0.00000000000E+00 0.  1.
         23    2    1    2    0    0 -0.18075071324E+03  0.85830731746E+02 -0.52944792575E+02  0.22657394577E+03  0.92167602722E+02 0.  0.
         23    2    1    2    0    0  0.18075071324E+03 -0.85830731746E+02  0.44288063935E+02  0.22201126296E+03  0.85380521336E+02 0.  0.
          5    1    4    4  502    0  0.14519709790E+03 -0.45450996440E+02  0.77953544961E-01  0.15221723421E+03  0.47000000000E+01 0. -1.
         -5    1    4    4    0  502  0.35553615343E+02 -0.40379735307E+02  0.44210110390E+02  0.69794028742E+02  0.47000000000E+01 0.  1.
          5    1    3    3  503    0 -0.38459729541E+02 -0.10972371300E+02  0.12847210475E+02  0.42269191444E+02  0.47000000000E+01 0. -1.
         -5    1    3    3    0  503 -0.14229098370E+03  0.96803103047E+02 -0.65792003050E+02  0.18430475433E+03  0.47000000000E+01 0.  1.
<mgrwt>
<rscale>  0 0.21960987E+03</rscale>
<asrwt>0</asrwt>
<pdfrwt beam="1">  1        3 0.33840652E-01 0.22030116E+03</pdfrwt>
<pdfrwt beam="2">  1       -3 0.35172457E-01 0.22030116E+03</pdfrwt>
<totfact> 0.16786501E+02</totfact>
</mgrwt>
</event>
<event>
 8    1  0.6396648E-004  0.9822672E+02  0.7546771E-02  0.1284230E+00
          3   -1    0    0  501    0  0.00000000000E+00  0.00000000000E+00  0.15051573482E+03  0.15051573482E+03  0.00000000000E+00 0. -1.
         -3   -1    0    0    0  501 -0.00000000000E+00 -0.00000000000E+00 -0.11160386590E+03  0.11160386590E+03  0.00000000000E+00 0.  1.
         23    2    1    2    0    0  0.10822964585E+02  0.30079097770E+02 -0.66237860162E+02  0.11822743898E+03  0.92565568779E+02 0.  0.
         23    2    1    2    0    0 -0.10822964585E+02 -0.30079097770E+02  0.10514972908E+03  0.14389216175E+03  0.92879491827E+02 0.  0.
          5    1    3    3  502    0  0.43199641338E+02  0.10130745676E+02 -0.35561894657E+01  0.44761339381E+02  0.47000000000E+01 0. -1.
         -5    1    3    3    0  502 -0.32376676752E+02  0.19948352093E+02 -0.62681670696E+02  0.73466099597E+02  0.47000000000E+01 0.  1.
          5    1    4    4  503    0  0.39418296764E+02 -0.34729054234E+01  0.31868488251E+02  0.51025030478E+02  0.47000000000E+01 0.  1.
         -5    1    4    4    0  503 -0.50241261349E+02 -0.26606192347E+02  0.73281240826E+02  0.92867131269E+02  0.47000000000E+01 0. -1.
<mgrwt>
<rscale>  0 0.98152441E+02</rscale>
<asrwt>0</asrwt>
<pdfrwt beam="1">  1        3 0.23156267E-01 0.98226721E+02</pdfrwt>
<pdfrwt beam="2">  1       -3 0.17169826E-01 0.98226721E+02</pdfrwt>
<totfact> 0.11042646E+03</totfact>
</mgrwt>
</event>
<event>
 8    1  0.6396648E-004  0.1020550E+03  0.7546771E-02  0.1276311E+00
          2   -1    0    0  501    0  0.00000000000E+00  0.00000000000E+00  0.58003842496E+03  0.58003842496E+03  0.00000000000E+00 0. -1.
         -2   -1    0    0    0  501 -0.00000000000E+00 -0.00000000000E+00 -0.17913551316E+02  0.17913551316E+02  0.00000000000E+00 0.  1.
         23    2    1    2    0    0  0.44693296943E+02  0.14946639930E+02  0.26561724455E+03  0.28454830757E+03  0.90522516012E+02 0.  0.
         23    2    1    2    0    0 -0.44693296943E+02 -0.14946639930E+02  0.29650762910E+03  0.31340366870E+03  0.89912138266E+02 0.  0.
          5    1    4    4  502    0 -0.47415075406E+02 -0.44100507647E+02  0.14286572873E+03  0.15692593985E+03  0.47000000000E+01 0. -1.
         -5    1    3    3    0  503  0.59940735493E+02 -0.18949329518E+02  0.18951105293E+03  0.19972105058E+03  0.47000000000E+01 0.  1.
          5    1    3    3  503    0 -0.15247438550E+02  0.33895969448E+02  0.76106191614E+02  0.84827256994E+02  0.47000000000E+01 0. -1.
         -5    1    4    4    0  502  0.27217784627E+01  0.29153867717E+02  0.15364190036E+03  0.15647772886E+03  0.47000000000E+01 0.  1.
<mgrwt>
<rscale>  0 0.10191946E+03</rscale>
<asrwt>0</asrwt>
<pdfrwt beam="1">  1        2 0.89236666E-01 0.10205498E+03</pdfrwt>
<pdfrwt beam="2">  1       -2 0.27559314E-02 0.10205498E+03</pdfrwt>
<totfact> 0.23109560E+04</totfact>
</mgrwt>
</event>
<event>
 8    1  0.6396648E-004  0.9565001E+02  0.7546771E-02  0.1291016E+00
         -1   -1    0    0    0  501 -0.00000000000E+00  0.00000000000E+00  0.16331195595E+03  0.16331195595E+03  0.00000000000E+00 0.  1.
          1   -1    0    0  501    0  0.00000000000E+00 -0.00000000000E+00 -0.58353664972E+02  0.58353664972E+02  0.00000000000E+00 0. -1.
         23    2    1    2    0    0 -0.24317508848E+02 -0.11994289847E+02  0.79669061078E+02  0.12272892295E+03  0.89330985723E+02 0.  0.
         23    2    1    2    0    0  0.24317508848E+02  0.11994289847E+02  0.25289229903E+02  0.98936697974E+02  0.91726336629E+02 0.  0.
          5    1    4    4  502    0  0.58302431741E+02  0.15050957271E+02  0.22224982976E+02  0.64356388416E+02  0.47000000000E+01 0. -1.
         -5    1    3    3    0  503 -0.41322214175E+02  0.18244942706E+02  0.74625260516E+02  0.87358015235E+02  0.47000000000E+01 0.  1.
          5    1    3    3  503    0  0.17004705327E+02 -0.30239232552E+02  0.50438005620E+01  0.35370907717E+02  0.47000000000E+01 0. -1.
         -5    1    4    4    0  502 -0.33984922894E+02 -0.30566674245E+01  0.30642469271E+01  0.34580309557E+02  0.47000000000E+01 0.  1.
<mgrwt>
<rscale>  0 0.95071124E+02</rscale>
<asrwt>0</asrwt>
<pdfrwt beam="1">  1        1 0.89774870E-02 0.95650013E+02</pdfrwt>
<pdfrwt beam="2">  1       -1 0.25124916E-01 0.95650013E+02</pdfrwt>
<totfact> 0.93517099E+03</totfact>
</mgrwt>
</event>
<event>
 8    1  0.6396648E-004  0.1521579E+03  0.7546771E-02  0.1198525E+00
         -1   -1    0    0    0  501 -0.00000000000E+00  0.00000000000E+00  0.17770773420E+03  0.17770773420E+03  0.00000000000E+00 0.  1.
          1   -1    0    0  501    0  0.00000000000E+00 -0.00000000000E+00 -0.20061886151E+03  0.20061886151E+03  0.00000000000E+00 0. -1.
         23    2    1    2    0    0  0.87519838590E+02 -0.83379874956E+02 -0.12491390858E+03  0.19514199402E+03  0.88684765208E+02 0.  0.
         23    2    1    2    0    0 -0.87519838590E+02  0.83379874956E+02  0.10200278127E+03  0.18318460169E+03  0.92412689679E+02 0.  0.
          5    1    3    3  502    0  0.19215873135E+02 -0.61696620224E+02 -0.99944648823E+02  0.11910812548E+03  0.47000000000E+01 0. -1.
         -5    1    4    4    0  503 -0.56560682752E+02  0.98981071790E+02  0.92631459695E+02  0.14696612103E+03  0.47000000000E+01 0.  1.
          5    1    4    4  503    0 -0.30959155838E+02 -0.15601196834E+02  0.93713215779E+01  0.36218480656E+02  0.47000000000E+01 0. -1.
         -5    1    3    3    0  502  0.68303965455E+02 -0.21683254732E+02 -0.24969259760E+02  0.76033868543E+02  0.47000000000E+01 0.  1.
<mgrwt>
<rscale>  0 0.15159609E+03</rscale>
<asrwt>0</asrwt>
<pdfrwt beam="1">  1        1 0.30864440E-01 0.15215791E+03</pdfrwt>
<pdfrwt beam="2">  1       -1 0.27339651E-01 0.15215791E+03</pdfrwt>
<totfact> 0.17191863E+03</totfact>
</mgrwt>
</event>
<event>
 8    1  0.6396648E-004  0.1025811E+03  0.7546771E-02  0.1275135E+00
         -4   -1    0    0    0  501 -0.00000000000E+00  0.00000000000E+00  0.15730948129E+03  0.15730948129E+03  0.00000000000E+00 0.  1.
          4   -1    0    0  501    0  0.00000000000E+00 -0.00000000000E+00 -0.10842107863E+03  0.10842107863E+03  0.00000000000E+00 0. -1.
         23    2    1    2    0    0  0.55245917191E+01  0.48477919674E+02  0.10692009946E+03  0.14817149254E+03  0.90234437565E+02 0.  0.
         23    2    1    2    0    0 -0.55245917191E+01 -0.48477919674E+02 -0.58031696801E+02  0.11755906739E+03  0.89843345229E+02 0.  0.
          5    1    3    3  502    0 -0.37920748323E+02  0.41656077278E+02  0.45939550693E+02  0.72840539848E+02  0.47000000000E+01 0. -1.
         -5    1    3    3    0  502  0.43445340042E+02  0.68218423966E+01  0.60980548770E+02  0.75330952691E+02  0.47000000000E+01 0.  1.
          5    1    4    4  503    0  0.24187708463E+02  0.58302488681E+01 -0.48550251816E+02  0.54756314650E+02  0.47000000000E+01 0. -1.
         -5    1    4    4    0  503 -0.29712300183E+02 -0.54308168542E+02 -0.94814449845E+01  0.62802752739E+02  0.47000000000E+01 0.  1.
<mgrwt>
<rscale>  0 0.10249504E+03</rscale>
<asrwt>0</asrwt>
<pdfrwt beam="1">  1        4 0.16680166E-01 0.10258111E+03</pdfrwt>
<pdfrwt beam="2">  1       -4 0.24201459E-01 0.10258111E+03</pdfrwt>
<totfact> 0.77334141E+02</totfact>
</mgrwt>
</event>
<event>
 8    1  0.6396648E-004  0.1045445E+03  0.7546771E-02  0.1271062E+00
         -2   -1    0    0    0  501 -0.00000000000E+00  0.00000000000E+00  0.37804329453E+02  0.37804329453E+02  0.00000000000E+00 0.  1.
          2   -1    0    0  501    0  0.00000000000E+00 -0.00000000000E+00 -0.66787979170E+03  0.66787979170E+03  0.00000000000E+00 0. -1.
         23    2    1    2    0    0 -0.18681085307E+01 -0.50223496611E+02 -0.58078230106E+03  0.59010138918E+03  0.91573352267E+02 0.  0.
         23    2    1    2    0    0  0.18681085307E+01  0.50223496611E+02 -0.49293161191E+02  0.11558273198E+03  0.91671493660E+02 0.  0.
          5    1    4    4  502    0 -0.20509106009E+02  0.16551971939E+02 -0.66277355294E+02  0.71479850512E+02  0.47000000000E+01 0. -1.
         -5    1    4    4    0  502  0.22377214540E+02  0.33671524672E+02  0.16984194103E+02  0.44102881466E+02  0.47000000000E+01 0.  1.
          5    1    3    3  503    0 -0.34384551816E+02  0.83283992677E+01 -0.25382278319E+03  0.25631963426E+03  0.47000000000E+01 0.  1.
         -5    1    3    3    0  503  0.32516443286E+02 -0.58551895878E+02 -0.32695951787E+03  0.33378175492E+03  0.47000000000E+01 0. -1.
<mgrwt>
<rscale>  0 0.10452298E+03</rscale>
<asrwt>0</asrwt>
<pdfrwt beam="1">  1        2 0.10275074E+00 0.10454450E+03</pdfrwt>
<pdfrwt beam="2">  1       -2 0.58160505E-02 0.10454450E+03</pdfrwt>
<totfact> 0.65478748E+03</totfact>
</mgrwt>
</event>
<event>
 8    1  0.6396648E-004  0.1104616E+03  0.7546771E-02  0.1261319E+00
         -1   -1    0    0    0  501 -0.00000000000E+00  0.00000000000E+00  0.14329689782E+02  0.14329689782E+02  0.00000000000E+00 0.  1.
          1   -1    0    0  501    0  0.00000000000E+00 -0.00000000000E+00 -0.91128785848E+03  0.91128785848E+03  0.00000000000E+00 0. -1.
         23    2    1    2    0    0  0.29511647901E+02  0.47942067471E+02 -0.29998072577E+03  0.31850649280E+03  0.91041589009E+02 0.  0.
         23    2    1    2    0    0 -0.29511647901E+02 -0.47942067471E+02 -0.59697744294E+03  0.60711105547E+03  0.95038871521E+02 0.  0.
          5    1    3    3  502    0 -0.31514035764E+02  0.49819785751E+01 -0.92752189725E+02  0.98198845510E+02  0.47000000000E+01 0. -1.
         -5    1    3    3    0  502  0.61025683665E+02  0.42960088896E+02 -0.20722853604E+03  0.22030764729E+03  0.47000000000E+01 0.  1.
          5    1    4    4  503    0 -0.35314455108E+02 -0.73293821655E+02 -0.38776231834E+03  0.39623326534E+03  0.47000000000E+01 0. -1.
         -5    1    4    4    0  503  0.58028072064E+01  0.25351754184E+02 -0.20921512459E+03  0.21087779013E+03  0.47000000000E+01 0.  1.
<mgrwt>
<rscale>  0 0.10959655E+03</rscale>
<asrwt>0</asrwt>
<pdfrwt beam="1">  1        1 0.14019816E+00 0.11046161E+03</pdfrwt>
<pdfrwt beam="2">  1       -1 0.22045672E-02 0.11046161E+03</pdfrwt>
<totfact> 0.10553602E+04</totfact>
</mgrwt>
</event>
<event>
 8    1  0.6396648E-004  0.1248369E+03  0.7546771E-02  0.1236499E+00
          1   -1    0    0  501    0  0.00000000000E+00  0.00000000000E+00  0.32978600752E+03  0.32978600752E+03  0.00000000000E+00 0. -1.
         -1   -1    0    0    0  501 -0.00000000000E+00 -0.00000000000E+00 -0.71317763903E+02  0.71317763903E+02  0.00000000000E+00 0.  1.
         23    2    1    2    0    0 -0.16105869009E+02 -0.81439472326E+02  0.24939168878E+03  0.27889148584E+03  0.93233361906E+02 0.  0.
         23    2    1    2    0    0  0.16105869009E+02  0.81439472326E+02  0.90765548325E+01  0.12221228558E+03  0.89228203107E+02 0.  0.
          5    1    3    3  502    0 -0.54390342762E+02 -0.58177763440E+02  0.15750983177E+03  0.17656273290E+03  0.47000000000E+01 0. -1.
         -5    1    3    3    0  502  0.38284473753E+02 -0.23261708885E+02  0.91881857015E+02  0.10232875294E+03  0.47000000000E+01 0.  1.
          5    1    4    4  503    0 -0.24374851280E+02 -0.55093167763E+01  0.60577665759E+01  0.26139481291E+02  0.47000000000E+01 0. -1.
         -5    1    4    4    0  503  0.40480720289E+02  0.86948789102E+02  0.30187882566E+01  0.96072804289E+02  0.47000000000E+01 0.  1.
<mgrwt>
<rscale>  0 0.12408967E+03</rscale>
<asrwt>0</asrwt>
<pdfrwt beam="1">  1        1 0.50736308E-01 0.12483688E+03</pdfrwt>
<pdfrwt beam="2">  1       -1 0.10971964E-01 0.12483688E+03</pdfrwt>
<totfact> 0.39325516E+03</totfact>
</mgrwt>
</event>
<event>
 7    1  0.6396648E-004  0.3289116E+03  0.7546771E-02  0.1071619E+00
         -2   -1    0    0    0  501 -0.00000000000E+00  0.00000000000E+00  0.14070959673E+02  0.14070959673E+02  0.00000000000E+00 0.  1.
          2   -1    0    0  501    0  0.00000000000E+00 -0.00000000000E+00 -0.19220945174E+04  0.19220945174E+04  0.00000000000E+00 0. -1.
         23    2    1    2    0    0  0.17317491272E+02 -0.21934900701E+02 -0.51796169244E+03  0.52584126878E+03  0.86276820411E+02 0.  0.
          5    1    1    2  502    0 -0.11838516957E+03  0.34768013482E+02 -0.98100596883E+03  0.98874600582E+03  0.47000000000E+01 0. -1.
         -5    1    1    2    0  502  0.10106767830E+03 -0.12833112781E+02 -0.40905589640E+03  0.42157820243E+03  0.47000000000E+01 0.  1.
          5    1    3    3  503    0 -0.11092150209E+02  0.29378677210E+02 -0.17013880103E+03  0.17307641112E+03  0.47000000000E+01 0.  1.
         -5    1    3    3    0  503  0.28409641481E+02 -0.51313577911E+02 -0.34782289141E+03  0.35276485766E+03  0.47000000000E+01 0.  1.
<mgrwt>
<rscale>  0 0.32891163E+03</rscale>
<asrwt>0</asrwt>
<pdfrwt beam="1">  1        2 0.29570674E+00 0.32891163E+03</pdfrwt>
<pdfrwt beam="2">  1       -2 0.21647638E-02 0.32891163E+03</pdfrwt>
<totfact> 0.56178890E+03</totfact>
</mgrwt>
</event>
<event>
 8    1  0.6396648E-004  0.1056822E+03  0.7546771E-02  0.1269592E+00
          4   -1    0    0  501    0  0.00000000000E+00  0.00000000000E+00  0.15675220645E+03  0.15675220645E+03  0.00000000000E+00 0. -1.
         -4   -1    0    0    0  501 -0.00000000000E+00 -0.00000000000E+00 -0.70242490378E+02  0.70242490378E+02  0.00000000000E+00 0.  1.
         23    2    1    2    0    0 -0.20572205783E+02  0.42863356103E+02  0.38707420546E+02  0.11100426615E+03  0.92537558597E+02 0.  0.
         23    2    1    2    0    0  0.20572205783E+02 -0.42863356103E+02  0.47802295530E+02  0.11599043068E+03  0.94383460440E+02 0.  0.
          5    1    4    4  502    0  0.41131014745E+02  0.62157312212E+01  0.46483915013E+02  0.62555895354E+02  0.47000000000E+01 0. -1.
         -5    1    3    3    0  503 -0.40910948906E+02 -0.26908184998E+01  0.44347791403E+02  0.60578567554E+02  0.47000000000E+01 0.  1.
          5    1    3    3  503    0  0.20338743123E+02  0.45554174602E+02 -0.56403708569E+01  0.50425698596E+02  0.47000000000E+01 0. -1.
         -5    1    4    4    0  502 -0.20558808963E+02 -0.49079087324E+02  0.13183805171E+01  0.53434535328E+02  0.47000000000E+01 0.  1.
<mgrwt>
<rscale>  0 0.10526843E+03</rscale>
<asrwt>0</asrwt>
<pdfrwt beam="1">  1        4 0.24115724E-01 0.10568217E+03</pdfrwt>
<pdfrwt beam="2">  1       -4 0.10806537E-01 0.10568217E+03</pdfrwt>
<totfact> 0.16529049E+03</totfact>
</mgrwt>
</event>
<event>
 8    1  0.6396648E-004  0.9411241E+02  0.7546771E-02  0.1293764E+00
         -1   -1    0    0    0  501 -0.00000000000E+00  0.00000000000E+00  0.56548864874E+02  0.56548864874E+02  0.00000000000E+00 0.  1.
          1   -1    0    0  501    0  0.00000000000E+00 -0.00000000000E+00 -0.21634023649E+03  0.21634023649E+03  0.00000000000E+00 0. -1.
         23    2    1    2    0    0  0.15203122794E+02  0.13324968090E+02 -0.15226590275E+03  0.17847629250E+03  0.90885599121E+02 0.  0.
         23    2    1    2    0    0 -0.15203122794E+02 -0.13324968090E+02 -0.75254688678E+01  0.94412808864E+02  0.91915483346E+02 0.  0.
          5    1    4    4  502    0 -0.27192137933E+02 -0.44434352024E+02 -0.23264567610E+02  0.57246433174E+02  0.47000000000E+01 0. -1.
         -5    1    4    4    0  502  0.11989015139E+02  0.31109383933E+02  0.15739098742E+02  0.37166375690E+02  0.47000000000E+01 0.  1.
          5    1    3    3  503    0 -0.28200230200E+02 -0.10809975369E+02 -0.10642850711E+03  0.11073041893E+03  0.47000000000E+01 0. -1.
         -5    1    3    3    0  503  0.43403352994E+02  0.24134943459E+02 -0.45837395641E+02  0.67745873572E+02  0.47000000000E+01 0.  1.
<mgrwt>
<rscale>  0 0.93860002E+02</rscale>
<asrwt>0</asrwt>
<pdfrwt beam="1">  1        1 0.33283114E-01 0.94112410E+02</pdfrwt>
<pdfrwt beam="2">  1       -1 0.86998252E-02 0.94112410E+02</pdfrwt>
<totfact> 0.92020133E+03</totfact>
</mgrwt>
</event>
<event>
 8    1  0.6396648E-004  0.9922182E+02  0.7546771E-02  0.1282922E+00
          3   -1    0    0  501    0  0.00000000000E+00  0.00000000000E+00  0.28444307323E+02  0.28444307323E+02  0.00000000000E+00 0. -1.
         -3   -1    0    0    0  501 -0.00000000000E+00 -0.00000000000E+00 -0.40814303645E+03  0.40814303645E+03  0.00000000000E+00 0.  1.
         23    2    1    2    0    0 -0.33591867372E+02 -0.10958676346E+02 -0.28066380076E+03  0.29768630874E+03  0.92717113907E+02 0.  0.
         23    2    1    2    0    0  0.33591867372E+02  0.10958676346E+02 -0.99034928363E+02  0.13890103503E+03  0.90758329406E+02 0.  0.
          5    1    3    3  502    0  0.19214285959E+02 -0.35497512219E+02 -0.12370126561E+03  0.13020505087E+03  0.47000000000E+01 0. -1.
         -5    1    3    3    0  502 -0.52806153331E+02  0.24538835873E+02 -0.15696253515E+03  0.16748125787E+03  0.47000000000E+01 0.  1.
          5    1    4    4  503    0  0.25580964296E+01 -0.36478956093E+02 -0.21307612855E+02  0.42583593796E+02  0.47000000000E+01 0. -1.
         -5    1    4    4    0  503  0.31033770943E+02  0.47437632440E+02 -0.77727315508E+02  0.96317441237E+02  0.47000000000E+01 0.  1.
<mgrwt>
<rscale>  0 0.98761659E+02</rscale>
<asrwt>0</asrwt>
<pdfrwt beam="1">  1        3 0.43760476E-02 0.99221819E+02</pdfrwt>
<pdfrwt beam="2">  1       -3 0.62791232E-01 0.99221819E+02</pdfrwt>
<totfact> 0.15323055E+03</totfact>
</mgrwt>
</event>
<event>
 8    1  0.6396648E-004  0.9445581E+02  0.7546771E-02  0.1293237E+00
          2   -1    0    0  501    0  0.00000000000E+00  0.00000000000E+00  0.72502672304E+03  0.72502672304E+03  0.00000000000E+00 0. -1.
         -2   -1    0    0    0  501 -0.00000000000E+00 -0.00000000000E+00 -0.12147315042E+02  0.12147315042E+02  0.00000000000E+00 0.  1.
         23    2    1    2    0    0 -0.10983794506E+02  0.23888433611E+02  0.34088305100E+03  0.35372751478E+03  0.90722650170E+02 0.  0.
         23    2    1    2    0    0  0.10983794506E+02 -0.23888433611E+02  0.37199635701E+03  0.38344652331E+03  0.89211241485E+02 0.  0.
          5    1    3    3  502    0 -0.44903969589E+02  0.33737577953E+02  0.16773856099E+03  0.17695452945E+03  0.47000000000E+01 0. -1.
         -5    1    4    4    0  503  0.28242890277E+02  0.23250497740E+02  0.95184577161E+02  0.10208055753E+03  0.47000000000E+01 0.  1.
          5    1    4    4  503    0 -0.17259095771E+02 -0.47138931351E+02  0.27681177984E+03  0.28136596577E+03  0.47000000000E+01 0. -1.
         -5    1    3    3    0  502  0.33920175083E+02 -0.98491443414E+01  0.17314449001E+03  0.17677298533E+03  0.47000000000E+01 0.  1.
<mgrwt>
<rscale>  0 0.94091023E+02</rscale>
<asrwt>0</asrwt>
<pdfrwt beam="1">  1        2 0.11154254E+00 0.94455811E+02</pdfrwt>
<pdfrwt beam="2">  1       -2 0.18688183E-02 0.94455811E+02</pdfrwt>
<totfact> 0.31121049E+04</totfact>
</mgrwt>
</event>
<event>
 8    1  0.6396648E-004  0.9581364E+02  0.7546771E-02  0.1289686E+00
         -4   -1    0    0    0  501 -0.00000000000E+00  0.00000000000E+00  0.66730934317E+02  0.66730934317E+02  0.00000000000E+00 0.  1.
          4   -1    0    0  501    0  0.00000000000E+00 -0.00000000000E+00 -0.20181502304E+03  0.20181502304E+03  0.00000000000E+00 0. -1.
         23    2    1    2    0    0 -0.15791718012E+02 -0.31659214772E+02  0.85736482925E+01  0.96196470635E+02  0.89042513889E+02 0.  0.
         23    2    1    2    0    0  0.15791718012E+02  0.31659214772E+02 -0.14365773702E+03  0.17234948672E+03  0.88403144351E+02 0.  0.
          5    1    4    4  502    0  0.60136945330E+01  0.57800100782E+02 -0.58416531835E+02  0.82532401903E+02  0.47000000000E+01 0. -1.
         -5    1    3    3    0  503  0.28509044804E+02  0.13723624828E+02  0.60328026913E+01  0.32551316753E+02  0.47000000000E+01 0.  1.
          5    1    3    3  503    0 -0.44300762816E+02 -0.45382839600E+02  0.25408456012E+01  0.63645153882E+02  0.47000000000E+01 0. -1.
         -5    1    4    4    0  502  0.97780234791E+01 -0.26140886010E+02 -0.85241205183E+02  0.89817084820E+02  0.47000000000E+01 0.  1.
<mgrwt>
<rscale>  0 0.95664820E+02</rscale>
<asrwt>0</asrwt>
<pdfrwt beam="1">  1        4 0.31048465E-01 0.95813640E+02</pdfrwt>
<pdfrwt beam="2">  1       -4 0.10266298E-01 0.95813640E+02</pdfrwt>
<totfact> 0.11007641E+03</totfact>
</mgrwt>
</event>
<event>
 8    1  0.6396648E-004  0.1442602E+03  0.7546771E-02  0.1218130E+00
         -2   -1    0    0    0  501 -0.00000000000E+00  0.00000000000E+00  0.20362596394E+02  0.20362596394E+02  0.00000000000E+00 0.  1.
          2   -1    0    0  501    0  0.00000000000E+00 -0.00000000000E+00 -0.82946145852E+03  0.82946145852E+03  0.00000000000E+00 0. -1.
         23    2    1    2    0    0  0.58790807567E+02  0.37823963192E+02 -0.36891905470E+03  0.38660783932E+03  0.92072478272E+02 0.  0.
         23    2    1    2    0    0 -0.58790807567E+02 -0.37823963192E+02 -0.44017980742E+03  0.46321621559E+03  0.12619028600E+03 0.  0.
          5    1    3    3  502    0  0.56341551555E+02 -0.89214388341E+01 -0.11602086114E+03  0.12937114332E+03  0.47000000000E+01 0. -1.
         -5    1    4    4    0  503  0.25305495588E+02  0.26744637852E+02 -0.13960639677E+03  0.14445649788E+03  0.47000000000E+01 0.  1.
          5    1    4    4  503    0 -0.84096303155E+02 -0.64568601044E+02 -0.30057341065E+03  0.31875971771E+03  0.47000000000E+01 0. -1.
         -5    1    3    3    0  502  0.24492560124E+01  0.46745402026E+02 -0.25289819356E+03  0.25723669600E+03  0.47000000000E+01 0.  1.
<mgrwt>
<rscale>  0 0.13649079E+03</rscale>
<asrwt>0</asrwt>
<pdfrwt beam="1">  1        2 0.12760947E+00 0.14426018E+03</pdfrwt>
<pdfrwt beam="2">  1       -2 0.31327068E-02 0.14426018E+03</pdfrwt>
<totfact> 0.12905780E+04</totfact>
</mgrwt>
</event>
<event>
 8    1  0.6396648E-004  0.1077555E+03  0.7546771E-02  0.1265107E+00
         -1   -1    0    0    0  501 -0.00000000000E+00  0.00000000000E+00  0.11220303569E+03  0.11220303569E+03  0.00000000000E+00 0.  1.
          1   -1    0    0  501    0  0.00000000000E+00 -0.00000000000E+00 -0.13398252548E+03  0.13398252548E+03  0.00000000000E+00 0. -1.
         23    2    1    2    0    0 -0.13841067117E+02 -0.54757094619E+02  0.48486948131E+02  0.11754414329E+03  0.90971022482E+02 0.  0.
         23    2    1    2    0    0  0.13841067117E+02  0.54757094619E+02 -0.70266437925E+02  0.12864141788E+03  0.91767791443E+02 0.  0.
          5    1    3    3  502    0  0.14132319368E+02  0.21245108627E+02  0.11087705252E+02  0.28215320290E+02  0.47000000000E+01 0. -1.
         -5    1    4    4    0  503 -0.50149439663E+01 -0.22784276131E+02 -0.32363037695E+02  0.40171247312E+02  0.47000000000E+01 0.  1.
          5    1    4    4  503    0  0.18856011083E+02  0.77541370751E+02 -0.37903400231E+02  0.88470170571E+02  0.47000000000E+01 0. -1.
         -5    1    3    3    0  502 -0.27973386485E+02 -0.76002203247E+02  0.37399242879E+02  0.89328822995E+02  0.47000000000E+01 0.  1.
<mgrwt>
<rscale>  0 0.10758564E+03</rscale>
<asrwt>0</asrwt>
<pdfrwt beam="1">  1        1 0.20612696E-01 0.10775547E+03</pdfrwt>
<pdfrwt beam="2">  1       -1 0.17262006E-01 0.10775547E+03</pdfrwt>
<totfact> 0.58912582E+03</totfact>
</mgrwt>
</event>
<event>
 8    1  0.6396648E-004  0.9542282E+02  0.7546771E-02  0.1291336E+00
          2   -1    0    0  501    0  0.00000000000E+00  0.00000000000E+00  0.22985859360E+02  0.22985859360E+02  0.00000000000E+00 0. -1.
         -2   -1    0    0    0  501 -0.00000000000E+00 -0.00000000000E+00 -0.51926249069E+03  0.51926249069E+03  0.00000000000E+00 0.  1.
         23    2    1    2    0    0  0.40066996122E+01  0.33930452450E+02 -0.38250321424E+03  0.39375624482E+03  0.86993920410E+02 0.  0.
         23    2    1    2    0    0 -0.40066996122E+01 -0.33930452450E+02 -0.11377341709E+03  0.14849210523E+03  0.89096496191E+02 0.  0.
          5    1    4    4  502    0  0.39825649372E+02 -0.22366287439E+02 -0.78170787732E+02  0.90659225765E+02  0.47000000000E+01 0. -1.
         -5    1    3    3    0  503 -0.22296670745E+02 -0.14975905822E+02 -0.22575623621E+03  0.22739698210E+03  0.47000000000E+01 0.  1.
          5    1    3    3  503    0  0.26303370357E+02  0.48906358273E+02 -0.15674697803E+03  0.16635926272E+03  0.47000000000E+01 0. -1.
         -5    1    4    4    0  502 -0.43832348984E+02 -0.11564165011E+02 -0.35602629362E+02  0.57832879466E+02  0.47000000000E+01 0.  1.
<mgrwt>
<rscale>  0 0.94928964E+02</rscale>
<asrwt>0</asrwt>
<pdfrwt beam="1">  1        2 0.35362863E-02 0.95422822E+02</pdfrwt>
<pdfrwt beam="2">  1       -2 0.79886531E-01 0.95422822E+02</pdfrwt>
<totfact> 0.33108190E+03</totfact>
</mgrwt>
</event>
<event>
 8    1  0.6396648E-004  0.1895629E+03  0.7546771E-02  0.1159405E+00
         -1   -1    0    0    0  501 -0.00000000000E+00  0.00000000000E+00  0.26399862383E+03  0.26399862383E+03  0.00000000000E+00 0.  1.
          1   -1    0    0  501    0  0.00000000000E+00 -0.00000000000E+00 -0.27965478717E+03  0.27965478717E+03  0.00000000000E+00 0. -1.
         23    2    1    2    0    0 -0.70154975974E+02 -0.14818130614E+03  0.18805764046E+03  0.26702016342E+03  0.95156037094E+02 0.  0.
         23    2    1    2    0    0  0.70154975974E+02  0.14818130614E+03 -0.20371380380E+03  0.27663324758E+03  0.90261950268E+02 0.  0.
          5    1    3    3  502    0 -0.39579340777E+02 -0.25173634513E+02  0.96479965636E+01  0.48118706639E+02  0.47000000000E+01 0. -1.
         -5    1    4    4    0  503  0.33332050421E+02  0.59344108698E+02 -0.23227575826E+02  0.72071902300E+02  0.47000000000E+01 0.  1.
          5    1    4    4  503    0  0.36822925553E+02  0.88837197438E+02 -0.18048622797E+03  0.20456134528E+03  0.47000000000E+01 0. -1.
         -5    1    3    3    0  502 -0.30575635198E+02 -0.12300767162E+03  0.17840964389E+03  0.21890145678E+03  0.47000000000E+01 0.  1.
<mgrwt>
<rscale>  0 0.18895779E+03</rscale>
<asrwt>0</asrwt>
<pdfrwt beam="1">  1        1 0.43023813E-01 0.18956290E+03</pdfrwt>
<pdfrwt beam="2">  1       -1 0.40615173E-01 0.18956290E+03</pdfrwt>
<totfact> 0.57831510E+02</totfact>
</mgrwt>
</event>
<event>
 8    1  0.6396648E-004  0.9754296E+02  0.7546771E-02  0.1287661E+00
          2   -1    0    0  501    0  0.00000000000E+00  0.00000000000E+00  0.13900775314E+03  0.13900775314E+03  0.00000000000E+00 0. -1.
         -2   -1    0    0    0  501 -0.00000000000E+00 -0.00000000000E+00 -0.10459918640E+03  0.10459918640E+03  0.00000000000E+00 0.  1.
         23    2    1    2    0    0 -0.28733082521E+02  0.19168481740E+02  0.91158759737E+02  0.13075653424E+03  0.87145459120E+02 0.  0.
         23    2    1    2    0    0  0.28733082521E+02 -0.19168481740E+02 -0.56750192993E+02  0.11285040530E+03  0.91222852667E+02 0.  0.
          5    1    3    3  502    0 -0.22403808635E+02 -0.18438757993E+02  0.87327033182E+02  0.92141299980E+02  0.47000000000E+01 0. -1.
         -5    1    4    4    0  503  0.26222224711E+02  0.32633833759E+02 -0.40144020083E+02  0.58191103470E+02  0.47000000000E+01 0.  1.
          5    1    4    4  503    0  0.25108578100E+01 -0.51802315499E+02 -0.16606172910E+02  0.54659301832E+02  0.47000000000E+01 0. -1.
         -5    1    3    3    0  502 -0.63292738864E+01  0.37607239733E+02  0.38317265553E+01  0.38615234256E+02  0.47000000000E+01 0.  1.
<mgrwt>
<rscale>  0 0.96578223E+02</rscale>
<asrwt>0</asrwt>
<pdfrwt beam="1">  1        2 0.21385808E-01 0.97542963E+02</pdfrwt>
<pdfrwt beam="2">  1       -2 0.16092182E-01 0.97542963E+02</pdfrwt>
<totfact> 0.72187208E+03</totfact>
</mgrwt>
</event>
<event>
 8    1  0.6396648E-004  0.9339456E+02  0.7546771E-02  0.1297538E+00
         -1   -1    0    0    0  501 -0.00000000000E+00  0.00000000000E+00  0.59430174807E+02  0.59430174807E+02  0.00000000000E+00 0.  1.
          1   -1    0    0  501    0  0.00000000000E+00 -0.00000000000E+00 -0.14859004441E+03  0.14859004441E+03  0.00000000000E+00 0. -1.
         23    2    1    2    0    0 -0.11879042692E+02  0.98444629096E+01 -0.71096724517E+02  0.11737669084E+03  0.92111444514E+02 0.  0.
         23    2    1    2    0    0  0.11879042692E+02 -0.98444629096E+01 -0.18063145086E+02  0.90643528376E+02  0.87475407520E+02 0.  0.
          5    1    3    3  502    0  0.29808675755E+02 -0.92256662739E+01 -0.63175535200E+02  0.70618045260E+02  0.47000000000E+01 0. -1.
         -5    1    3    3    0  502 -0.41687718447E+02  0.19070129184E+02 -0.79211893170E+01  0.46758645581E+02  0.47000000000E+01 0.  1.
          5    1    4    4  503    0  0.42942658770E+02  0.14682000608E+02  0.26938605959E+01  0.45705360397E+02  0.47000000000E+01 0. -1.
         -5    1    4    4    0  503 -0.31063616078E+02 -0.24526463518E+02 -0.20757005682E+02  0.44938167980E+02  0.47000000000E+01 0.  1.
<mgrwt>
<rscale>  0 0.92230722E+02</rscale>
<asrwt>0</asrwt>
<pdfrwt beam="1">  1        1 0.22860006E-01 0.93394557E+02</pdfrwt>
<pdfrwt beam="2">  1       -1 0.91431040E-02 0.93394557E+02</pdfrwt>
<totfact> 0.13571176E+04</totfact>
</mgrwt>
</event>
<event>
 8    1  0.6396648E-004  0.9572722E+02  0.7546771E-02  0.1291049E+00
         -1   -1    0    0    0  501 -0.00000000000E+00  0.00000000000E+00  0.25717184733E+02  0.25717184733E+02  0.00000000000E+00 0.  1.
          1   -1    0    0  501    0  0.00000000000E+00 -0.00000000000E+00 -0.34973694761E+03  0.34973694761E+03  0.00000000000E+00 0. -1.
         23    2    1    2    0    0  0.18223173790E+02 -0.16375962209E+02 -0.17777350092E+03  0.20066377049E+03  0.89790171817E+02 0.  0.
         23    2    1    2    0    0 -0.18223173790E+02  0.16375962209E+02 -0.14624626195E+03  0.17479036185E+03  0.92538885127E+02 0.  0.
          5    1    4    4  502    0 -0.25972621029E+02 -0.33460183938E+02 -0.47541372831E+02  0.63846950460E+02  0.47000000000E+01 0. -1.
         -5    1    3    3    0  503 -0.19621979349E+02  0.27321158572E+02 -0.51278834890E+02  0.61506720665E+02  0.47000000000E+01 0. -1.
          5    1    3    3  503    0  0.37845153139E+02 -0.43697120781E+02 -0.12649466604E+03  0.13915704983E+03  0.47000000000E+01 0.  1.
         -5    1    4    4    0  502  0.77494472391E+01  0.49836146147E+02 -0.98704889115E+02  0.11094341139E+03  0.47000000000E+01 0.  1.
<mgrwt>
<rscale>  0 0.95056583E+02</rscale>
<asrwt>0</asrwt>
<pdfrwt beam="1">  1        1 0.53805680E-01 0.95727224E+02</pdfrwt>
<pdfrwt beam="2">  1       -1 0.39564903E-02 0.95727224E+02</pdfrwt>
<totfact> 0.16367272E+04</totfact>
</mgrwt>
</event>
<event>
 8    1  0.6396648E-004  0.9443860E+02  0.7546771E-02  0.1295458E+00
          1   -1    0    0  501    0  0.00000000000E+00  0.00000000000E+00  0.78545014571E+02  0.78545014571E+02  0.00000000000E+00 0. -1.
         -1   -1    0    0    0  501 -0.00000000000E+00 -0.00000000000E+00 -0.12557615827E+03  0.12557615827E+03  0.00000000000E+00 0.  1.
         23    2    1    2    0    0 -0.24644119287E+01 -0.13325734871E+02 -0.61724011727E+02  0.10854644469E+03  0.88254339804E+02 0.  0.
         23    2    1    2    0    0  0.24644119287E+01  0.13325734871E+02  0.14692868031E+02  0.95574728151E+02  0.93461220589E+02 0.  0.
          5    1    3    3  502    0  0.22615910373E+02  0.25173083963E+02 -0.36715458702E+01  0.34361807392E+02  0.47000000000E+01 0. -1.
         -5    1    4    4    0  503 -0.24955247128E+02  0.19071069858E+02 -0.29298875635E+02  0.43208612315E+02  0.47000000000E+01 0.  1.
          5    1    4    4  503    0  0.27419659057E+02 -0.57453349862E+01  0.43991743666E+02  0.52366115835E+02  0.47000000000E+01 0. -1.
         -5    1    3    3    0  502 -0.25080322302E+02 -0.38498818834E+02 -0.58052465856E+02  0.74184637293E+02  0.47000000000E+01 0.  1.
<mgrwt>
<rscale>  0 0.93123931E+02</rscale>
<asrwt>0</asrwt>
<pdfrwt beam="1">  1        1 0.12083848E-01 0.94438595E+02</pdfrwt>
<pdfrwt beam="2">  1       -1 0.19319409E-01 0.94438595E+02</pdfrwt>
<totfact> 0.96553665E+03</totfact>
</mgrwt>
</event>
<event>
 7    1  0.6396648E-004  0.1575085E+03  0.7546771E-02  0.1207448E+00
         -1   -1    0    0    0  501 -0.00000000000E+00  0.00000000000E+00  0.11312679457E+03  0.11312679457E+03  0.00000000000E+00 0.  1.
          1   -1    0    0  501    0  0.00000000000E+00 -0.00000000000E+00 -0.21589961998E+03  0.21589961998E+03  0.00000000000E+00 0. -1.
         23    2    1    2    0    0  0.57617916222E+02  0.20670020117E+02  0.38023239528E+02  0.11776247323E+03  0.93140535509E+02 0.  0.
          5    1    3    3  502    0  0.21084477292E+02  0.40702478618E+02 -0.16532254821E+02  0.48955616611E+02  0.47000000000E+01 0. -1.
         -5    1    1    2    0  503 -0.31145404242E+01  0.58885321091E+02 -0.38387899131E+02  0.70518807433E+02  0.47000000000E+01 0.  1.
          5    1    1    2  503    0 -0.54503375798E+02 -0.79555341208E+02 -0.10240816580E+03  0.14074513388E+03  0.47000000000E+01 0. -1.
         -5    1    3    3    0  502  0.36533438930E+02 -0.20032458501E+02  0.54555494349E+02  0.68806856615E+02  0.47000000000E+01 0.  1.
<mgrwt>
<rscale>  0 0.14446176E+03</rscale>
<asrwt>0</asrwt>
<pdfrwt beam="1">  1        1 0.33215326E-01 0.15750848E+03</pdfrwt>
<pdfrwt beam="2">  1       -1 0.17404122E-01 0.15750848E+03</pdfrwt>
<totfact> 0.32738559E+03</totfact>
</mgrwt>
</event>
<event>
 8    1  0.6396648E-004  0.9597701E+02  0.7546771E-02  0.1292244E+00
         -1   -1    0    0    0  501 -0.00000000000E+00  0.00000000000E+00  0.21546119793E+03  0.21546119793E+03  0.00000000000E+00 0.  1.
          1   -1    0    0  501    0  0.00000000000E+00 -0.00000000000E+00 -0.93778998104E+02  0.93778998104E+02  0.00000000000E+00 0. -1.
         23    2    1    2    0    0 -0.76568942474E+01 -0.66716836114E+01  0.17682407391E+03  0.19855048103E+03  0.89735171557E+02 0.  0.
         23    2    1    2    0    0  0.76568942474E+01  0.66716836114E+01 -0.55141874083E+02  0.11068971500E+03  0.95438185948E+02 0.  0.
          5    1    4    4  502    0 -0.40975428131E+02  0.10734609035E+02 -0.42214635406E+02  0.59986523355E+02  0.47000000000E+01 0. -1.
         -5    1    3    3    0  503  0.29180246131E+02 -0.17271239936E+01  0.16472559882E+02  0.33880746016E+02  0.47000000000E+01 0.  1.
          5    1    3    3  503    0 -0.36837140378E+02 -0.49445596177E+01  0.16035151402E+03  0.16466973502E+03  0.47000000000E+01 0. -1.
         -5    1    4    4    0  502  0.48632322379E+02 -0.40629254233E+01 -0.12927238677E+02  0.50703191643E+02  0.47000000000E+01 0.  1.
<mgrwt>
<rscale>  0 0.94527247E+02</rscale>
<asrwt>0</asrwt>
<pdfrwt beam="1">  1        1 0.14427538E-01 0.95977011E+02</pdfrwt>
<pdfrwt beam="2">  1       -1 0.33147876E-01 0.95977011E+02</pdfrwt>
<totfact> 0.31866390E+03</totfact>
</mgrwt>
</event>
<event>
 8    1  0.6396648E-004  0.9801262E+02  0.7546771E-02  0.1285084E+00
          1   -1    0    0  501    0  0.00000000000E+00  0.00000000000E+00  0.10768284787E+03  0.10768284787E+03  0.00000000000E+00 0. -1.
         -1   -1    0    0    0  501 -0.00000000000E+00 -0.00000000000E+00 -0.96004882781E+02  0.96004882781E+02  0.00000000000E+00 0.  1.
         23    2    1    2    0    0  0.35279922495E+02 -0.15191532083E+00 -0.23007749906E+02  0.10067686242E+03  0.91442758388E+02 0.  0.
         23    2    1    2    0    0 -0.35279922495E+02  0.15191532083E+00  0.34685714991E+02  0.10301086823E+03  0.90351779944E+02 0.  0.
          5    1    4    4  502    0 -0.55360686360E+02  0.13754148867E+02  0.48219876638E+02  0.74841356937E+02  0.47000000000E+01 0. -1.
         -5    1    3    3    0  503  0.40760919976E+02  0.37568226226E+02 -0.27414505617E+02  0.62019910813E+02  0.47000000000E+01 0.  1.
          5    1    3    3  503    0 -0.54809974812E+01 -0.37720141546E+02  0.44067557114E+01  0.38656951607E+02  0.47000000000E+01 0. -1.
         -5    1    4    4    0  502  0.20080763865E+02 -0.13602233546E+02 -0.13534161646E+02  0.28169511290E+02  0.47000000000E+01 0.  1.
<mgrwt>
<rscale>  0 0.97757363E+02</rscale>
<asrwt>0</asrwt>
<pdfrwt beam="1">  1        1 0.16566592E-01 0.98012622E+02</pdfrwt>
<pdfrwt beam="2">  1       -1 0.14769982E-01 0.98012622E+02</pdfrwt>
<totfact> 0.98374928E+03</totfact>
</mgrwt>
</event>
<event>
 8    1  0.6396648E-004  0.1033049E+03  0.7546771E-02  0.1273772E+00
          1   -1    0    0  501    0  0.00000000000E+00  0.00000000000E+00  0.19523491980E+03  0.19523491980E+03  0.00000000000E+00 0. -1.
         -1   -1    0    0    0  501 -0.00000000000E+00 -0.00000000000E+00 -0.59243926689E+02  0.59243926689E+02  0.00000000000E+00 0.  1.
         23    2    1    2    0    0 -0.17817396772E+02 -0.44883288594E+02  0.31677116624E+02  0.10805253565E+03  0.91323280273E+02 0.  0.
         23    2    1    2    0    0  0.17817396772E+02  0.44883288594E+02  0.10431387648E+03  0.14642631084E+03  0.90704522797E+02 0.  0.
          5    1    3    3  502    0 -0.24085555446E+02  0.11240761493E+02  0.42512753467E+02  0.50357649939E+02  0.47000000000E+01 0. -1.
         -5    1    3    3    0  502  0.62681586739E+01 -0.56124050086E+02 -0.10835636843E+02  0.57694885709E+02  0.47000000000E+01 0.  1.
          5    1    4    4  503    0  0.42018679226E+02  0.59723463994E+02  0.82780002694E+02  0.11048565699E+03  0.47000000000E+01 0. -1.
         -5    1    4    4    0  503 -0.24201282454E+02 -0.14840175401E+02  0.21533873790E+02  0.35940653845E+02  0.47000000000E+01 0.  1.
<mgrwt>
<rscale>  0 0.10316802E+03</rscale>
<asrwt>0</asrwt>
<pdfrwt beam="1">  1        1 0.30036141E-01 0.10330494E+03</pdfrwt>
<pdfrwt beam="2">  1       -1 0.91144503E-02 0.10330494E+03</pdfrwt>
<totfact> 0.98114091E+03</totfact>
</mgrwt>
</event>
<event>
 8    1  0.6396648E-004  0.1130001E+03  0.7546771E-02  0.1260050E+00
          1   -1    0    0  501    0  0.00000000000E+00  0.00000000000E+00  0.29217494788E+03  0.29217494788E+03  0.00000000000E+00 0. -1.
         -1   -1    0    0    0  501 -0.00000000000E+00 -0.00000000000E+00 -0.39819649498E+02  0.39819649498E+02  0.00000000000E+00 0.  1.
         23    2    1    2    0    0  0.33014239338E+02  0.34970555927E+02  0.12493741451E+03  0.16845883285E+03  0.10225527390E+03 0.  0.
         23    2    1    2    0    0 -0.33014239338E+02 -0.34970555927E+02  0.12741788388E+03  0.16353576453E+03  0.90530378154E+02 0.  0.
          5    1    3    3  502    0  0.33729053433E+02  0.52814860099E+01 -0.52364756763E+01  0.34857622086E+02  0.47000000000E+01 0.  1.
         -5    1    3    3    0  502 -0.71481409494E+00  0.29689069917E+02  0.13017389018E+03  0.13360121076E+03  0.47000000000E+01 0. -1.
          5    1    4    4  503    0 -0.50422055888E+02 -0.15002157569E+02  0.12596768691E+03  0.13659208102E+03  0.47000000000E+01 0. -1.
         -5    1    4    4    0  503  0.17407816550E+02 -0.19968398357E+02  0.14501969671E+01  0.26943683513E+02  0.47000000000E+01 0.  1.
<mgrwt>
<rscale>  0 0.11028142E+03</rscale>
<asrwt>0</asrwt>
<pdfrwt beam="1">  1        1 0.44949991E-01 0.11300009E+03</pdfrwt>
<pdfrwt beam="2">  1       -1 0.61261001E-02 0.11300009E+03</pdfrwt>
<totfact> 0.10909137E+04</totfact>
</mgrwt>
</event>
<event>
 8    1  0.6396648E-004  0.9252442E+02  0.7546771E-02  0.1297243E+00
         -1   -1    0    0    0  501 -0.00000000000E+00  0.00000000000E+00  0.14978345866E+02  0.14978345866E+02  0.00000000000E+00 0.  1.
          1   -1    0    0  501    0  0.00000000000E+00 -0.00000000000E+00 -0.58550102238E+03  0.58550102238E+03  0.00000000000E+00 0. -1.
         23    2    1    2    0    0 -0.84326618535E+01  0.12238870046E+02 -0.33903260001E+03  0.35143117638E+03  0.91322878497E+02 0.  0.
         23    2    1    2    0    0  0.84326618535E+01 -0.12238870046E+02 -0.23149007650E+03  0.24904819186E+03  0.90644617190E+02 0.  0.
          5    1    3    3  502    0 -0.68350502896E+01  0.33860747712E+02 -0.32087513913E+03  0.32276340106E+03  0.47000000000E+01 0. -1.
         -5    1    3    3    0  502 -0.15976115639E+01 -0.21621877665E+02 -0.18157460874E+02  0.28667775321E+02  0.47000000000E+01 0.  1.
          5    1    4    4  503    0  0.37811409450E+02  0.21062704300E+02 -0.79582419802E+02  0.90712687858E+02  0.47000000000E+01 0. -1.
         -5    1    4    4    0  503 -0.29378747596E+02 -0.33301574346E+02 -0.15190765670E+03  0.15833550400E+03  0.47000000000E+01 0.  1.
<mgrwt>
<rscale>  0 0.92356615E+02</rscale>
<asrwt>0</asrwt>
<pdfrwt beam="1">  1        1 0.90077064E-01 0.92524418E+02</pdfrwt>
<pdfrwt beam="2">  1       -1 0.23043613E-02 0.92524418E+02</pdfrwt>
<totfact> 0.18487606E+04</totfact>
</mgrwt>
</event>
<event>
 8    1  0.6396648E-004  0.1338952E+03  0.7546771E-02  0.1224689E+00
          1   -1    0    0  501    0  0.00000000000E+00  0.00000000000E+00  0.73756216913E+03  0.73756216913E+03  0.00000000000E+00 0. -1.
         -1   -1    0    0    0  501 -0.00000000000E+00 -0.00000000000E+00 -0.28967235508E+02  0.28967235508E+02  0.00000000000E+00 0.  1.
         23    2    1    2    0    0  0.80580471758E+02 -0.38060657177E+02  0.17046209017E+03  0.21198914994E+03  0.89108077386E+02 0.  0.
         23    2    1    2    0    0 -0.80580471758E+02  0.38060657177E+02  0.53813284345E+03  0.55454025470E+03  0.99930529977E+02 0.  0.
          5    1    3    3  502    0  0.32179049935E+02  0.17371132527E+02  0.11192141945E+03  0.11783777676E+03  0.47000000000E+01 0. -1.
         -5    1    3    3    0  502  0.48401421822E+02 -0.55431789704E+02  0.58540670722E+02  0.94151373186E+02  0.47000000000E+01 0.  1.
          5    1    4    4  503    0 -0.10231763247E+03  0.40571390871E+02  0.47331847894E+03  0.48597058365E+03  0.47000000000E+01 0. -1.
         -5    1    4    4    0  503  0.21737160711E+02 -0.25107336945E+01  0.64814364514E+02  0.68569671042E+02  0.47000000000E+01 0.  1.
<mgrwt>
<rscale>  0 0.13188253E+03</rscale>
<asrwt>0</asrwt>
<pdfrwt beam="1">  1        1 0.11347109E+00 0.13389525E+03</pdfrwt>
<pdfrwt beam="2">  1       -1 0.44564983E-02 0.13389525E+03</pdfrwt>
<totfact> 0.52864961E+03</totfact>
</mgrwt>
</event>
<event>
 8    1  0.6396648E-004  0.1099324E+03  0.7546771E-02  0.1266298E+00
          1   -1    0    0  501    0  0.00000000000E+00  0.00000000000E+00  0.21117287634E+03  0.21117287634E+03  0.00000000000E+00 0. -1.
         -1   -1    0    0    0  501 -0.00000000000E+00 -0.00000000000E+00 -0.53183108135E+02  0.53183108135E+02  0.00000000000E+00 0.  1.
         23    2    1    2    0    0  0.27702784359E+02 -0.32353124707E+02  0.98665840855E+02  0.13943812648E+03  0.88847476186E+02 0.  0.
         23    2    1    2    0    0 -0.27702784359E+02  0.32353124707E+02  0.59323927353E+02  0.12491785800E+03  0.10134581368E+03 0.  0.
          5    1    4    4  502    0 -0.26751161811E+02 -0.33913948321E+02  0.21763583747E+02  0.48595515498E+02  0.47000000000E+01 0. -1.
         -5    1    4    4    0  502 -0.95162254839E+00  0.66267073028E+02  0.37560343606E+02  0.76322342502E+02  0.47000000000E+01 0.  1.
          5    1    3    3  503    0  0.16260489790E+02 -0.52194129410E+02  0.10199847299E+03  0.11582059042E+03  0.47000000000E+01 0. -1.
         -5    1    3    3    0  503  0.11442294569E+02  0.19841004703E+02 -0.33326321326E+01  0.23617536060E+02  0.47000000000E+01 0.  1.
<mgrwt>
<rscale>  0 0.10696357E+03</rscale>
<asrwt>0</asrwt>
<pdfrwt beam="1">  1        1 0.32488134E-01 0.10993245E+03</pdfrwt>
<pdfrwt beam="2">  1       -1 0.81820167E-02 0.10993245E+03</pdfrwt>
<totfact> 0.10533819E+04</totfact>
</mgrwt>
</event>
<event>
 8    1  0.6396648E-004  0.9628126E+02  0.7546771E-02  0.1291307E+00
         -1   -1    0    0    0  501 -0.00000000000E+00  0.00000000000E+00  0.99250632116E+02  0.99250632116E+02  0.00000000000E+00 0.  1.
          1   -1    0    0  501    0  0.00000000000E+00 -0.00000000000E+00 -0.12007323075E+03  0.12007323075E+03  0.00000000000E+00 0. -1.
         23    2    1    2    0    0 -0.88625248908E+00 -0.11624207293E+02 -0.66948580560E+02  0.11726974653E+03  0.95572869445E+02 0.  0.
         23    2    1    2    0    0  0.88625248908E+00  0.11624207293E+02  0.46125981921E+02  0.10205411634E+03  0.90285817352E+02 0.  0.
          5    1    3    3  502    0 -0.44896835534E+02  0.67902513986E+01 -0.46466789883E+02  0.65138973872E+02  0.47000000000E+01 0. -1.
         -5    1    4    4    0  503  0.41530171447E+02  0.21756302254E+02  0.34284085248E+02  0.58271608263E+02  0.47000000000E+01 0.  1.
          5    1    4    4  503    0 -0.40643918958E+02 -0.10132094961E+02  0.11841896673E+02  0.43782508076E+02  0.47000000000E+01 0. -1.
         -5    1    3    3    0  502  0.44010583045E+02 -0.18414458691E+02 -0.20481790677E+02  0.52130772660E+02  0.47000000000E+01 0.  1.
<mgrwt>
<rscale>  0 0.94942104E+02</rscale>
<asrwt>0</asrwt>
<pdfrwt beam="1">  1        1 0.18472805E-01 0.96281260E+02</pdfrwt>
<pdfrwt beam="2">  1       -1 0.15269328E-01 0.96281260E+02</pdfrwt>
<totfact> 0.81236722E+03</totfact>
</mgrwt>
</event>
<event>
 8    1  0.6396648E-004  0.1016333E+03  0.7546771E-02  0.1277246E+00
          2   -1    0    0  501    0  0.00000000000E+00  0.00000000000E+00  0.24492231779E+03  0.24492231779E+03  0.00000000000E+00 0. -1.
         -2   -1    0    0    0  501 -0.00000000000E+00 -0.00000000000E+00 -0.48167944908E+02  0.48167944908E+02  0.00000000000E+00 0.  1.
         23    2    1    2    0    0 -0.30256914549E+02 -0.39321626541E+02  0.15154553374E+03  0.18247019717E+03  0.88699790678E+02 0.  0.
         23    2    1    2    0    0  0.30256914549E+02  0.39321626541E+02  0.45208839144E+02  0.11062006553E+03  0.87927746301E+02 0.  0.
          5    1    3    3  502    0  0.26194763160E+01 -0.61346530280E+02  0.86340779556E+02  0.10605224490E+03  0.47000000000E+01 0. -1.
         -5    1    4    4    0  503 -0.20443432580E+02  0.44801044170E+01 -0.13589392288E+02  0.25392259726E+02  0.47000000000E+01 0.  1.
          5    1    4    4  503    0  0.50700347128E+02  0.34841522124E+02  0.58798231432E+02  0.85227805805E+02  0.47000000000E+01 0. -1.
         -5    1    3    3    0  502 -0.32876390865E+02  0.22024903739E+02  0.65204754187E+02  0.76417952273E+02  0.47000000000E+01 0.  1.
<mgrwt>
<rscale>  0 0.10146459E+03</rscale>
<asrwt>0</asrwt>
<pdfrwt beam="1">  1        2 0.37680356E-01 0.10163328E+03</pdfrwt>
<pdfrwt beam="2">  1       -2 0.74104532E-02 0.10163328E+03</pdfrwt>
<totfact> 0.13312727E+04</totfact>
</mgrwt>
</event>
<event>
 8    1  0.6396648E-004  0.9538259E+02  0.7546771E-02  0.1291332E+00
          2   -1    0    0  501    0  0.00000000000E+00  0.00000000000E+00  0.58790082765E+03  0.58790082765E+03  0.00000000000E+00 0. -1.
         -2   -1    0    0    0  501 -0.00000000000E+00 -0.00000000000E+00 -0.17369307036E+02  0.17369307036E+02  0.00000000000E+00 0.  1.
         23    2    1    2    0    0  0.72452717009E+01  0.25112840114E+02  0.17558714217E+03  0.19897110556E+03  0.89863828387E+02 0.  0.
         23    2    1    2    0    0 -0.72452717009E+01 -0.25112840114E+02  0.39494437845E+03  0.40629902913E+03  0.91731621055E+02 0.  0.
          5    1    3    3  502    0  0.18135169135E+02 -0.17765592655E+02  0.13897922300E+03  0.14135704817E+03  0.47000000000E+01 0. -1.
         -5    1    3    3    0  502 -0.10889897434E+02  0.42878432769E+02  0.36607919165E+02  0.57614057386E+02  0.47000000000E+01 0.  1.
          5    1    4    4  503    0  0.33190230950E+02 -0.13838929946E+02  0.30244467327E+03  0.30461119119E+03  0.47000000000E+01 0. -1.
         -5    1    4    4    0  503 -0.40435502651E+02 -0.11273910168E+02  0.92499705180E+02  0.10168783793E+03  0.47000000000E+01 0.  1.
<mgrwt>
<rscale>  0 0.94930666E+02</rscale>
<asrwt>0</asrwt>
<pdfrwt beam="1">  1        2 0.90446266E-01 0.95382593E+02</pdfrwt>
<pdfrwt beam="2">  1       -2 0.26722015E-02 0.95382593E+02</pdfrwt>
<totfact> 0.23650916E+04</totfact>
</mgrwt>
</event>
<event>
 8    1  0.6396648E-004  0.1124183E+03  0.7546771E-02  0.1257163E+00
         -1   -1    0    0    0  501 -0.00000000000E+00  0.00000000000E+00  0.11026143593E+03  0.11026143593E+03  0.00000000000E+00 0.  1.
          1   -1    0    0  501    0  0.00000000000E+00 -0.00000000000E+00 -0.12251678773E+03  0.12251678773E+03  0.00000000000E+00 0. -1.
         23    2    1    2    0    0  0.46507984943E+02  0.45355159091E+02  0.27310792850E+02  0.11568813191E+03  0.91748467780E+02 0.  0.
         23    2    1    2    0    0 -0.46507984943E+02 -0.45355159091E+02 -0.39566144650E+02  0.11709009175E+03  0.89019810511E+02 0.  0.
          5    1    4    4  502    0 -0.26924464024E+02 -0.65758996521E+02 -0.49524491863E+02  0.86740634542E+02  0.47000000000E+01 0. -1.
         -5    1    3    3    0  503  0.66874942052E+02  0.56959677514E+02  0.16743754257E+02  0.89549461437E+02  0.47000000000E+01 0.  1.
          5    1    3    3  503    0 -0.20366957109E+02 -0.11604518423E+02  0.10567038593E+02  0.26138670477E+02  0.47000000000E+01 0. -1.
         -5    1    4    4    0  502 -0.19583520920E+02  0.20403837430E+02  0.99583472138E+01  0.30349457206E+02  0.47000000000E+01 0.  1.
<mgrwt>
<rscale>  0 0.11186020E+03</rscale>
<asrwt>0</asrwt>
<pdfrwt beam="1">  1        1 0.18848736E-01 0.11241826E+03</pdfrwt>
<pdfrwt beam="2">  1       -1 0.16963298E-01 0.11241826E+03</pdfrwt>
<totfact> 0.68017901E+03</totfact>
</mgrwt>
</event>
<event>
 8    1  0.6396648E-004  0.1124055E+03  0.7546771E-02  0.1256924E+00
         -2   -1    0    0    0  501 -0.00000000000E+00  0.00000000000E+00  0.99223452811E+02  0.99223452811E+02  0.00000000000E+00 0.  1.
          2   -1    0    0  501    0  0.00000000000E+00 -0.00000000000E+00 -0.12619463731E+03  0.12619463731E+03  0.00000000000E+00 0. -1.
         23    2    1    2    0    0  0.73057922143E+01  0.58391989425E+02 -0.49348490413E+01  0.11087294390E+03  0.93837401529E+02 0.  0.
         23    2    1    2    0    0 -0.73057922143E+01 -0.58391989425E+02 -0.22036335462E+02  0.11454514622E+03  0.95770514323E+02 0.  0.
          5    1    4    4  502    0 -0.37890967503E+01 -0.80656638321E+02  0.24684391176E+01  0.80919921843E+02  0.47000000000E+01 0. -1.
         -5    1    4    4    0  502 -0.35166954639E+01  0.22264648896E+02 -0.24504774579E+02  0.33625224380E+02  0.47000000000E+01 0.  1.
          5    1    3    3  503    0  0.38429385584E+02  0.11064207158E+02 -0.28511619287E+02  0.49337985272E+02  0.47000000000E+01 0. -1.
         -5    1    3    3    0  503 -0.31123593369E+02  0.47327782267E+02  0.23576770245E+02  0.61534958631E+02  0.47000000000E+01 0.  1.
<mgrwt>
<rscale>  0 0.11199260E+03</rscale>
<asrwt>0</asrwt>
<pdfrwt beam="1">  1        2 0.19414560E-01 0.11240547E+03</pdfrwt>
<pdfrwt beam="2">  1       -2 0.15265147E-01 0.11240547E+03</pdfrwt>
<totfact> 0.88704223E+03</totfact>
</mgrwt>
</event>
<event>
 8    1  0.6396648E-004  0.1246313E+03  0.7546771E-02  0.1250419E+00
         -2   -1    0    0    0  501 -0.00000000000E+00  0.00000000000E+00  0.12386115642E+03  0.12386115642E+03  0.00000000000E+00 0.  1.
          2   -1    0    0  501    0  0.00000000000E+00 -0.00000000000E+00 -0.12512203727E+03  0.12512203727E+03  0.00000000000E+00 0. -1.
         23    2    1    2    0    0  0.17486645550E+02  0.19640858029E+00 -0.61000299930E+02  0.11077406163E+03  0.90796667284E+02 0.  0.
         23    2    1    2    0    0 -0.17486645550E+02 -0.19640858029E+00  0.59739419075E+02  0.13820913206E+03  0.12339831703E+03 0.  0.
          5    1    4    4  502    0  0.50983364287E+02 -0.16992551769E+02  0.24386091434E+02  0.59201534651E+02  0.47000000000E+01 0. -1.
         -5    1    4    4    0  502 -0.68470009837E+02  0.16796143189E+02  0.35353327642E+02  0.79007597410E+02  0.47000000000E+01 0.  1.
          5    1    3    3  503    0  0.27360935961E+01 -0.28322499617E+02 -0.71150870477E+02  0.76773605897E+02  0.47000000000E+01 0. -1.
         -5    1    3    3    0  503  0.14750551954E+02  0.28518908198E+02  0.10150570547E+02  0.34000455735E+02  0.47000000000E+01 0.  1.
<mgrwt>
<rscale>  0 0.11566854E+03</rscale>
<asrwt>0</asrwt>
<pdfrwt beam="1">  1        2 0.19249544E-01 0.12463132E+03</pdfrwt>
<pdfrwt beam="2">  1       -2 0.19055562E-01 0.12463132E+03</pdfrwt>
<totfact> 0.62571214E+03</totfact>
</mgrwt>
</event>
<event>
 8    1  0.6396648E-004  0.1030102E+03  0.7546771E-02  0.1279484E+00
         -3   -1    0    0    0  501 -0.00000000000E+00  0.00000000000E+00  0.13341714175E+03  0.13341714175E+03  0.00000000000E+00 0.  1.
          3   -1    0    0  501    0  0.00000000000E+00 -0.00000000000E+00 -0.10408293695E+03  0.10408293695E+03  0.00000000000E+00 0. -1.
         23    2    1    2    0    0  0.74051343747E+01  0.12145131580E+02  0.80088797796E+02  0.12266482971E+03  0.91815601498E+02 0.  0.
         23    2    1    2    0    0 -0.74051343747E+01 -0.12145131580E+02 -0.50754593001E+02  0.11483524899E+03  0.10202335745E+03 0.  0.
          5    1    3    3  502    0  0.44446689865E+02  0.15915903742E+02  0.19287933702E+02  0.51214632854E+02  0.47000000000E+01 0. -1.
         -5    1    4    4    0  503  0.72678703520E+00  0.26973215721E+02  0.19676341675E+02  0.33724338503E+02  0.47000000000E+01 0.  1.
          5    1    4    4  503    0 -0.81319214099E+01 -0.39118347301E+02 -0.70430934676E+02  0.81110910491E+02  0.47000000000E+01 0. -1.
         -5    1    3    3    0  502 -0.37041555490E+02 -0.37707721622E+01  0.60800864094E+02  0.71450196854E+02  0.47000000000E+01 0.  1.
<mgrwt>
<rscale>  0 0.10038688E+03</rscale>
<asrwt>0</asrwt>
<pdfrwt beam="1">  1        3 0.16012759E-01 0.10301022E+03</pdfrwt>
<pdfrwt beam="2">  1       -3 0.20525714E-01 0.10301022E+03</pdfrwt>
<totfact> 0.15533918E+03</totfact>
</mgrwt>
</event>
<event>
 8    1  0.6396648E-004  0.9861448E+02  0.7546771E-02  0.1283961E+00
          1   -1    0    0  501    0  0.00000000000E+00  0.00000000000E+00  0.15190733974E+03  0.15190733974E+03  0.00000000000E+00 0. -1.
         -1   -1    0    0    0  501 -0.00000000000E+00 -0.00000000000E+00 -0.95292683215E+02  0.95292683215E+02  0.00000000000E+00 0.  1.
         23    2    1    2    0    0  0.27780698026E+02 -0.25046042705E+02 -0.43347199451E+02  0.10772091004E+03  0.91245511246E+02 0.  0.
         23    2    1    2    0    0 -0.27780698026E+02  0.25046042705E+02  0.99961855976E+02  0.13947911291E+03  0.89794091398E+02 0.  0.
          5    1    3    3  502    0  0.54578365412E+02  0.28097657083E+00 -0.61338487492E+01  0.55123416252E+02  0.47000000000E+01 0. -1.
         -5    1    3    3    0  502 -0.26797667386E+02 -0.25327019276E+02 -0.37213350702E+02  0.52597493792E+02  0.47000000000E+01 0.  1.
          5    1    4    4  503    0  0.23192234717E+02 -0.11590507043E+02  0.70952358016E+01  0.27288312073E+02  0.47000000000E+01 0. -1.
         -5    1    4    4    0  503 -0.50972932743E+02  0.36636549748E+02  0.92866620175E+02  0.11219080084E+03  0.47000000000E+01 0.  1.
<mgrwt>
<rscale>  0 0.98277400E+02</rscale>
<asrwt>0</asrwt>
<pdfrwt beam="1">  1        1 0.23370360E-01 0.98614475E+02</pdfrwt>
<pdfrwt beam="2">  1       -1 0.14660413E-01 0.98614475E+02</pdfrwt>
<totfact> 0.64538229E+03</totfact>
</mgrwt>
</event>
<event>
 8    1  0.6396648E-004  0.1049501E+03  0.7546771E-02  0.1270527E+00
         -3   -1    0    0    0  501 -0.00000000000E+00  0.00000000000E+00  0.13291571783E+03  0.13291571783E+03  0.00000000000E+00 0.  1.
          3   -1    0    0  501    0  0.00000000000E+00 -0.00000000000E+00 -0.89676281833E+02  0.89676281833E+02  0.00000000000E+00 0. -1.
         23    2    1    2    0    0  0.40996694232E+02 -0.26988327725E+02 -0.10077432666E+02  0.10543279738E+03  0.92765410269E+02 0.  0.
         23    2    1    2    0    0 -0.40996694232E+02  0.26988327725E+02  0.53316868661E+02  0.11715920228E+03  0.92057000954E+02 0.  0.
          5    1    4    4  502    0 -0.34640599540E+02 -0.29883290598E+02  0.31463420736E+02  0.55722697690E+02  0.47000000000E+01 0. -1.
         -5    1    4    4    0  502 -0.63560946914E+01  0.56871618323E+02  0.21853447926E+02  0.61436504594E+02  0.47000000000E+01 0.  1.
          5    1    3    3  503    0 -0.25680163108E+02  0.14554835305E+01 -0.18890953138E+02  0.32257515714E+02  0.47000000000E+01 0. -1.
         -5    1    3    3    0  503  0.66676857339E+02 -0.28443811255E+02  0.88135204726E+01  0.73175281663E+02  0.47000000000E+01 0.  1.
<mgrwt>
<rscale>  0 0.10479332E+03</rscale>
<asrwt>0</asrwt>
<pdfrwt beam="1">  1        3 0.13796351E-01 0.10495008E+03</pdfrwt>
<pdfrwt beam="2">  1       -3 0.20448572E-01 0.10495008E+03</pdfrwt>
<totfact> 0.20210651E+03</totfact>
</mgrwt>
</event>
<event>
 8    1  0.6396648E-004  0.1035743E+03  0.7546771E-02  0.1279733E+00
         -2   -1    0    0    0  501 -0.00000000000E+00  0.00000000000E+00  0.82562628678E+01  0.82562628678E+01  0.00000000000E+00 0.  1.
          2   -1    0    0  501    0  0.00000000000E+00 -0.00000000000E+00 -0.12225364023E+04  0.12225364023E+04  0.00000000000E+00 0. -1.
         23    2    1    2    0    0 -0.11154210159E+02 -0.20332703660E+01 -0.41660857521E+03  0.42642485743E+03  0.90260198854E+02 0.  0.
         23    2    1    2    0    0  0.11154210159E+02  0.20332703660E+01 -0.79767156426E+03  0.80436780778E+03  0.10295190710E+03 0.  0.
          5    1    3    3  502    0  0.13682136803E+02  0.39318527806E+02 -0.21791548436E+03  0.22190627711E+03  0.47000000000E+01 0. -1.
         -5    1    4    4    0  503 -0.40722683077E+02 -0.17782942758E+02 -0.25958394081E+03  0.26340175075E+03  0.47000000000E+01 0.  1.
          5    1    4    4  503    0  0.51876893236E+02  0.19816213124E+02 -0.53808762344E+03  0.54096605703E+03  0.47000000000E+01 0. -1.
         -5    1    3    3    0  502 -0.24836346962E+02 -0.41351798172E+02 -0.19869309086E+03  0.20451858032E+03  0.47000000000E+01 0.  1.
<mgrwt>
<rscale>  0 0.10026818E+03</rscale>
<asrwt>0</asrwt>
<pdfrwt beam="1">  1        2 0.18808259E+00 0.10357435E+03</pdfrwt>
<pdfrwt beam="2">  1       -2 0.12701939E-02 0.10357435E+03</pdfrwt>
<totfact> 0.27248216E+04</totfact>
</mgrwt>
</event>
<event>
 8    1  0.6396648E-004  0.1079186E+03  0.7546771E-02  0.1266627E+00
         -2   -1    0    0    0  501 -0.00000000000E+00  0.00000000000E+00  0.61981488574E+02  0.61981488574E+02  0.00000000000E+00 0. -1.
          2   -1    0    0  501    0  0.00000000000E+00 -0.00000000000E+00 -0.18213201390E+03  0.18213201390E+03  0.00000000000E+00 0.  1.
         23    2    1    2    0    0  0.29766437710E+01  0.54159193039E+02 -0.71195479470E+02  0.12561026783E+03  0.88130950793E+02 0.  0.
         23    2    1    2    0    0 -0.29766437710E+01 -0.54159193039E+02 -0.48955045859E+02  0.11850323465E+03  0.93297060559E+02 0.  0.
          5    1    3    3  502    0  0.21030752874E+02 -0.15768044999E+02 -0.36833208427E+02  0.45493945230E+02  0.47000000000E+01 0. -1.
         -5    1    4    4    0  503  0.38207215051E+02 -0.21736315884E+01 -0.51912452923E+01  0.38904433988E+02  0.47000000000E+01 0.  1.
          5    1    4    4  503    0 -0.41183858822E+02 -0.51985561451E+02 -0.43763800567E+02  0.79598800662E+02  0.47000000000E+01 0. -1.
         -5    1    3    3    0  502 -0.18054109103E+02  0.69927238038E+02 -0.34362271043E+02  0.80116322596E+02  0.47000000000E+01 0.  1.
<mgrwt>
<rscale>  0 0.10679269E+03</rscale>
<asrwt>0</asrwt>
<pdfrwt beam="1">  1        2 0.28020309E-01 0.10791858E+03</pdfrwt>
<pdfrwt beam="2">  1       -2 0.95356138E-02 0.10791858E+03</pdfrwt>
<totfact> 0.12458045E+04</totfact>
</mgrwt>
</event>
<event>
 8    1  0.6396648E-004  0.9276560E+02  0.7546771E-02  0.1297219E+00
          2   -1    0    0  501    0  0.00000000000E+00  0.00000000000E+00  0.32247111770E+02  0.32247111770E+02  0.00000000000E+00 0. -1.
         -2   -1    0    0    0  501 -0.00000000000E+00 -0.00000000000E+00 -0.30240047474E+03  0.30240047474E+03  0.00000000000E+00 0.  1.
         23    2    1    2    0    0  0.45520285723E+01  0.42819422524E+01 -0.75173209090E+02  0.11940045446E+03  0.92554854911E+02 0.  0.
         23    2    1    2    0    0 -0.45520285723E+01 -0.42819422524E+01 -0.19498015388E+03  0.21524713204E+03  0.90967089948E+02 0.  0.
          5    1    4    4  502    0  0.91077974970E+01  0.23215591775E+02 -0.93636079060E+01  0.27049636407E+02  0.47000000000E+01 0. -1.
         -5    1    3    3    0  503 -0.42383283361E+02 -0.92160217153E+01 -0.32994888219E+02  0.54699455329E+02  0.47000000000E+01 0.  1.
          5    1    3    3  503    0  0.46935311933E+02  0.13497963968E+02 -0.42178320871E+02  0.64700999134E+02  0.47000000000E+01 0. -1.
         -5    1    4    4    0  502 -0.13659826069E+02 -0.27497534027E+02 -0.18561654597E+03  0.18819749564E+03  0.47000000000E+01 0.  1.
<mgrwt>
<rscale>  0 0.92367018E+02</rscale>
<asrwt>0</asrwt>
<pdfrwt beam="1">  1        2 0.49610942E-02 0.92765603E+02</pdfrwt>
<pdfrwt beam="2">  1       -2 0.46523149E-01 0.92765603E+02</pdfrwt>
<totfact> 0.64267406E+03</totfact>
</mgrwt>
</event>
<event>
 8    1  0.6396648E-004  0.9576373E+02  0.7546771E-02  0.1290733E+00
         -1   -1    0    0    0  501 -0.00000000000E+00  0.00000000000E+00  0.38992300028E+02  0.38992300028E+02  0.00000000000E+00 0.  1.
          1   -1    0    0  501    0  0.00000000000E+00 -0.00000000000E+00 -0.40169738919E+03  0.40169738919E+03  0.00000000000E+00 0. -1.
         23    2    1    2    0    0  0.82479078692E+01 -0.24135269517E+02 -0.38409096718E+02  0.10317921310E+03  0.92304669908E+02 0.  0.
         23    2    1    2    0    0 -0.82479078692E+01  0.24135269517E+02 -0.32429599245E+03  0.33751047612E+03  0.89971615269E+02 0.  0.
          5    1    4    4  502    0 -0.23366952419E+02  0.53933784383E+02 -0.22681450720E+03  0.23435395930E+03  0.47000000000E+01 0. -1.
         -5    1    3    3    0  503  0.47688145645E+02 -0.35545434754E+01 -0.32607182378E+02  0.58069892001E+02  0.47000000000E+01 0.  1.
          5    1    3    3  503    0 -0.39440237776E+02 -0.20580726042E+02 -0.58019143402E+01  0.45109321101E+02  0.47000000000E+01 0. -1.
         -5    1    4    4    0  502  0.15119044550E+02 -0.29798514866E+02 -0.97481485246E+02  0.10315651682E+03  0.47000000000E+01 0.  1.
<mgrwt>
<rscale>  0 0.95197036E+02</rscale>
<asrwt>0</asrwt>
<pdfrwt beam="1">  1        1 0.61799596E-01 0.95763726E+02</pdfrwt>
<pdfrwt beam="2">  1       -1 0.59988156E-02 0.95763726E+02</pdfrwt>
<totfact> 0.74957479E+03</totfact>
</mgrwt>
</event>
<event>
 8    1  0.6396648E-004  0.1254889E+03  0.7546771E-02  0.1234391E+00
         -1   -1    0    0    0  501 -0.00000000000E+00  0.00000000000E+00  0.11435396255E+03  0.11435396255E+03  0.00000000000E+00 0.  1.
          1   -1    0    0  501    0  0.00000000000E+00 -0.00000000000E+00 -0.22287929294E+03  0.22287929294E+03  0.00000000000E+00 0. -1.
         23    2    1    2    0    0 -0.49419643555E+02  0.68737099752E+02 -0.15861330930E+03  0.20211748046E+03  0.92337446199E+02 0.  0.
         23    2    1    2    0    0  0.49419643555E+02 -0.68737099752E+02  0.50087978904E+02  0.13511577503E+03  0.92630324297E+02 0.  0.
          5    1    4    4  502    0 -0.12771500590E+02 -0.57370321869E+02  0.91942146035E+01  0.59674857694E+02  0.47000000000E+01 0. -1.
         -5    1    3    3    0  503 -0.19807145215E+02 -0.14088091628E+02 -0.81062240708E+02  0.84758328180E+02  0.47000000000E+01 0.  1.
          5    1    3    3  503    0 -0.29612498340E+02  0.82825191380E+02 -0.77551068591E+02  0.11735915228E+03  0.47000000000E+01 0. -1.
         -5    1    4    4    0  502  0.62191144145E+02 -0.11366777884E+02  0.40893764301E+02  0.75440917334E+02  0.47000000000E+01 0.  1.
<mgrwt>
<rscale>  0 0.12543487E+03</rscale>
<asrwt>0</asrwt>
<pdfrwt beam="1">  1        1 0.34289122E-01 0.12548891E+03</pdfrwt>
<pdfrwt beam="2">  1       -1 0.17592917E-01 0.12548891E+03</pdfrwt>
<totfact> 0.30605522E+03</totfact>
</mgrwt>
</event>
<event>
 8    1  0.6396648E-004  0.1349452E+03  0.7546771E-02  0.1221739E+00
         -1   -1    0    0    0  501 -0.00000000000E+00  0.00000000000E+00  0.16168554823E+03  0.16168554823E+03  0.00000000000E+00 0.  1.
          1   -1    0    0  501    0  0.00000000000E+00 -0.00000000000E+00 -0.11912872809E+03  0.11912872809E+03  0.00000000000E+00 0. -1.
         23    2    1    2    0    0  0.96542152920E+02  0.25561007714E+02 -0.19345710336E+02  0.13234832877E+03  0.84664462514E+02 0.  0.
         23    2    1    2    0    0 -0.96542152920E+02 -0.25561007714E+02  0.61902530482E+02  0.14846594755E+03  0.90754955217E+02 0.  0.
          5    1    4    4  502    0 -0.78589075505E+02 -0.52216566224E+02  0.66684603376E+02  0.11563623526E+03  0.47000000000E+01 0. -1.
         -5    1    3    3    0  503  0.84917331806E+02 -0.12033143619E+02  0.46492728880E+01  0.86020087914E+02  0.47000000000E+01 0.  1.
          5    1    3    3  503    0  0.11624821114E+02  0.37594151333E+02 -0.23994983224E+02  0.46328240851E+02  0.47000000000E+01 0. -1.
         -5    1    4    4    0  502 -0.17953077414E+02  0.26655558511E+02 -0.47820728938E+01  0.32829712294E+02  0.47000000000E+01 0.  1.
<mgrwt>
<rscale>  0 0.13392920E+03</rscale>
<asrwt>0</asrwt>
<pdfrwt beam="1">  1        1 0.18327497E-01 0.13494523E+03</pdfrwt>
<pdfrwt beam="2">  1       -1 0.24874700E-01 0.13494523E+03</pdfrwt>
<totfact> 0.38576164E+03</totfact>
</mgrwt>
</event>
<event>
 8    1  0.6396648E-004  0.9352606E+02  0.7546771E-02  0.1295686E+00
         -1   -1    0    0    0  501 -0.00000000000E+00  0.00000000000E+00  0.50164838568E+02  0.50164838568E+02  0.00000000000E+00 0.  1.
          1   -1    0    0  501    0  0.00000000000E+00 -0.00000000000E+00 -0.41141669088E+03  0.41141669088E+03  0.00000000000E+00 0. -1.
         23    2    1    2    0    0  0.10844990091E+02 -0.15113097257E+02 -0.48935792308E+01  0.93653992036E+02  0.91657534266E+02 0.  0.
         23    2    1    2    0    0 -0.10844990091E+02  0.15113097257E+02 -0.35635827308E+03  0.36792753741E+03  0.89629428614E+02 0.  0.
          5    1    3    3  502    0 -0.29517079594E+02 -0.23477196835E+02 -0.27022836956E+02  0.46634327229E+02  0.47000000000E+01 0. -1.
         -5    1    3    3    0  502  0.40362069686E+02  0.83640995771E+01  0.22129257725E+02  0.47019664806E+02  0.47000000000E+01 0.  1.
          5    1    4    4  503    0 -0.49774082750E+02  0.35575547047E+01 -0.17624265294E+03  0.18323121521E+03  0.47000000000E+01 0. -1.
         -5    1    4    4    0  503  0.38929092659E+02  0.11555542553E+02 -0.18011562014E+03  0.18469632221E+03  0.47000000000E+01 0.  1.
<mgrwt>
<rscale>  0 0.93025375E+02</rscale>
<asrwt>0</asrwt>
<pdfrwt beam="1">  1        1 0.63294872E-01 0.93526056E+02</pdfrwt>
<pdfrwt beam="2">  1       -1 0.77176679E-02 0.93526056E+02</pdfrwt>
<totfact> 0.49990833E+03</totfact>
</mgrwt>
</event>
<event>
 8    1  0.6396648E-004  0.1084667E+03  0.7546771E-02  0.1264250E+00
         -2   -1    0    0    0  501 -0.00000000000E+00  0.00000000000E+00  0.15016811612E+02  0.15016811612E+02  0.00000000000E+00 0.  1.
          2   -1    0    0  501    0  0.00000000000E+00 -0.00000000000E+00 -0.78766347535E+03  0.78766347535E+03  0.00000000000E+00 0. -1.
         23    2    1    2    0    0 -0.31113267817E+02 -0.47879831925E+02 -0.44144185789E+03  0.45416680352E+03  0.90200098540E+02 0.  0.
         23    2    1    2    0    0  0.31113267817E+02  0.47879831925E+02 -0.33120480584E+03  0.34851348344E+03  0.92219905606E+02 0.  0.
          5    1    3    3  502    0 -0.56429721758E+02 -0.39957963145E+02 -0.38987511753E+03  0.39598693108E+03  0.47000000000E+01 0. -1.
         -5    1    3    3    0  502  0.25316453941E+02 -0.79218687797E+01 -0.51566740363E+02  0.58179872437E+02  0.47000000000E+01 0.  1.
          5    1    4    4  503    0  0.58137701507E+02  0.48663541071E+02 -0.18916202903E+03  0.20384429301E+03  0.47000000000E+01 0.  1.
         -5    1    4    4    0  503 -0.27024433690E+02 -0.78370914588E+00 -0.14204277681E+03  0.14466919043E+03  0.47000000000E+01 0. -1.
<mgrwt>
<rscale>  0 0.10803615E+03</rscale>
<asrwt>0</asrwt>
<pdfrwt beam="1">  1        2 0.12117904E+00 0.10846670E+03</pdfrwt>
<pdfrwt beam="2">  1       -2 0.23102779E-02 0.10846670E+03</pdfrwt>
<totfact> 0.21022384E+04</totfact>
</mgrwt>
</event>
<event>
 8    1  0.6396648E-004  0.1237172E+03  0.7546771E-02  0.1250747E+00
         -1   -1    0    0    0  501 -0.00000000000E+00  0.00000000000E+00  0.33590115030E+03  0.33590115030E+03  0.00000000000E+00 0.  1.
          1   -1    0    0  501    0  0.00000000000E+00 -0.00000000000E+00 -0.41918370370E+02  0.41918370370E+02  0.00000000000E+00 0. -1.
         23    2    1    2    0    0 -0.58259183495E+01  0.16131451442E+02  0.23866871442E+03  0.26882840589E+03  0.12252261635E+03 0.  0.
         23    2    1    2    0    0  0.58259183495E+01 -0.16131451442E+02  0.55314065506E+02  0.10899111478E+03  0.92332292338E+02 0.  0.
          5    1    4    4  502    0  0.48586326528E+02 -0.12139685721E+02  0.24672247070E+02  0.56025109285E+02  0.47000000000E+01 0. -1.
         -5    1    4    4    0  502 -0.42760408179E+02 -0.39917657212E+01  0.30641818436E+02  0.52966005496E+02  0.47000000000E+01 0.  1.
          5    1    3    3  503    0  0.73463143581E+01 -0.52502454239E+02  0.11452764909E+03  0.12628993801E+03  0.47000000000E+01 0. -1.
         -5    1    3    3    0  503 -0.13172232708E+02  0.68633905681E+02  0.12414106533E+03  0.14253846788E+03  0.47000000000E+01 0.  1.
<mgrwt>
<rscale>  0 0.11547891E+03</rscale>
<asrwt>0</asrwt>
<pdfrwt beam="1">  1        1 0.64489803E-02 0.12371724E+03</pdfrwt>
<pdfrwt beam="2">  1       -1 0.51677098E-01 0.12371724E+03</pdfrwt>
<totfact> 0.42961228E+03</totfact>
</mgrwt>
</event>
<event>
 8    1  0.6396648E-004  0.1010109E+03  0.7546771E-02  0.1278499E+00
         -1   -1    0    0    0  501 -0.00000000000E+00  0.00000000000E+00  0.23706854718E+02  0.23706854718E+02  0.00000000000E+00 0.  1.
          1   -1    0    0  501    0  0.00000000000E+00 -0.00000000000E+00 -0.50106424649E+03  0.50106424649E+03  0.00000000000E+00 0. -1.
         23    2    1    2    0    0 -0.12067337015E+02 -0.42428845180E+02 -0.13774743010E+03  0.17045749245E+03  0.90197420731E+02 0.  0.
         23    2    1    2    0    0  0.12067337015E+02  0.42428845180E+02 -0.33960996167E+03  0.35431360876E+03  0.90870125784E+02 0.  0.
          5    1    3    3  502    0 -0.15709925903E+02  0.26504454397E+02 -0.45293258018E+02  0.54980515609E+02  0.47000000000E+01 0. -1.
         -5    1    4    4    0  503  0.37332252731E+02  0.13177351539E+01 -0.62265139558E+02  0.72763116509E+02  0.47000000000E+01 0.  1.
          5    1    4    4  503    0 -0.25264915716E+02  0.41111110026E+02 -0.27734482211E+03  0.28155049225E+03  0.47000000000E+01 0. -1.
         -5    1    3    3    0  502  0.36425888882E+01 -0.68933299577E+02 -0.92454172084E+02  0.11547697684E+03  0.47000000000E+01 0.  1.
<mgrwt>
<rscale>  0 0.10085940E+03</rscale>
<asrwt>0</asrwt>
<pdfrwt beam="1">  1        1 0.77086805E-01 0.10101093E+03</pdfrwt>
<pdfrwt beam="2">  1       -1 0.36472085E-02 0.10101093E+03</pdfrwt>
<totfact> 0.11785970E+04</totfact>
</mgrwt>
</event>
<event>
 8    1  0.6396648E-004  0.1129875E+03  0.7546771E-02  0.1255556E+00
         -1   -1    0    0    0  501 -0.00000000000E+00  0.00000000000E+00  0.19840937724E+03  0.19840937724E+03  0.00000000000E+00 0.  1.
          1   -1    0    0  501    0  0.00000000000E+00 -0.00000000000E+00 -0.46759515037E+03  0.46759515037E+03  0.00000000000E+00 0. -1.
         23    2    1    2    0    0  0.41592682936E+02 -0.50533705917E+02  0.17493100123E+03  0.20774053063E+03  0.90948700742E+02 0.  0.
         23    2    1    2    0    0 -0.41592682936E+02  0.50533705917E+02 -0.44411677436E+03  0.45826399697E+03  0.92100895469E+02 0.  0.
          5    1    4    4  502    0 -0.18422788111E+02  0.69979087679E+02 -0.38416534070E+03  0.39094957582E+03  0.47000000000E+01 0. -1.
         -5    1    3    3    0  503  0.56266381866E+02  0.25967435568E+01  0.82065395138E+02  0.99646715372E+02  0.47000000000E+01 0.  1.
          5    1    3    3  503    0 -0.14673698930E+02 -0.53130449474E+02  0.92865606095E+02  0.10809381526E+03  0.47000000000E+01 0. -1.
         -5    1    4    4    0  502 -0.23169894825E+02 -0.19445381762E+02 -0.59951433660E+02  0.67314421159E+02  0.47000000000E+01 0.  1.
<mgrwt>
<rscale>  0 0.11275249E+03</rscale>
<asrwt>0</asrwt>
<pdfrwt beam="1">  1        1 0.71937715E-01 0.11298753E+03</pdfrwt>
<pdfrwt beam="2">  1       -1 0.30524520E-01 0.11298753E+03</pdfrwt>
<totfact> 0.49625338E+02</totfact>
</mgrwt>
</event>
<event>
 8    1  0.6396648E-004  0.9986777E+02  0.7546771E-02  0.1281386E+00
         -1   -1    0    0    0  501 -0.00000000000E+00  0.00000000000E+00  0.16565485256E+02  0.16565485256E+02  0.00000000000E+00 0.  1.
          1   -1    0    0  501    0  0.00000000000E+00 -0.00000000000E+00 -0.76026612245E+03  0.76026612245E+03  0.00000000000E+00 0. -1.
         23    2    1    2    0    0  0.32942988151E+02 -0.14519323135E+02 -0.18737043399E+03  0.21160876014E+03  0.91512494336E+02 0.  0.
         23    2    1    2    0    0 -0.32942988151E+02  0.14519323135E+02 -0.55633020320E+03  0.56522284756E+03  0.93153213614E+02 0.  0.
          5    1    3    3  502    0  0.15190389866E+02 -0.52930706142E+02 -0.11624071148E+03  0.12871053027E+03  0.47000000000E+01 0. -1.
         -5    1    4    4    0  503  0.38570347456E+01  0.48522541196E+02 -0.30620228468E+03  0.31008263877E+03  0.47000000000E+01 0.  1.
          5    1    4    4  503    0 -0.36800022896E+02 -0.34003218060E+02 -0.25012791852E+03  0.25514020880E+03  0.47000000000E+01 0. -1.
         -5    1    3    3    0  502  0.17752598284E+02  0.38411383007E+02 -0.71129722509E+02  0.82898229864E+02  0.47000000000E+01 0.  1.
<mgrwt>
<rscale>  0 0.99483404E+02</rscale>
<asrwt>0</asrwt>
<pdfrwt beam="1">  1        1 0.11696403E+00 0.99867775E+02</pdfrwt>
<pdfrwt beam="2">  1       -1 0.25485360E-02 0.99867775E+02</pdfrwt>
<totfact> 0.11202870E+04</totfact>
</mgrwt>
</event>
<event>
 8    1  0.6396648E-004  0.1131860E+03  0.7546771E-02  0.1255447E+00
         -1   -1    0    0    0  501 -0.00000000000E+00  0.00000000000E+00  0.55840286653E+02  0.55840286653E+02  0.00000000000E+00 0.  1.
          1   -1    0    0  501    0  0.00000000000E+00 -0.00000000000E+00 -0.29107408391E+03  0.29107408391E+03  0.00000000000E+00 0. -1.
         23    2    1    2    0    0 -0.54843092339E+02 -0.36271981275E+02 -0.35268936289E+02  0.11713833625E+03  0.90299892298E+02 0.  0.
         23    2    1    2    0    0  0.54843092339E+02  0.36271981275E+02 -0.19996486097E+03  0.22977603431E+03  0.92128491362E+02 0.  0.
          5    1    4    4  502    0  0.10959832223E+02 -0.30725130374E+02 -0.57944591429E+02  0.66661962428E+02  0.47000000000E+01 0. -1.
         -5    1    3    3    0  503 -0.50077212262E+02  0.20603599139E+02 -0.19402456028E+02  0.57712916971E+02  0.47000000000E+01 0.  1.
          5    1    3    3  503    0 -0.47658800771E+01 -0.56875580414E+02 -0.15866480261E+02  0.59425419277E+02  0.47000000000E+01 0. -1.
         -5    1    4    4    0  502  0.43883260116E+02  0.66997111649E+02 -0.14202026954E+03  0.16311407188E+03  0.47000000000E+01 0.  1.
<mgrwt>
<rscale>  0 0.11281337E+03</rscale>
<asrwt>0</asrwt>
<pdfrwt beam="1">  1        1 0.44780628E-01 0.11318604E+03</pdfrwt>
<pdfrwt beam="2">  1       -1 0.85908135E-02 0.11318604E+03</pdfrwt>
<totfact> 0.66124601E+03</totfact>
</mgrwt>
</event>
<event>
 8    1  0.6396648E-004  0.1812186E+03  0.7546771E-02  0.1167256E+00
          1   -1    0    0  501    0  0.00000000000E+00  0.00000000000E+00  0.33374023799E+03  0.33374023799E+03  0.00000000000E+00 0. -1.
         -1   -1    0    0    0  501 -0.00000000000E+00 -0.00000000000E+00 -0.97468982431E+02  0.97468982431E+02  0.00000000000E+00 0.  1.
         23    2    1    2    0    0  0.14018515897E+03 -0.65461647368E+02  0.10227870329E+03  0.20583354526E+03  0.89271547172E+02 0.  0.
         23    2    1    2    0    0 -0.14018515897E+03  0.65461647368E+02  0.13399255226E+03  0.22537567516E+03  0.94356159418E+02 0.  0.
          5    1    4    4  502    0 -0.50394532620E+02 -0.52501005830E+01  0.88875825655E+02  0.10241179063E+03  0.47000000000E+01 0. -1.
         -5    1    4    4    0  502 -0.89790626351E+02  0.70711747951E+02  0.45116726604E+02  0.12296388453E+03  0.47000000000E+01 0.  1.
          5    1    3    3  503    0  0.13406011941E+03 -0.33246026988E+02  0.56450418130E+02  0.14928547697E+03  0.47000000000E+01 0. -1.
         -5    1    3    3    0  503  0.61250395584E+01 -0.32215620380E+02  0.45828285164E+02  0.56548068288E+02  0.47000000000E+01 0.  1.
<mgrwt>
<rscale>  0 0.18056645E+03</rscale>
<asrwt>0</asrwt>
<pdfrwt beam="1">  1        1 0.51344651E-01 0.18121863E+03</pdfrwt>
<pdfrwt beam="2">  1       -1 0.14995228E-01 0.18121863E+03</pdfrwt>
<totfact> 0.24222867E+03</totfact>
</mgrwt>
</event>
<event>
 8    1  0.6396648E-004  0.1207529E+03  0.7546771E-02  0.1244292E+00
          1   -1    0    0  501    0  0.00000000000E+00  0.00000000000E+00  0.18194709351E+02  0.18194709351E+02  0.00000000000E+00 0. -1.
         -1   -1    0    0    0  501 -0.00000000000E+00 -0.00000000000E+00 -0.76344595282E+03  0.76344595282E+03  0.00000000000E+00 0.  1.
         23    2    1    2    0    0 -0.52887382597E+02 -0.44182490400E+02 -0.36487155513E+03  0.38255425193E+03  0.92018129886E+02 0.  0.
         23    2    1    2    0    0  0.52887382597E+02  0.44182490400E+02 -0.38037968833E+03  0.39908641024E+03  0.99156885013E+02 0.  0.
          5    1    4    4  502    0  0.18487331558E+02  0.50161572016E+02 -0.78103052484E+02  0.94763608746E+02  0.47000000000E+01 0. -1.
         -5    1    3    3    0  503 -0.70210963892E+02 -0.36090018060E+01 -0.21474489119E+03  0.22600898795E+03  0.47000000000E+01 0.  1.
          5    1    3    3  503    0  0.17323581295E+02 -0.40573488594E+02 -0.15012666395E+03  0.15654526398E+03  0.47000000000E+01 0. -1.
         -5    1    4    4    0  502  0.34400051039E+02 -0.59790816160E+01 -0.30227663585E+03  0.30432280149E+03  0.47000000000E+01 0.  1.
<mgrwt>
<rscale>  0 0.11927864E+03</rscale>
<asrwt>0</asrwt>
<pdfrwt beam="1">  1        1 0.27991868E-02 0.12075287E+03</pdfrwt>
<pdfrwt beam="2">  1       -1 0.11745319E+00 0.12075287E+03</pdfrwt>
<totfact> 0.25105564E+03</totfact>
</mgrwt>
</event>
<event>
 8    1  0.6396648E-004  0.1291143E+03  0.7546771E-02  0.1229215E+00
          3   -1    0    0  501    0  0.00000000000E+00  0.00000000000E+00  0.10109719897E+03  0.10109719897E+03  0.00000000000E+00 0. -1.
         -3   -1    0    0    0  501 -0.00000000000E+00 -0.00000000000E+00 -0.22792207526E+03  0.22792207526E+03  0.00000000000E+00 0.  1.
         23    2    1    2    0    0  0.91798092118E+02  0.14464566954E+02  0.24317358684E+02  0.13023675866E+03  0.87944107021E+02 0.  0.
         23    2    1    2    0    0 -0.91798092118E+02 -0.14464566954E+02 -0.15114223498E+03  0.19878251556E+03  0.89634814028E+02 0.  0.
          5    1    3    3  502    0  0.88671832533E+01  0.38936977070E+02  0.15883558559E+02  0.43233003073E+02  0.47000000000E+01 0. -1.
         -5    1    4    4    0  503 -0.27876974757E+02  0.12188790674E+02  0.17859065109E+01  0.30837830692E+02  0.47000000000E+01 0. -1.
          5    1    4    4  503    0 -0.63921117361E+02 -0.26653357628E+02 -0.15292814149E+03  0.16794468487E+03  0.47000000000E+01 0.  1.
         -5    1    3    3    0  502  0.82930908865E+02 -0.24472410116E+02  0.84338001244E+01  0.87003755589E+02  0.47000000000E+01 0.  1.
<mgrwt>
<rscale>  0 0.12882136E+03</rscale>
<asrwt>0</asrwt>
<pdfrwt beam="1">  1        3 0.15553415E-01 0.12911434E+03</pdfrwt>
<pdfrwt beam="2">  1       -3 0.35064934E-01 0.12911434E+03</pdfrwt>
<totfact> 0.64084933E+02</totfact>
</mgrwt>
</event>
<event>
 8    1  0.6396648E-004  0.1401089E+03  0.7546771E-02  0.1213737E+00
         -1   -1    0    0    0  501 -0.00000000000E+00  0.00000000000E+00  0.88152219142E+02  0.88152219142E+02  0.00000000000E+00 0.  1.
          1   -1    0    0  501    0  0.00000000000E+00 -0.00000000000E+00 -0.22577596596E+03  0.22577596596E+03  0.00000000000E+00 0. -1.
         23    2    1    2    0    0 -0.96671275654E+02  0.39887783848E+02 -0.44300355456E+02  0.14694566275E+03  0.93242348054E+02 0.  0.
         23    2    1    2    0    0  0.96671275654E+02 -0.39887783848E+02 -0.93323391361E+02  0.16698252235E+03  0.90760875705E+02 0.  0.
          5    1    3    3  502    0 -0.18201852168E+02  0.55170355620E+02 -0.30156051767E+02  0.65624332528E+02  0.47000000000E+01 0. -1.
         -5    1    3    3    0  502 -0.78469423486E+02 -0.15282571772E+02 -0.14144303689E+02  0.81321330221E+02  0.47000000000E+01 0.  1.
          5    1    4    4  503    0  0.97897522291E+02  0.19790113858E+00 -0.63482942871E+02  0.11677387581E+03  0.47000000000E+01 0. -1.
         -5    1    4    4    0  503 -0.12262466369E+01 -0.40085684986E+02 -0.29840448490E+02  0.50208646544E+02  0.47000000000E+01 0.  1.
<mgrwt>
<rscale>  0 0.13969734E+03</rscale>
<asrwt>0</asrwt>
<pdfrwt beam="1">  1        1 0.34734764E-01 0.14010891E+03</pdfrwt>
<pdfrwt beam="2">  1       -1 0.13561880E-01 0.14010891E+03</pdfrwt>
<totfact> 0.45581975E+03</totfact>
</mgrwt>
</event>
<event>
 8    1  0.6396648E-004  0.9636625E+02  0.7546771E-02  0.1289650E+00
         -2   -1    0    0    0  501 -0.00000000000E+00  0.00000000000E+00  0.41213257351E+03  0.41213257351E+03  0.00000000000E+00 0.  1.
          2   -1    0    0  501    0  0.00000000000E+00 -0.00000000000E+00 -0.22081972073E+02  0.22081972073E+02  0.00000000000E+00 0. -1.
         23    2    1    2    0    0 -0.77132237324E+01  0.19753961171E+02  0.21181190603E+03  0.23159301037E+03  0.91221302975E+02 0.  0.
         23    2    1    2    0    0  0.77132237324E+01 -0.19753961171E+02  0.17823869541E+03  0.20262153521E+03  0.94003942401E+02 0.  0.
          5    1    4    4  502    0 -0.28582825422E+02  0.15996384555E+02  0.26203578447E+02  0.42208763917E+02  0.47000000000E+01 0. -1.
         -5    1    3    3    0  503 -0.20754716528E+02 -0.84713056874E+01  0.19421014660E+03  0.19555611042E+03  0.47000000000E+01 0.  1.
          5    1    3    3  503    0  0.13041492795E+02  0.28225266858E+02  0.17601759424E+02  0.36036899955E+02  0.47000000000E+01 0. -1.
         -5    1    4    4    0  502  0.36296049155E+02 -0.35750345726E+02  0.15203511696E+03  0.16041277129E+03  0.47000000000E+01 0.  1.
<mgrwt>
<rscale>  0 0.95680866E+02</rscale>
<asrwt>0</asrwt>
<pdfrwt beam="1">  1        2 0.33972268E-02 0.96366249E+02</pdfrwt>
<pdfrwt beam="2">  1       -2 0.63405006E-01 0.96366249E+02</pdfrwt>
<totfact> 0.57007133E+03</totfact>
</mgrwt>
</event>
<event>
 8    1  0.6396648E-004  0.1072427E+03  0.7546771E-02  0.1265944E+00
         -1   -1    0    0    0  501 -0.00000000000E+00  0.00000000000E+00  0.25535192054E+02  0.25535192054E+02  0.00000000000E+00 0.  1.
          1   -1    0    0  501    0  0.00000000000E+00 -0.00000000000E+00 -0.59606567438E+03  0.59606567438E+03  0.00000000000E+00 0. -1.
         23    2    1    2    0    0  0.56892368952E+02 -0.31200537474E+01 -0.43936306111E+03  0.45217277255E+03  0.90409293684E+02 0.  0.
         23    2    1    2    0    0 -0.56892368952E+02  0.31200537474E+01 -0.13116742122E+03  0.16942809389E+03  0.90854335228E+02 0.  0.
          5    1    3    3  502    0  0.79875132723E+02 -0.82266317925E+01 -0.37370102544E+03  0.38225941547E+03  0.47000000000E+01 0. -1.
         -5    1    3    3    0  502 -0.22982763770E+02  0.51065780451E+01 -0.65662035665E+02  0.69913357076E+02  0.47000000000E+01 0.  1.
          5    1    4    4  503    0 -0.76417591177E+00 -0.23076625205E+02 -0.94285978650E+02  0.97185648970E+02  0.47000000000E+01 0. -1.
         -5    1    4    4    0  503 -0.56128193041E+02  0.26196678952E+02 -0.36881442568E+02  0.72242444920E+02  0.47000000000E+01 0.  1.
<mgrwt>
<rscale>  0 0.10714834E+03</rscale>
<asrwt>0</asrwt>
<pdfrwt beam="1">  1        1 0.91702400E-01 0.10724265E+03</pdfrwt>
<pdfrwt beam="2">  1       -1 0.39284916E-02 0.10724265E+03</pdfrwt>
<totfact> 0.84551304E+03</totfact>
</mgrwt>
</event>
<event>
 8    1  0.6396648E-004  0.1133691E+03  0.7546771E-02  0.1254564E+00
         -1   -1    0    0    0  501 -0.00000000000E+00  0.00000000000E+00  0.14447599135E+03  0.14447599135E+03  0.00000000000E+00 0.  1.
          1   -1    0    0  501    0  0.00000000000E+00 -0.00000000000E+00 -0.12155000387E+03  0.12155000387E+03  0.00000000000E+00 0. -1.
         23    2    1    2    0    0  0.33489337727E+02  0.57814387360E+02  0.80548502426E+02  0.13907057109E+03  0.91588882372E+02 0.  0.
         23    2    1    2    0    0 -0.33489337727E+02 -0.57814387360E+02 -0.57622514947E+02  0.12695542413E+03  0.91286835638E+02 0.  0.
          5    1    3    3  502    0 -0.93707357645E+01 -0.19963765972E+02  0.68347188238E+01  0.23561961335E+02  0.47000000000E+01 0. -1.
         -5    1    4    4    0  503  0.26198663587E+02 -0.33173241811E+02 -0.36920708343E+01  0.42691396476E+02  0.47000000000E+01 0.  1.
          5    1    4    4  503    0 -0.59688001314E+02 -0.24641145549E+02 -0.53930444112E+02  0.84264027657E+02  0.47000000000E+01 0. -1.
         -5    1    3    3    0  502  0.42860073491E+02  0.77778153332E+02  0.73713783602E+02  0.11550860976E+03  0.47000000000E+01 0.  1.
<mgrwt>
<rscale>  0 0.11330812E+03</rscale>
<asrwt>0</asrwt>
<pdfrwt beam="1">  1        1 0.18700000E-01 0.11336914E+03</pdfrwt>
<pdfrwt beam="2">  1       -1 0.22227076E-01 0.11336914E+03</pdfrwt>
<totfact> 0.44686070E+03</totfact>
</mgrwt>
</event>
<event>
 8    1  0.6396648E-004  0.9177215E+02  0.7546771E-02  0.1299409E+00
          1   -1    0    0  501    0  0.00000000000E+00  0.00000000000E+00  0.10359671168E+03  0.10359671168E+03  0.00000000000E+00 0. -1.
         -1   -1    0    0    0  501 -0.00000000000E+00 -0.00000000000E+00 -0.80647840568E+02  0.80647840568E+02  0.00000000000E+00 0.  1.
         23    2    1    2    0    0 -0.45032442948E+01  0.56402318680E+01  0.19014424544E+02  0.93721270555E+02  0.91487905151E+02 0.  0.
         23    2    1    2    0    0  0.45032442948E+01 -0.56402318680E+01  0.39344465657E+01  0.90523281692E+02  0.90149283046E+02 0.  0.
          5    1    4    4  502    0  0.22864659491E+02  0.10483757549E+02 -0.35580125446E+02  0.43826215360E+02  0.47000000000E+01 0.  1.
         -5    1    3    3    0  503  0.24866259537E+02 -0.33617312909E+02  0.41891197895E+01  0.42285852424E+02  0.47000000000E+01 0.  1.
          5    1    3    3  503    0 -0.29369503832E+02  0.39257544777E+02  0.14825304755E+02  0.51435418131E+02  0.47000000000E+01 0. -1.
         -5    1    4    4    0  502 -0.18361415197E+02 -0.16123989417E+02  0.39514572012E+02  0.46697066332E+02  0.47000000000E+01 0. -1.
<mgrwt>
<rscale>  0 0.91436716E+02</rscale>
<asrwt>0</asrwt>
<pdfrwt beam="1">  1        1 0.15937956E-01 0.91772154E+02</pdfrwt>
<pdfrwt beam="2">  1       -1 0.12407360E-01 0.91772154E+02</pdfrwt>
<totfact> 0.13434349E+04</totfact>
</mgrwt>
</event>
<event>
 8    1  0.6396648E-004  0.9838433E+02  0.7546771E-02  0.1284119E+00
         -3   -1    0    0    0  501 -0.00000000000E+00  0.00000000000E+00  0.61826702403E+03  0.61826702403E+03  0.00000000000E+00 0.  1.
          3   -1    0    0  501    0  0.00000000000E+00 -0.00000000000E+00 -0.52411002187E+02  0.52411002187E+02  0.00000000000E+00 0. -1.
         23    2    1    2    0    0  0.15315023851E+02  0.29327354928E+02  0.19776014009E+01  0.98404201685E+02  0.92654370104E+02 0.  0.
         23    2    1    2    0    0 -0.15315023851E+02 -0.29327354928E+02  0.56387842044E+03  0.57227382453E+03  0.91890225275E+02 0.  0.
          5    1    4    4  502    0 -0.24001702260E+02  0.19781402536E+02  0.82454699631E+02  0.88251079817E+02  0.47000000000E+01 0. -1.
         -5    1    3    3    0  503  0.31289713439E+02  0.38446847144E-01  0.37754860200E+02  0.49260198071E+02  0.47000000000E+01 0.  1.
          5    1    3    3  503    0 -0.15974689589E+02  0.29288908080E+02 -0.35777258799E+02  0.49144003614E+02  0.47000000000E+01 0. -1.
         -5    1    4    4    0  502  0.86866784090E+01 -0.49108757463E+02  0.48142372081E+03  0.48402274472E+03  0.47000000000E+01 0.  1.
<mgrwt>
<rscale>  0 0.98204007E+02</rscale>
<asrwt>0</asrwt>
<pdfrwt beam="1">  1        3 0.80632315E-02 0.98384328E+02</pdfrwt>
<pdfrwt beam="2">  1       -3 0.95117999E-01 0.98384328E+02</pdfrwt>
<totfact> 0.23844767E+02</totfact>
</mgrwt>
</event>
<event>
 8    1  0.6396648E-004  0.9198268E+02  0.7546771E-02  0.1303496E+00
         -2   -1    0    0    0  501 -0.00000000000E+00  0.00000000000E+00  0.33395579005E+02  0.33395579005E+02  0.00000000000E+00 0.  1.
          2   -1    0    0  501    0  0.00000000000E+00 -0.00000000000E+00 -0.23877341479E+03  0.23877341479E+03  0.00000000000E+00 0. -1.
         23    2    1    2    0    0  0.82442115126E+00 -0.10641897680E+02 -0.71800589249E+02  0.10998485812E+03  0.82628171607E+02 0.  0.
         23    2    1    2    0    0 -0.82442115126E+00  0.10641897680E+02 -0.13357724654E+03  0.16218413567E+03  0.91361279630E+02 0.  0.
          5    1    4    4  502    0 -0.38331308503E+02  0.27427286253E+02 -0.92335994762E+02  0.10377654442E+03  0.47000000000E+01 0. -1.
         -5    1    4    4    0  502  0.37506887352E+02 -0.16785388573E+02 -0.41241251774E+02  0.58407591255E+02  0.47000000000E+01 0.  1.
          5    1    3    3  503    0 -0.46549385857E+01 -0.43039647878E+02 -0.61259180329E+02  0.75158877834E+02  0.47000000000E+01 0. -1.
         -5    1    3    3    0  503  0.54793597369E+01  0.32397750198E+02 -0.10541408920E+02  0.34825980288E+02  0.47000000000E+01 0.  1.
<mgrwt>
<rscale>  0 0.89734611E+02</rscale>
<asrwt>0</asrwt>
<pdfrwt beam="1">  1        2 0.36734370E-01 0.91982678E+02</pdfrwt>
<pdfrwt beam="2">  1       -2 0.51377817E-02 0.91982678E+02</pdfrwt>
<totfact> 0.23500392E+04</totfact>
</mgrwt>
</event>
<event>
 8    1  0.6396648E-004  0.1231642E+03  0.7546771E-02  0.1238812E+00
          1   -1    0    0  501    0  0.00000000000E+00  0.00000000000E+00  0.57014429334E+02  0.57014429334E+02  0.00000000000E+00 0. -1.
         -1   -1    0    0    0  501 -0.00000000000E+00 -0.00000000000E+00 -0.30262073242E+03  0.30262073242E+03  0.00000000000E+00 0.  1.
         23    2    1    2    0    0  0.77983678026E+02 -0.24605804181E+02 -0.18996477027E+03  0.22639794231E+03  0.92100568397E+02 0.  0.
         23    2    1    2    0    0 -0.77983678026E+02  0.24605804181E+02 -0.55641532817E+02  0.13323721945E+03  0.89270806170E+02 0.  0.
          5    1    4    4  502    0 -0.83009364807E+02  0.45424297974E+02 -0.29737078059E+02  0.99299070004E+02  0.47000000000E+01 0. -1.
         -5    1    4    4    0  502  0.50256867806E+01 -0.20818493793E+02 -0.25904454758E+02  0.33938149445E+02  0.47000000000E+01 0.  1.
          5    1    3    3  503    0 -0.16550069665E+02 -0.22688302948E+02 -0.42199645180E+02  0.50907405649E+02  0.47000000000E+01 0. -1.
         -5    1    3    3    0  503  0.94533747691E+02 -0.19175012328E+01 -0.14776512509E+03  0.17549053666E+03  0.47000000000E+01 0.  1.
<mgrwt>
<rscale>  0 0.12263541E+03</rscale>
<asrwt>0</asrwt>
<pdfrwt beam="1">  1        1 0.87714508E-02 0.12316418E+03</pdfrwt>
<pdfrwt beam="2">  1       -1 0.46557035E-01 0.12316418E+03</pdfrwt>
<totfact> 0.34357986E+03</totfact>
</mgrwt>
</event>
<event>
 8    1  0.6396648E-004  0.9682913E+02  0.7546771E-02  0.1290736E+00
          1   -1    0    0  501    0  0.00000000000E+00  0.00000000000E+00  0.97199112627E+02  0.97199112627E+02  0.00000000000E+00 0. -1.
         -1   -1    0    0    0  501 -0.00000000000E+00 -0.00000000000E+00 -0.90297170488E+02  0.90297170488E+02  0.00000000000E+00 0.  1.
         23    2    1    2    0    0 -0.21174424683E+02 -0.80844686476E+01  0.57504021380E+00  0.90460673917E+02  0.87573329046E+02 0.  0.
         23    2    1    2    0    0  0.21174424683E+02  0.80844686476E+01  0.63269019247E+01  0.97035609199E+02  0.94139071966E+02 0.  0.
          5    1    3    3  502    0 -0.15248427880E+02 -0.42402248476E+02 -0.20236276760E+02  0.49619170949E+02  0.47000000000E+01 0. -1.
         -5    1    4    4    0  503 -0.12434630279E+02  0.38311181680E+02 -0.19247724535E+02  0.44887989169E+02  0.47000000000E+01 0.  1.
          5    1    4    4  503    0  0.33609054962E+02 -0.30226713032E+02  0.25574626460E+02  0.52147620030E+02  0.47000000000E+01 0. -1.
         -5    1    3    3    0  502 -0.59259968034E+01  0.34317779828E+02  0.20811316974E+02  0.40841502967E+02  0.47000000000E+01 0.  1.
<mgrwt>
<rscale>  0 0.95195687E+02</rscale>
<asrwt>0</asrwt>
<pdfrwt beam="1">  1        1 0.14953710E-01 0.96829127E+02</pdfrwt>
<pdfrwt beam="2">  1       -1 0.13891872E-01 0.96829127E+02</pdfrwt>
<totfact> 0.12314897E+04</totfact>
</mgrwt>
</event>
<event>
 8    1  0.6396648E-004  0.1351210E+03  0.7546771E-02  0.1220587E+00
         -2   -1    0    0    0  501 -0.00000000000E+00  0.00000000000E+00  0.14046700279E+03  0.14046700279E+03  0.00000000000E+00 0.  1.
          2   -1    0    0  501    0  0.00000000000E+00 -0.00000000000E+00 -0.21687039526E+03  0.21687039526E+03  0.00000000000E+00 0. -1.
         23    2    1    2    0    0 -0.66292004675E+02  0.70329766209E+02 -0.15236603564E+03  0.20364945285E+03  0.94428729373E+02 0.  0.
         23    2    1    2    0    0  0.66292004675E+02 -0.70329766209E+02  0.75962643173E+02  0.15368794519E+03  0.92242915392E+02 0.  0.
          5    1    3    3  502    0 -0.19807897653E+02 -0.22059720900E+02 -0.48212179053E+02  0.56793382578E+02  0.47000000000E+01 0. -1.
         -5    1    3    3    0  502 -0.46484107022E+02  0.92389487110E+02 -0.10415385659E+03  0.14685607027E+03  0.47000000000E+01 0.  1.
          5    1    4    4  503    0  0.14472347117E+02 -0.18606637005E+02 -0.21122895371E+02  0.31998788736E+02  0.47000000000E+01 0. -1.
         -5    1    4    4    0  503  0.51819657558E+02 -0.51723129204E+02  0.97085538544E+02  0.12168915645E+03  0.47000000000E+01 0.  1.
<mgrwt>
<rscale>  0 0.13473981E+03</rscale>
<asrwt>0</asrwt>
<pdfrwt beam="1">  1        2 0.33364676E-01 0.13512102E+03</pdfrwt>
<pdfrwt beam="2">  1       -2 0.21610308E-01 0.13512102E+03</pdfrwt>
<totfact> 0.27730123E+03</totfact>
</mgrwt>
</event>
<event>
 8    1  0.6396648E-004  0.1043231E+03  0.7546771E-02  0.1272395E+00
          2   -1    0    0  501    0  0.00000000000E+00  0.00000000000E+00  0.19956021722E+03  0.19956021722E+03  0.00000000000E+00 0. -1.
         -2   -1    0    0    0  501 -0.00000000000E+00 -0.00000000000E+00 -0.89260832975E+02  0.89260832975E+02  0.00000000000E+00 0.  1.
         23    2    1    2    0    0  0.25105937410E+02  0.46321724612E+02 -0.35871527348E+02  0.11031804082E+03  0.90040509732E+02 0.  0.
         23    2    1    2    0    0 -0.25105937410E+02 -0.46321724612E+02  0.14617091160E+03  0.17850300937E+03  0.87871375851E+02 0.  0.
          5    1    3    3  502    0  0.20331912329E+02  0.16728146682E+02  0.28542703762E+02  0.39115131196E+02  0.47000000000E+01 0. -1.
         -5    1    4    4    0  503 -0.25121092569E+02  0.21332209084E+02  0.35185659811E+02  0.48438136758E+02  0.47000000000E+01 0.  1.
          5    1    4    4  503    0  0.15155159055E-01 -0.67653933697E+02  0.11098525179E+03  0.13006487261E+03  0.47000000000E+01 0. -1.
         -5    1    3    3    0  502  0.47740250814E+01  0.29593577930E+02 -0.64414231110E+02  0.71202909629E+02  0.47000000000E+01 0.  1.
<mgrwt>
<rscale>  0 0.10385333E+03</rscale>
<asrwt>0</asrwt>
<pdfrwt beam="1">  1        2 0.30701572E-01 0.10432307E+03</pdfrwt>
<pdfrwt beam="2">  1       -2 0.13732436E-01 0.10432307E+03</pdfrwt>
<totfact> 0.63257087E+03</totfact>
</mgrwt>
</event>
<event>
 8    1  0.6396648E-004  0.1309538E+03  0.7546771E-02  0.1227525E+00
         -2   -1    0    0    0  501 -0.00000000000E+00  0.00000000000E+00  0.11842324336E+02  0.11842324336E+02  0.00000000000E+00 0.  1.
          2   -1    0    0  501    0  0.00000000000E+00 -0.00000000000E+00 -0.14552007452E+04  0.14552007452E+04  0.00000000000E+00 0. -1.
         23    2    1    2    0    0  0.46106582243E+02  0.74768227804E+02 -0.86900736048E+03  0.87881892376E+03  0.97122620351E+02 0.  0.
         23    2    1    2    0    0 -0.46106582243E+02 -0.74768227804E+02 -0.57435106042E+03  0.58822414580E+03  0.91719138083E+02 0.  0.
          5    1    4    4  502    0  0.51648105282E+01 -0.75172162580E+02 -0.34578831511E+03  0.35393386128E+03  0.47000000000E+01 0. -1.
         -5    1    3    3    0  503  0.26404098634E+02 -0.19282476055E+02 -0.16554201780E+03  0.16880533157E+03  0.47000000000E+01 0.  1.
          5    1    3    3  503    0  0.19702483609E+02  0.94050703859E+02 -0.70346534267E+03  0.71001359219E+03  0.47000000000E+01 0. -1.
         -5    1    4    4    0  502 -0.51271392771E+02  0.40393477592E+00 -0.22856274531E+03  0.23429028452E+03  0.47000000000E+01 0.  1.
<mgrwt>
<rscale>  0 0.12995349E+03</rscale>
<asrwt>0</asrwt>
<pdfrwt beam="1">  1        2 0.22387720E+00 0.13095384E+03</pdfrwt>
<pdfrwt beam="2">  1       -2 0.18218947E-02 0.13095384E+03</pdfrwt>
<totfact> 0.12398237E+04</totfact>
</mgrwt>
</event>
<event>
 8    1  0.6396648E-004  0.1158475E+03  0.7546771E-02  0.1250849E+00
          2   -1    0    0  501    0  0.00000000000E+00  0.00000000000E+00  0.14684123563E+03  0.14684123563E+03  0.00000000000E+00 0. -1.
         -2   -1    0    0    0  501 -0.00000000000E+00 -0.00000000000E+00 -0.11900090706E+03  0.11900090706E+03  0.00000000000E+00 0.  1.
         23    2    1    2    0    0 -0.46706692824E+02 -0.52786058544E+02  0.79390485339E+02  0.13904281483E+03  0.89789598851E+02 0.  0.
         23    2    1    2    0    0  0.46706692824E+02  0.52786058544E+02 -0.51550156765E+02  0.12679932787E+03  0.91938934917E+02 0.  0.
          5    1    3    3  502    0  0.19919115156E+02  0.97136414860E+01  0.14678222794E+02  0.26993817883E+02  0.47000000000E+01 0. -1.
         -5    1    3    3    0  502 -0.66625807979E+02 -0.62499700030E+02  0.64712262546E+02  0.11204899695E+03  0.47000000000E+01 0.  1.
          5    1    4    4  503    0  0.34765480822E+02  0.78828000867E+02 -0.43737046646E+02  0.96734231928E+02  0.47000000000E+01 0. -1.
         -5    1    4    4    0  503  0.11941212002E+02 -0.26041942323E+02 -0.78131101191E+01  0.30065095938E+02  0.47000000000E+01 0.  1.
<mgrwt>
<rscale>  0 0.11542061E+03</rscale>
<asrwt>0</asrwt>
<pdfrwt beam="1">  1        2 0.22590959E-01 0.11584753E+03</pdfrwt>
<pdfrwt beam="2">  1       -2 0.18307832E-01 0.11584753E+03</pdfrwt>
<totfact> 0.55624717E+03</totfact>
</mgrwt>
</event>
<event>
 8    1  0.6396648E-004  0.1127948E+03  0.7546771E-02  0.1255846E+00
          1   -1    0    0  501    0  0.00000000000E+00  0.00000000000E+00  0.18862137211E+03  0.18862137211E+03  0.00000000000E+00 0. -1.
         -1   -1    0    0    0  501 -0.00000000000E+00 -0.00000000000E+00 -0.69124049089E+02  0.69124049089E+02  0.00000000000E+00 0.  1.
         23    2    1    2    0    0 -0.47901056399E+02 -0.44235318378E+02  0.37184034049E+02  0.11876583944E+03  0.92040195753E+02 0.  0.
         23    2    1    2    0    0  0.47901056399E+02  0.44235318378E+02  0.82313288973E+02  0.13897958176E+03  0.91041594932E+02 0.  0.
          5    1    4    4  502    0  0.72638992926E+02  0.23666191072E+02  0.71426255325E+02  0.10469150798E+03  0.47000000000E+01 0. -1.
         -5    1    4    4    0  502 -0.24737936527E+02  0.20569127306E+02  0.10887033648E+02  0.34288073778E+02  0.47000000000E+01 0.  1.
          5    1    3    3  503    0 -0.14311616153E+02 -0.53523925196E+02  0.55971928046E+02  0.78896005314E+02  0.47000000000E+01 0. -1.
         -5    1    3    3    0  503 -0.33589440246E+02  0.92886068173E+01 -0.18787893997E+02  0.39869834129E+02  0.47000000000E+01 0.  1.
<mgrwt>
<rscale>  0 0.11259093E+03</rscale>
<asrwt>0</asrwt>
<pdfrwt beam="1">  1        1 0.29018672E-01 0.11279482E+03</pdfrwt>
<pdfrwt beam="2">  1       -1 0.10634469E-01 0.11279482E+03</pdfrwt>
<totfact> 0.81627725E+03</totfact>
</mgrwt>
</event>
<event>
 8    1  0.6396648E-004  0.9959574E+02  0.7546771E-02  0.1281547E+00
          3   -1    0    0  501    0  0.00000000000E+00  0.00000000000E+00  0.77129538200E+02  0.77129538200E+02  0.00000000000E+00 0. -1.
         -3   -1    0    0    0  501 -0.00000000000E+00 -0.00000000000E+00 -0.22316873870E+03  0.22316873870E+03  0.00000000000E+00 0.  1.
         23    2    1    2    0    0  0.38328146276E+02  0.22032563094E+01  0.25375165460E+02  0.10205046285E+03  0.91085107516E+02 0.  0.
         23    2    1    2    0    0 -0.38328146276E+02 -0.22032563094E+01 -0.17141436596E+03  0.19824781405E+03  0.91898910666E+02 0.  0.
          5    1    3    3  502    0  0.42233370268E+02 -0.21964707043E+02 -0.18743438281E+02  0.51376185128E+02  0.47000000000E+01 0.  1.
         -5    1    3    3    0  502 -0.39052239918E+01  0.24167963353E+02  0.44118603741E+02  0.50674277726E+02  0.47000000000E+01 0. -1.
          5    1    4    4  503    0  0.23878982451E+02 -0.23310345980E+02 -0.55462962293E+02  0.64898445428E+02  0.47000000000E+01 0. -1.
         -5    1    4    4    0  503 -0.62207128727E+02  0.21107089670E+02 -0.11595140367E+03  0.13334936862E+03  0.47000000000E+01 0.  1.
<mgrwt>
<rscale>  0 0.99407602E+02</rscale>
<asrwt>0</asrwt>
<pdfrwt beam="1">  1        3 0.11866083E-01 0.99595737E+02</pdfrwt>
<pdfrwt beam="2">  1       -3 0.34333652E-01 0.99595737E+02</pdfrwt>
<totfact> 0.10086134E+03</totfact>
</mgrwt>
</event>
<event>
 8    1  0.6396648E-004  0.1193480E+03  0.7546771E-02  0.1246232E+00
          1   -1    0    0  501    0  0.00000000000E+00  0.00000000000E+00  0.99633056749E+03  0.99633056749E+03  0.00000000000E+00 0. -1.
         -1   -1    0    0    0  501 -0.00000000000E+00 -0.00000000000E+00 -0.15736159255E+02  0.15736159255E+02  0.00000000000E+00 0.  1.
         23    2    1    2    0    0  0.55332775161E+02  0.57996111555E+02  0.31816253809E+03  0.33981075530E+03  0.88423321642E+02 0.  0.
         23    2    1    2    0    0 -0.55332775161E+02 -0.57996111555E+02  0.66243187014E+03  0.67225597145E+03  0.81773122711E+02 0.  0.
          5    1    4    4  502    0 -0.75443639239E+02 -0.50255667038E+02  0.57296166423E+03  0.58010734649E+03  0.47000000000E+01 0. -1.
         -5    1    4    4    0  502  0.20110864077E+02 -0.77404445172E+01  0.89470205910E+02  0.92148624953E+02  0.47000000000E+01 0.  1.
          5    1    3    3  503    0 -0.19747212258E+02  0.18661750055E+02  0.13697464195E+03  0.13972242427E+03  0.47000000000E+01 0. -1.
         -5    1    3    3    0  503  0.75079987419E+02  0.39334361500E+02  0.18118789614E+03  0.20008833103E+03  0.47000000000E+01 0.  1.
<mgrwt>
<rscale>  0 0.11811919E+03</rscale>
<asrwt>0</asrwt>
<pdfrwt beam="1">  1        1 0.15328158E+00 0.11934802E+03</pdfrwt>
<pdfrwt beam="2">  1       -1 0.24209484E-02 0.11934802E+03</pdfrwt>
<totfact> 0.80110668E+03</totfact>
</mgrwt>
</event>
<event>
 8    1  0.6396648E-004  0.9366358E+02  0.7546771E-02  0.1294257E+00
          3   -1    0    0  501    0  0.00000000000E+00  0.00000000000E+00  0.30314476031E+02  0.30314476031E+02  0.00000000000E+00 0. -1.
         -3   -1    0    0    0  501 -0.00000000000E+00 -0.00000000000E+00 -0.29428017193E+03  0.29428017193E+03  0.00000000000E+00 0.  1.
         23    2    1    2    0    0 -0.13028258671E+02 -0.80304297705E+01 -0.15331878793E+03  0.17962704689E+03  0.92330936930E+02 0.  0.
         23    2    1    2    0    0  0.13028258671E+02  0.80304297705E+01 -0.11064690797E+03  0.14496760108E+03  0.92404782302E+02 0.  0.
          5    1    3    3  502    0 -0.37540946042E+02 -0.11143888112E+02 -0.20505626001E+02  0.44453116535E+02  0.47000000000E+01 0. -1.
         -5    1    4    4    0  503  0.96841859235E+01  0.49909088285E+02 -0.66570600174E+02  0.83895383412E+02  0.47000000000E+01 0.  1.
          5    1    4    4  503    0  0.33440727477E+01 -0.41878658514E+02 -0.44076307799E+02  0.61072217666E+02  0.47000000000E+01 0. -1.
         -5    1    3    3    0  502  0.24512687370E+02  0.31134583419E+01 -0.13281316193E+03  0.13517393035E+03  0.47000000000E+01 0.  1.
<mgrwt>
<rscale>  0 0.93645366E+02</rscale>
<asrwt>0</asrwt>
<pdfrwt beam="1">  1        3 0.46637654E-02 0.93663585E+02</pdfrwt>
<pdfrwt beam="2">  1       -3 0.45273874E-01 0.93663585E+02</pdfrwt>
<totfact> 0.26407035E+03</totfact>
</mgrwt>
</event>
<event>
 8    1  0.6396648E-004  0.1112599E+03  0.7546771E-02  0.1259458E+00
          2   -1    0    0  501    0  0.00000000000E+00  0.00000000000E+00  0.57295224451E+03  0.57295224451E+03  0.00000000000E+00 0. -1.
         -2   -1    0    0    0  501 -0.00000000000E+00 -0.00000000000E+00 -0.23274764488E+02  0.23274764488E+02  0.00000000000E+00 0.  1.
         23    2    1    2    0    0 -0.62298066465E+02  0.21052327441E+01  0.18671312822E+03  0.21734895169E+03  0.92159066078E+02 0.  0.
         23    2    1    2    0    0  0.62298066465E+02 -0.21052327441E+01  0.36296435180E+03  0.37887805731E+03  0.88994272517E+02 0.  0.
          5    1    3    3  502    0 -0.20771336212E+02 -0.39318575052E+02  0.12173058267E+03  0.12968355142E+03  0.47000000000E+01 0. -1.
         -5    1    3    3    0  502 -0.41526730253E+02  0.41423807796E+02  0.64982545549E+02  0.87665400266E+02  0.47000000000E+01 0.  1.
          5    1    4    4  503    0 -0.16349188363E+02 -0.13033049859E+02  0.32165792438E+02  0.38650802733E+02  0.47000000000E+01 0. -1.
         -5    1    4    4    0  503  0.78647254827E+02  0.10927817115E+02  0.33079855936E+03  0.34022725458E+03  0.47000000000E+01 0.  1.
<mgrwt>
<rscale>  0 0.11060238E+03</rscale>
<asrwt>0</asrwt>
<pdfrwt beam="1">  1        2 0.88146488E-01 0.11125994E+03</pdfrwt>
<pdfrwt beam="2">  1       -2 0.35807334E-02 0.11125994E+03</pdfrwt>
<totfact> 0.16100545E+04</totfact>
</mgrwt>
</event>
<event>
 8    1  0.6396648E-004  0.1121328E+03  0.7546771E-02  0.1257402E+00
         -2   -1    0    0    0  501 -0.00000000000E+00  0.00000000000E+00  0.18065639972E+03  0.18065639972E+03  0.00000000000E+00 0.  1.
          2   -1    0    0  501    0  0.00000000000E+00 -0.00000000000E+00 -0.68811872077E+02  0.68811872077E+02  0.00000000000E+00 0. -1.
         23    2    1    2    0    0  0.53185196112E+02  0.34848225203E+02  0.63150224212E+02  0.12869231802E+03  0.92361777883E+02 0.  0.
         23    2    1    2    0    0 -0.53185196112E+02 -0.34848225203E+02  0.48694303436E+02  0.12077595378E+03  0.90402610249E+02 0.  0.
          5    1    4    4  502    0 -0.14962077105E+02 -0.15225351543E+02 -0.26312587105E+02  0.34206977667E+02  0.47000000000E+01 0. -1.
         -5    1    4    4    0  502 -0.38223119007E+02 -0.19622873660E+02  0.75006890541E+02  0.86568976117E+02  0.47000000000E+01 0.  1.
          5    1    3    3  503    0  0.64981798257E+02  0.11730636281E+02  0.74775433490E+02  0.99868400337E+02  0.47000000000E+01 0. -1.
         -5    1    3    3    0  503 -0.11796602145E+02  0.23117588922E+02 -0.11625209278E+02  0.28823917681E+02  0.47000000000E+01 0.  1.
<mgrwt>
<rscale>  0 0.11172857E+03</rscale>
<asrwt>0</asrwt>
<pdfrwt beam="1">  1        2 0.10586442E-01 0.11213279E+03</pdfrwt>
<pdfrwt beam="2">  1       -2 0.27793292E-01 0.11213279E+03</pdfrwt>
<totfact> 0.65368026E+03</totfact>
</mgrwt>
</event>
<event>
 8    1  0.6396648E-004  0.1014890E+03  0.7546771E-02  0.1277582E+00
         -2   -1    0    0    0  501 -0.00000000000E+00  0.00000000000E+00  0.26654145197E+02  0.26654145197E+02  0.00000000000E+00 0.  1.
          2   -1    0    0  501    0  0.00000000000E+00 -0.00000000000E+00 -0.47203480141E+03  0.47203480141E+03  0.00000000000E+00 0. -1.
         23    2    1    2    0    0  0.88632972808E+01 -0.41995309313E+02 -0.11543004579E+03  0.15370139361E+03  0.91966618311E+02 0.  0.
         23    2    1    2    0    0 -0.88632972808E+01  0.41995309313E+02 -0.32995061043E+03  0.34498755300E+03  0.91141880388E+02 0.  0.
          5    1    3    3  502    0  0.21329193624E+02  0.10614627961E+02 -0.91002348438E+02  0.94186635191E+02  0.47000000000E+01 0. -1.
         -5    1    4    4    0  503 -0.41718689275E+02  0.99505715213E+01 -0.80764735690E+02  0.91566890520E+02  0.47000000000E+01 0.  1.
          5    1    4    4  503    0  0.32855391994E+02  0.32044737792E+02 -0.24918587474E+03  0.25342066248E+03  0.47000000000E+01 0. -1.
         -5    1    3    3    0  502 -0.12465896343E+02 -0.52609937275E+02 -0.24427697350E+02  0.59514758418E+02  0.47000000000E+01 0.  1.
<mgrwt>
<rscale>  0 0.10130182E+03</rscale>
<asrwt>0</asrwt>
<pdfrwt beam="1">  1        2 0.72620741E-01 0.10148903E+03</pdfrwt>
<pdfrwt beam="2">  1       -2 0.41006376E-02 0.10148903E+03</pdfrwt>
<totfact> 0.16169487E+04</totfact>
</mgrwt>
</event>
<event>
 8    1  0.6396648E-004  0.1288274E+03  0.7546771E-02  0.1231079E+00
          2   -1    0    0  501    0  0.00000000000E+00  0.00000000000E+00  0.29100861829E+03  0.29100861829E+03  0.00000000000E+00 0. -1.
         -2   -1    0    0    0  501 -0.00000000000E+00 -0.00000000000E+00 -0.81067612208E+02  0.81067612208E+02  0.00000000000E+00 0.  1.
         23    2    1    2    0    0 -0.30949436032E+02 -0.82248033475E+02  0.63759740164E+00  0.12882896779E+03  0.94201325946E+02 0.  0.
         23    2    1    2    0    0  0.30949436032E+02  0.82248033475E+02  0.20930340868E+03  0.24324726271E+03  0.87399698680E+02 0.  0.
          5    1    3    3  502    0  0.26139228928E+02 -0.42168885903E+02  0.23738274423E+02  0.55200270831E+02  0.47000000000E+01 0. -1.
         -5    1    3    3    0  502 -0.57088664959E+02 -0.40079147572E+02 -0.23100677021E+02  0.73628696958E+02  0.47000000000E+01 0.  1.
          5    1    4    4  503    0 -0.20565246283E+02  0.28265797332E+02  0.12809841818E+03  0.13286526783E+03  0.47000000000E+01 0. -1.
         -5    1    4    4    0  503  0.51514682315E+02  0.53982236143E+02  0.81204990502E+02  0.11038199489E+03  0.47000000000E+01 0.  1.
<mgrwt>
<rscale>  0 0.12758796E+03</rscale>
<asrwt>0</asrwt>
<pdfrwt beam="1">  1        2 0.44770556E-01 0.12882739E+03</pdfrwt>
<pdfrwt beam="2">  1       -2 0.12471940E-01 0.12882739E+03</pdfrwt>
<totfact> 0.50136851E+03</totfact>
</mgrwt>
</event>
<event>
 8    1  0.6396648E-004  0.1007358E+03  0.7546771E-02  0.1279959E+00
          1   -1    0    0  501    0  0.00000000000E+00  0.00000000000E+00  0.75090644624E+03  0.75090644624E+03  0.00000000000E+00 0. -1.
         -1   -1    0    0    0  501 -0.00000000000E+00 -0.00000000000E+00 -0.13366212389E+02  0.13366212389E+02  0.00000000000E+00 0.  1.
         23    2    1    2    0    0  0.31908611288E+01  0.33882263886E+02  0.40596834593E+03  0.41773604777E+03  0.92384621579E+02 0.  0.
         23    2    1    2    0    0 -0.31908611288E+01 -0.33882263886E+02  0.33157188792E+03  0.34653661087E+03  0.94813060329E+02 0.  0.
          5    1    3    3  502    0  0.44854195951E+02  0.25829949642E+02  0.16426279348E+03  0.17228882875E+03  0.47000000000E+01 0. -1.
         -5    1    3    3    0  502 -0.41663334822E+02  0.80523142447E+01  0.24170555245E+03  0.24544721901E+03  0.47000000000E+01 0.  1.
          5    1    4    4  503    0  0.36110075496E+01  0.27964518788E+02  0.18559108117E+03  0.18777963973E+03  0.47000000000E+01 0. -1.
         -5    1    4    4    0  503 -0.68018686785E+01 -0.61846782675E+02  0.14598080676E+03  0.15875697114E+03  0.47000000000E+01 0.  1.
<mgrwt>
<rscale>  0 0.10016035E+03</rscale>
<asrwt>0</asrwt>
<pdfrwt beam="1">  1        1 0.11552404E+00 0.10073582E+03</pdfrwt>
<pdfrwt beam="2">  1       -1 0.20563409E-02 0.10073582E+03</pdfrwt>
<totfact> 0.15530236E+04</totfact>
</mgrwt>
</event>
<event>
 8    1  0.6396648E-004  0.9668353E+02  0.7546771E-02  0.1287752E+00
         -2   -1    0    0    0  501 -0.00000000000E+00  0.00000000000E+00  0.85261244340E+02  0.85261244340E+02  0.00000000000E+00 0.  1.
          2   -1    0    0  501    0  0.00000000000E+00 -0.00000000000E+00 -0.20918196075E+03  0.20918196075E+03  0.00000000000E+00 0. -1.
         23    2    1    2    0    0 -0.97062193891E+01 -0.27683566904E+02 -0.16395561224E+03  0.19033956050E+03  0.92125539004E+02 0.  0.
         23    2    1    2    0    0  0.97062193891E+01  0.27683566904E+02  0.40034895827E+02  0.10410364459E+03  0.91510575132E+02 0.  0.
          5    1    4    4  502    0 -0.33051465449E+02 -0.33201265847E+01 -0.57623224532E+01  0.34039931976E+02  0.47000000000E+01 0. -1.
         -5    1    3    3    0  503  0.10423599596E+02  0.19895205180E+02 -0.54836347022E+01  0.23593025818E+02  0.47000000000E+01 0.  1.
          5    1    3    3  503    0 -0.20129818986E+02 -0.47578772084E+02 -0.15847197754E+03  0.16674653469E+03  0.47000000000E+01 0. -1.
         -5    1    4    4    0  502  0.42757684838E+02  0.31003693488E+02  0.45797218280E+02  0.70063712611E+02  0.47000000000E+01 0.  1.
<mgrwt>
<rscale>  0 0.96536751E+02</rscale>
<asrwt>0</asrwt>
<pdfrwt beam="1">  1        2 0.32181840E-01 0.96683533E+02</pdfrwt>
<pdfrwt beam="2">  1       -2 0.13117115E-01 0.96683533E+02</pdfrwt>
<totfact> 0.64372447E+03</totfact>
</mgrwt>
</event>
<event>
 8    1  0.6396648E-004  0.1202732E+03  0.7546771E-02  0.1242838E+00
         -2   -1    0    0    0  501 -0.00000000000E+00  0.00000000000E+00  0.62511900067E+02  0.62511900067E+02  0.00000000000E+00 0.  1.
          2   -1    0    0  501    0  0.00000000000E+00 -0.00000000000E+00 -0.27616588183E+03  0.27616588183E+03  0.00000000000E+00 0. -1.
         23    2    1    2    0    0 -0.34848872486E+02 -0.68833151296E+02 -0.17550322869E+03  0.21249888488E+03  0.91662130468E+02 0.  0.
         23    2    1    2    0    0  0.34848872486E+02  0.68833151296E+02 -0.38150753066E+02  0.12617889701E+03  0.92266935906E+02 0.  0.
          5    1    3    3  502    0 -0.17443416737E+01 -0.26819268525E+02 -0.15105611633E+03  0.15350034584E+03  0.47000000000E+01 0. -1.
         -5    1    3    3    0  502 -0.33104530812E+02 -0.42013882771E+02 -0.24447112361E+02  0.58998539037E+02  0.47000000000E+01 0.  1.
          5    1    4    4  503    0  0.28031811575E+02 -0.52573457332E+01 -0.42615443012E+02  0.51493573652E+02  0.47000000000E+01 0. -1.
         -5    1    4    4    0  503  0.68170609105E+01  0.74090497029E+02  0.44646899458E+01  0.74685323363E+02  0.47000000000E+01 0.  1.
<mgrwt>
<rscale>  0 0.12015716E+03</rscale>
<asrwt>0</asrwt>
<pdfrwt beam="1">  1        2 0.42487059E-01 0.12027316E+03</pdfrwt>
<pdfrwt beam="2">  1       -2 0.96172154E-02 0.12027316E+03</pdfrwt>
<totfact> 0.79542880E+03</totfact>
</mgrwt>
</event>
<event>
 8    1  0.6396648E-004  0.9272168E+02  0.7546771E-02  0.1297261E+00
         -2   -1    0    0    0  501 -0.00000000000E+00  0.00000000000E+00  0.97894506498E+01  0.97894506498E+01  0.00000000000E+00 0. -1.
          2   -1    0    0  501    0  0.00000000000E+00 -0.00000000000E+00 -0.86643671274E+03  0.86643671274E+03  0.00000000000E+00 0.  1.
         23    2    1    2    0    0 -0.53288469130E+01 -0.17130788814E+02 -0.40969085348E+03  0.42005226576E+03  0.90969500430E+02 0.  0.
         23    2    1    2    0    0  0.53288469130E+01  0.17130788814E+02 -0.44695640861E+03  0.45617389763E+03  0.89457996558E+02 0.  0.
          5    1    3    3  502    0 -0.32298990766E+02 -0.42082852674E+02 -0.19276476913E+03  0.19998634331E+03  0.47000000000E+01 0. -1.
         -5    1    4    4    0  503  0.54494769001E+01  0.45702319109E+02 -0.38517403000E+03  0.38794267896E+03  0.47000000000E+01 0.  1.
          5    1    4    4  503    0 -0.12062998706E+00 -0.28571530295E+02 -0.61782378609E+02  0.68231218673E+02  0.47000000000E+01 0. -1.
         -5    1    3    3    0  502  0.26970143853E+02  0.24952063860E+02 -0.21692608436E+03  0.22006592245E+03  0.47000000000E+01 0.  1.
<mgrwt>
<rscale>  0 0.92348822E+02</rscale>
<asrwt>0</asrwt>
<pdfrwt beam="1">  1        2 0.13329801E+00 0.92721683E+02</pdfrwt>
<pdfrwt beam="2">  1       -2 0.15060687E-02 0.92721683E+02</pdfrwt>
<totfact> 0.34038140E+04</totfact>
</mgrwt>
</event>
<event>
 8    1  0.6396648E-004  0.1016207E+03  0.7546771E-02  0.1279621E+00
         -3   -1    0    0    0  501 -0.00000000000E+00  0.00000000000E+00  0.29304966681E+03  0.29304966681E+03  0.00000000000E+00 0.  1.
          3   -1    0    0  501    0  0.00000000000E+00 -0.00000000000E+00 -0.48378048645E+02  0.48378048645E+02  0.00000000000E+00 0. -1.
         23    2    1    2    0    0 -0.41519931617E+02 -0.44213912952E+01  0.21918492685E+03  0.24159634803E+03  0.92646153743E+02 0.  0.
         23    2    1    2    0    0  0.41519931617E+02  0.44213912952E+01  0.25486691314E+02  0.99831367418E+02  0.87024577355E+02 0.  0.
          5    1    4    4  502    0  0.50565934929E+02  0.31398585877E+02  0.35308800423E+02  0.69365599238E+02  0.47000000000E+01 0. -1.
         -5    1    4    4    0  502 -0.90460033121E+01 -0.26977194582E+02 -0.98221091087E+01  0.30465768180E+02  0.47000000000E+01 0.  1.
          5    1    3    3  503    0 -0.48974120540E+02  0.29421168226E+02  0.82178423602E+02  0.10019707046E+03  0.47000000000E+01 0. -1.
         -5    1    3    3    0  503  0.74541889231E+01 -0.33842559521E+02  0.13700650325E+03  0.14139927758E+03  0.47000000000E+01 0.  1.
<mgrwt>
<rscale>  0 0.10032162E+03</rscale>
<asrwt>0</asrwt>
<pdfrwt beam="1">  1        3 0.74427769E-02 0.10162068E+03</pdfrwt>
<pdfrwt beam="2">  1       -3 0.45084563E-01 0.10162068E+03</pdfrwt>
<totfact> 0.12897105E+03</totfact>
</mgrwt>
</event>
<event>
 8    1  0.6396648E-004  0.1096855E+03  0.7546771E-02  0.1262613E+00
          1   -1    0    0  501    0  0.00000000000E+00  0.00000000000E+00  0.95635892391E+02  0.95635892391E+02  0.00000000000E+00 0. -1.
         -1   -1    0    0    0  501 -0.00000000000E+00 -0.00000000000E+00 -0.36186132086E+03  0.36186132086E+03  0.00000000000E+00 0.  1.
         23    2    1    2    0    0  0.53518707019E+02 -0.31186461738E+02 -0.31987953857E+03  0.33816243357E+03  0.90521074248E+02 0.  0.
         23    2    1    2    0    0 -0.53518707019E+02  0.31186461738E+02  0.53654110099E+02  0.11933477969E+03  0.86747787959E+02 0.  0.
          5    1    4    4  502    0 -0.10811023129E+02  0.26656309135E+02  0.67860696481E+02  0.73855271746E+02  0.47000000000E+01 0. -1.
         -5    1    3    3    0  503  0.12878927602E+02 -0.56581348297E+02 -0.21525729060E+03  0.22299127092E+03  0.47000000000E+01 0.  1.
          5    1    3    3  503    0  0.40639779416E+02  0.25394886560E+02 -0.10462224797E+03  0.11517116264E+03  0.47000000000E+01 0. -1.
         -5    1    4    4    0  502 -0.42707683890E+02  0.45301526030E+01 -0.14206586383E+02  0.45479507940E+02  0.47000000000E+01 0.  1.
<mgrwt>
<rscale>  0 0.10890403E+03</rscale>
<asrwt>0</asrwt>
<pdfrwt beam="1">  1        1 0.14713214E-01 0.10968552E+03</pdfrwt>
<pdfrwt beam="2">  1       -1 0.55670973E-01 0.10968552E+03</pdfrwt>
<totfact> 0.12524252E+03</totfact>
</mgrwt>
</event>
<event>
 8    1  0.6396648E-004  0.1202830E+03  0.7546771E-02  0.1243316E+00
         -1   -1    0    0    0  501 -0.00000000000E+00  0.00000000000E+00  0.44343988282E+03  0.44343988282E+03  0.00000000000E+00 0.  1.
          1   -1    0    0  501    0  0.00000000000E+00 -0.00000000000E+00 -0.10669299023E+03  0.10669299023E+03  0.00000000000E+00 0. -1.
         23    2    1    2    0    0  0.77238173878E+02  0.72882951000E+00  0.39859521818E+03  0.41634860193E+03  0.92204900492E+02 0.  0.
         23    2    1    2    0    0 -0.77238173878E+02 -0.72882951000E+00 -0.61848325591E+02  0.13378427112E+03  0.90037487325E+02 0.  0.
          5    1    3    3  502    0  0.53899167144E+02  0.44422353190E+02  0.25176516027E+03  0.26131638221E+03  0.47000000000E+01 0. -1.
         -5    1    4    4    0  503 -0.26085355602E+02 -0.43735861682E+02 -0.20763052905E+02  0.55194798123E+02  0.47000000000E+01 0.  1.
          5    1    4    4  503    0 -0.51152818276E+02  0.43007032172E+02 -0.41085272686E+02  0.78589472994E+02  0.47000000000E+01 0. -1.
         -5    1    3    3    0  502  0.23339006733E+02 -0.43693523680E+02  0.14683005791E+03  0.15503221972E+03  0.47000000000E+01 0.  1.
<mgrwt>
<rscale>  0 0.11986757E+03</rscale>
<asrwt>0</asrwt>
<pdfrwt beam="1">  1        1 0.16414306E-01 0.12028304E+03</pdfrwt>
<pdfrwt beam="2">  1       -1 0.68221519E-01 0.12028304E+03</pdfrwt>
<totfact> 0.74052629E+02</totfact>
</mgrwt>
</event>
<event>
 8    1  0.6396648E-004  0.9130835E+02  0.7546771E-02  0.1300954E+00
          1   -1    0    0  501    0  0.00000000000E+00  0.00000000000E+00  0.73019724535E+02  0.73019724535E+02  0.00000000000E+00 0. -1.
         -1   -1    0    0    0  501 -0.00000000000E+00 -0.00000000000E+00 -0.11223887305E+03  0.11223887305E+03  0.00000000000E+00 0.  1.
         23    2    1    2    0    0  0.68253420527E+00  0.12024401362E+00 -0.26305574866E+02  0.93041594754E+02  0.89242785556E+02 0.  0.
         23    2    1    2    0    0 -0.68253420527E+00 -0.12024401362E+00 -0.12913573651E+02  0.92217002832E+02  0.91305722248E+02 0.  0.
          5    1    4    4  502    0  0.16400130167E+02 -0.38007078061E+02  0.12227120819E+02  0.43417677687E+02  0.47000000000E+01 0. -1.
         -5    1    3    3    0  503  0.99726034891E+01  0.18956610570E+02 -0.53816142168E+02  0.58112589535E+02  0.47000000000E+01 0.  1.
          5    1    3    3  503    0 -0.92900692839E+01 -0.18836366556E+02  0.27510567302E+02  0.34929005219E+02  0.47000000000E+01 0. -1.
         -5    1    4    4    0  502 -0.17082664372E+02  0.37886834047E+02 -0.25140694470E+02  0.48799325145E+02  0.47000000000E+01 0.  1.
<mgrwt>
<rscale>  0 0.90788206E+02</rscale>
<asrwt>0</asrwt>
<pdfrwt beam="1">  1        1 0.11233804E-01 0.91308352E+02</pdfrwt>
<pdfrwt beam="2">  1       -1 0.17267519E-01 0.91308352E+02</pdfrwt>
<totfact> 0.12629924E+04</totfact>
</mgrwt>
</event>
<event>
 8    1  0.6396648E-004  0.1035436E+03  0.7546771E-02  0.1273872E+00
          1   -1    0    0  501    0  0.00000000000E+00  0.00000000000E+00  0.17161253641E+03  0.17161253641E+03  0.00000000000E+00 0. -1.
         -1   -1    0    0    0  501 -0.00000000000E+00 -0.00000000000E+00 -0.69174311908E+02  0.69174311908E+02  0.00000000000E+00 0.  1.
         23    2    1    2    0    0 -0.18628444198E+02 -0.44897208695E+02  0.91054023346E+02  0.13661927469E+03  0.89505378435E+02 0.  0.
         23    2    1    2    0    0  0.18628444198E+02  0.44897208695E+02  0.11384201156E+02  0.10416757362E+03  0.91424860277E+02 0.  0.
          5    1    4    4  502    0  0.23425907742E+02 -0.22454035252E+02  0.15683646614E+02  0.36345888677E+02  0.47000000000E+01 0. -1.
         -5    1    3    3    0  503  0.11424184946E+02  0.18952642942E+02  0.17347266307E+01  0.22689511953E+02  0.47000000000E+01 0.  1.
          5    1    3    3  503    0 -0.30052629145E+02 -0.63849851638E+02  0.89319296715E+02  0.11392976274E+03  0.47000000000E+01 0. -1.
         -5    1    4    4    0  502 -0.47974635432E+01  0.67351243947E+02 -0.42994454582E+01  0.67821684946E+02  0.47000000000E+01 0.  1.
<mgrwt>
<rscale>  0 0.10311831E+03</rscale>
<asrwt>0</asrwt>
<pdfrwt beam="1">  1        1 0.26401929E-01 0.10354363E+03</pdfrwt>
<pdfrwt beam="2">  1       -1 0.10642202E-01 0.10354363E+03</pdfrwt>
<totfact> 0.91031544E+03</totfact>
</mgrwt>
</event>
<event>
 8    1  0.6396648E-004  0.9488006E+02  0.7546771E-02  0.1291545E+00
         -1   -1    0    0    0  501 -0.00000000000E+00  0.00000000000E+00  0.29618971595E+02  0.29618971595E+02  0.00000000000E+00 0.  1.
          1   -1    0    0  501    0  0.00000000000E+00 -0.00000000000E+00 -0.35061464132E+03  0.35061464132E+03  0.00000000000E+00 0. -1.
         23    2    1    2    0    0 -0.27147691873E+02  0.15902061227E+02 -0.23015429869E+03  0.24887768253E+03  0.89326518623E+02 0.  0.
         23    2    1    2    0    0  0.27147691873E+02 -0.15902061227E+02 -0.90841371037E+02  0.13135593039E+03  0.89511748009E+02 0.  0.
          5    1    3    3  502    0 -0.56076420283E+02 -0.13443872755E+01 -0.17737115046E+03  0.18608865443E+03  0.47000000000E+01 0. -1.
         -5    1    4    4    0  503  0.45215115845E+02 -0.39977705695E+02 -0.41602034133E+02  0.73453678584E+02  0.47000000000E+01 0.  1.
          5    1    4    4  503    0 -0.18067423972E+02  0.24075644469E+02 -0.49239336903E+02  0.57902251806E+02  0.47000000000E+01 0. -1.
         -5    1    3    3    0  502  0.28928728410E+02  0.17246448502E+02 -0.52783148228E+02  0.62789028103E+02  0.47000000000E+01 0.  1.
<mgrwt>
<rscale>  0 0.94836347E+02</rscale>
<asrwt>0</asrwt>
<pdfrwt beam="1">  1        1 0.53940716E-01 0.94880060E+02</pdfrwt>
<pdfrwt beam="2">  1       -1 0.45567647E-02 0.94880060E+02</pdfrwt>
<totfact> 0.13270423E+04</totfact>
</mgrwt>
</event>
<event>
 8    1  0.6396648E-004  0.1100183E+03  0.7546771E-02  0.1261373E+00
         -2   -1    0    0    0  501 -0.00000000000E+00  0.00000000000E+00  0.13402514809E+03  0.13402514809E+03  0.00000000000E+00 0.  1.
          2   -1    0    0  501    0  0.00000000000E+00 -0.00000000000E+00 -0.97804404663E+02  0.97804404663E+02  0.00000000000E+00 0. -1.
         23    2    1    2    0    0 -0.17105779141E+02 -0.57484405913E+02 -0.16833001557E+02  0.11129854454E+03  0.92233136519E+02 0.  0.
         23    2    1    2    0    0  0.17105779141E+02  0.57484405913E+02  0.53053744987E+02  0.12053100822E+03  0.90088620154E+02 0.  0.
          5    1    4    4  502    0  0.35422707710E+02  0.42868116531E+02 -0.66674044517E+01  0.56204874508E+02  0.47000000000E+01 0. -1.
         -5    1    3    3    0  503 -0.52361165646E+02 -0.16117839784E+02 -0.32757527386E+01  0.55084453189E+02  0.47000000000E+01 0.  1.
          5    1    3    3  503    0  0.35255386505E+02 -0.41366566129E+02 -0.13557248818E+02  0.56214091351E+02  0.47000000000E+01 0. -1.
         -5    1    4    4    0  502 -0.18316928568E+02  0.14616289383E+02  0.59721149439E+02  0.64326133708E+02  0.47000000000E+01 0.  1.
<mgrwt>
<rscale>  0 0.10956761E+03</rscale>
<asrwt>0</asrwt>
<pdfrwt beam="1">  1        2 0.15046832E-01 0.11001825E+03</pdfrwt>
<pdfrwt beam="2">  1       -2 0.20619254E-01 0.11001825E+03</pdfrwt>
<totfact> 0.72010868E+03</totfact>
</mgrwt>
</event>
<event>
 8    1  0.6396648E-004  0.9786645E+02  0.7546771E-02  0.1287043E+00
          1   -1    0    0  501    0  0.00000000000E+00  0.00000000000E+00  0.68259643746E+02  0.68259643746E+02  0.00000000000E+00 0. -1.
         -1   -1    0    0    0  501 -0.00000000000E+00 -0.00000000000E+00 -0.15688582330E+03  0.15688582330E+03  0.00000000000E+00 0.  1.
         23    2    1    2    0    0 -0.37741394146E+01  0.34367226514E+02 -0.87440958224E+02  0.13123933574E+03  0.91555948375E+02 0.  0.
         23    2    1    2    0    0  0.37741394146E+01 -0.34367226514E+02 -0.11852213287E+01  0.93906131308E+02  0.87301811900E+02 0.  0.
          5    1    3    3  502    0 -0.37016517325E+02 -0.13116007205E+02 -0.31725686671E+02  0.50703662537E+02  0.47000000000E+01 0. -1.
         -5    1    4    4    0  503  0.30630199422E+02  0.26311354021E+01 -0.27007248880E+02  0.41189968223E+02  0.47000000000E+01 0.  1.
          5    1    4    4  503    0 -0.26856060007E+02 -0.36998361916E+02  0.25822027552E+02  0.52716163085E+02  0.47000000000E+01 0. -1.
         -5    1    3    3    0  502  0.33242377911E+02  0.47483233719E+02 -0.55715271552E+02  0.80535673199E+02  0.47000000000E+01 0.  1.
<mgrwt>
<rscale>  0 0.96859052E+02</rscale>
<asrwt>0</asrwt>
<pdfrwt beam="1">  1        1 0.10501484E-01 0.97866450E+02</pdfrwt>
<pdfrwt beam="2">  1       -1 0.24136280E-01 0.97866450E+02</pdfrwt>
<totfact> 0.81398070E+03</totfact>
</mgrwt>
</event>
<event>
 8    1  0.6396648E-004  0.1485067E+03  0.7546771E-02  0.1202584E+00
          2   -1    0    0  501    0  0.00000000000E+00  0.00000000000E+00  0.11265226731E+04  0.11265226731E+04  0.00000000000E+00 0. -1.
         -2   -1    0    0    0  501 -0.00000000000E+00 -0.00000000000E+00 -0.22243160816E+02  0.22243160816E+02  0.00000000000E+00 0.  1.
         23    2    1    2    0    0 -0.99600020886E+02 -0.60062020562E+02  0.34780041727E+03  0.37784764646E+03  0.90973090542E+02 0.  0.
         23    2    1    2    0    0  0.99600020886E+02  0.60062020562E+02  0.75647909497E+03  0.77091818742E+03  0.92339699430E+02 0.  0.
          5    1    3    3  502    0 -0.15100672939E+02 -0.38933626728E+02  0.21426698292E+03  0.21834900408E+03  0.47000000000E+01 0. -1.
         -5    1    4    4    0  503  0.58344295744E+02  0.82046333248E+02  0.47882585720E+03  0.48931784064E+03  0.47000000000E+01 0.  1.
          5    1    4    4  503    0  0.41255725142E+02 -0.21984312686E+02  0.27765323778E+03  0.28160034679E+03  0.47000000000E+01 0. -1.
         -5    1    3    3    0  502 -0.84499347947E+02 -0.21128393835E+02  0.13353343435E+03  0.15949864237E+03  0.47000000000E+01 0.  1.
<mgrwt>
<rscale>  0 0.14829475E+03</rscale>
<asrwt>0</asrwt>
<pdfrwt beam="1">  1        2 0.17331114E+00 0.14850667E+03</pdfrwt>
<pdfrwt beam="2">  1       -2 0.34220256E-02 0.14850667E+03</pdfrwt>
<totfact> 0.74791090E+03</totfact>
</mgrwt>
</event>
<event>
 8    1  0.6396648E-004  0.9963733E+02  0.7546771E-02  0.1283037E+00
         -3   -1    0    0    0  501 -0.00000000000E+00  0.00000000000E+00  0.89653522910E+02  0.89653522910E+02  0.00000000000E+00 0.  1.
          3   -1    0    0  501    0  0.00000000000E+00 -0.00000000000E+00 -0.13921585235E+03  0.13921585235E+03  0.00000000000E+00 0. -1.
         23    2    1    2    0    0 -0.43115518876E+01 -0.38318506987E+02  0.30875779135E+02  0.10081513799E+03  0.87883336605E+02 0.  0.
         23    2    1    2    0    0  0.43115518876E+01  0.38318506987E+02 -0.80438108577E+02  0.12805423727E+03  0.91873287276E+02 0.  0.
          5    1    4    4  502    0 -0.93764935758E+01  0.20249909428E+02 -0.96964700780E+02  0.99610344146E+02  0.47000000000E+01 0. -1.
         -5    1    4    4    0  502  0.13688045463E+02  0.18068597559E+02  0.16526592203E+02  0.28443893127E+02  0.47000000000E+01 0. -1.
          5    1    3    3  503    0  0.40255579139E+02 -0.15948278972E+02  0.25425252366E+02  0.50432060357E+02  0.47000000000E+01 0. -1.
         -5    1    3    3    0  503 -0.44567131027E+02 -0.22370228015E+02  0.54505267690E+01  0.50383077630E+02  0.47000000000E+01 0.  1.
<mgrwt>
<rscale>  0 0.98707751E+02</rscale>
<asrwt>0</asrwt>
<pdfrwt beam="1">  1        3 0.21417823E-01 0.99637334E+02</pdfrwt>
<pdfrwt beam="2">  1       -3 0.13792850E-01 0.99637334E+02</pdfrwt>
<totfact> 0.18452813E+03</totfact>
</mgrwt>
</event>
<event>
 8    1  0.6396648E-004  0.2723028E+03  0.7546771E-02  0.1100034E+00
         -1   -1    0    0    0  501 -0.00000000000E+00  0.00000000000E+00  0.69810219340E+02  0.69810219340E+02  0.00000000000E+00 0.  1.
          1   -1    0    0  501    0  0.00000000000E+00 -0.00000000000E+00 -0.10719219021E+04  0.10719219021E+04  0.00000000000E+00 0. -1.
         23    2    1    2    0    0  0.23452294074E+03 -0.10347809772E+03 -0.56074371488E+03  0.62336372058E+03  0.91869951114E+02 0.  0.
         23    2    1    2    0    0 -0.23452294074E+03  0.10347809772E+03 -0.44136796790E+03  0.51836840088E+03  0.90506295397E+02 0.  0.
          5    1    3    3  502    0  0.21549189738E+03 -0.65125527462E+02 -0.42517773834E+03  0.48111983055E+03  0.47000000000E+01 0. -1.
         -5    1    4    4    0  503 -0.13046129652E+03  0.60962347148E+02 -0.32990249196E+03  0.35999208583E+03  0.47000000000E+01 0.  1.
          5    1    4    4  503    0 -0.10406164421E+03  0.42515750567E+02 -0.11146547594E+03  0.15837631505E+03  0.47000000000E+01 0. -1.
         -5    1    3    3    0  502  0.19031043351E+02 -0.38352570253E+02 -0.13556597654E+03  0.14224389003E+03  0.47000000000E+01 0.  1.
<mgrwt>
<rscale>  0 0.27218847E+03</rscale>
<asrwt>0</asrwt>
<pdfrwt beam="1">  1        1 0.16491107E+00 0.27230280E+03</pdfrwt>
<pdfrwt beam="2">  1       -1 0.10740034E-01 0.27230280E+03</pdfrwt>
<totfact> 0.77288933E+02</totfact>
</mgrwt>
</event>
<event>
 8    1  0.6396648E-004  0.9402035E+02  0.7546771E-02  0.1293881E+00
         -1   -1    0    0    0  501 -0.00000000000E+00  0.00000000000E+00  0.51365912510E+03  0.51365912510E+03  0.00000000000E+00 0.  1.
          1   -1    0    0  501    0  0.00000000000E+00 -0.00000000000E+00 -0.23231855156E+02  0.23231855156E+02  0.00000000000E+00 0. -1.
         23    2    1    2    0    0 -0.17266805538E+02  0.99713118720E+01  0.38281477603E+03  0.39399145233E+03  0.91019460162E+02 0.  0.
         23    2    1    2    0    0  0.17266805538E+02 -0.99713118720E+01  0.10761249391E+03  0.14289952792E+03  0.91881753362E+02 0.  0.
          5    1    4    4  502    0  0.44727285207E+02  0.17812756318E+02  0.33027223033E+02  0.58572278348E+02  0.47000000000E+01 0. -1.
         -5    1    3    3    0  503  0.33044861538E+02 -0.80604312952E-01  0.77822677817E+02  0.84678383037E+02  0.47000000000E+01 0.  1.
          5    1    3    3  503    0 -0.50311667076E+02  0.10051916185E+02  0.30499209821E+03  0.30931306929E+03  0.47000000000E+01 0. -1.
         -5    1    4    4    0  502 -0.27460479669E+02 -0.27784068190E+02  0.74585270878E+02  0.84327249575E+02  0.47000000000E+01 0.  1.
<mgrwt>
<rscale>  0 0.93809014E+02</rscale>
<asrwt>0</asrwt>
<pdfrwt beam="1">  1        1 0.35741320E-02 0.94020350E+02</pdfrwt>
<pdfrwt beam="2">  1       -1 0.79024472E-01 0.94020350E+02</pdfrwt>
<totfact> 0.41558978E+03</totfact>
</mgrwt>
</event>
<event>
 8    1  0.6396648E-004  0.1230690E+03  0.7546771E-02  0.1239274E+00
          1   -1    0    0  501    0  0.00000000000E+00  0.00000000000E+00  0.32407277331E+02  0.32407277331E+02  0.00000000000E+00 0. -1.
         -1   -1    0    0    0  501 -0.00000000000E+00 -0.00000000000E+00 -0.47133882912E+03  0.47133882912E+03  0.00000000000E+00 0.  1.
         23    2    1    2    0    0  0.80554679084E+02 -0.11306179293E+02 -0.26655834452E+03  0.29359724426E+03  0.92353152579E+02 0.  0.
         23    2    1    2    0    0 -0.80554679084E+02  0.11306179293E+02 -0.17237320727E+03  0.21014886219E+03  0.88505003721E+02 0.  0.
          5    1    3    3  502    0  0.38226958130E+02 -0.32784325399E+01 -0.23929541220E+03  0.24239726225E+03  0.47000000000E+01 0.  1.
         -5    1    3    3    0  502  0.42327720954E+02 -0.80277467533E+01 -0.27262932326E+02  0.51199982012E+02  0.47000000000E+01 0. -1.
          5    1    4    4  503    0 -0.94890697251E+02 -0.35896616508E+01 -0.11639223099E+03  0.15028762933E+03  0.47000000000E+01 0. -1.
         -5    1    4    4    0  503  0.14336018167E+02  0.14895840944E+02 -0.55980976275E+02  0.59861232856E+02  0.47000000000E+01 0.  1.
<mgrwt>
<rscale>  0 0.12234753E+03</rscale>
<asrwt>0</asrwt>
<pdfrwt beam="1">  1        1 0.49857354E-02 0.12306905E+03</pdfrwt>
<pdfrwt beam="2">  1       -1 0.72513659E-01 0.12306905E+03</pdfrwt>
<totfact> 0.31930647E+03</totfact>
</mgrwt>
</event>
<event>
 8    1  0.6396648E-004  0.1028423E+03  0.7546771E-02  0.1279686E+00
         -2   -1    0    0    0  501 -0.00000000000E+00  0.00000000000E+00  0.18230217734E+02  0.18230217734E+02  0.00000000000E+00 0.  1.
          2   -1    0    0  501    0  0.00000000000E+00 -0.00000000000E+00 -0.75389424709E+03  0.75389424709E+03  0.00000000000E+00 0. -1.
         23    2    1    2    0    0  0.82208848407E+01 -0.20909909964E+02 -0.14288516303E+03  0.17049058477E+03  0.90255539441E+02 0.  0.
         23    2    1    2    0    0 -0.82208848407E+01  0.20909909964E+02 -0.59277886633E+03  0.60163388005E+03  0.10035802898E+03 0.  0.
          5    1    4    4  502    0 -0.22656712004E+02  0.58155223425E+02 -0.35348843917E+03  0.35898680093E+03  0.47000000000E+01 0. -1.
         -5    1    4    4    0  502  0.14435827163E+02 -0.37245313461E+02 -0.23929042716E+03  0.24264707913E+03  0.47000000000E+01 0.  1.
          5    1    3    3  503    0  0.15192002985E+01  0.35460076600E+02 -0.49194825204E+02  0.60843617816E+02  0.47000000000E+01 0. -1.
         -5    1    3    3    0  503  0.67016845423E+01 -0.56369986564E+02 -0.93690337827E+02  0.10964696696E+03  0.47000000000E+01 0.  1.
<mgrwt>
<rscale>  0 0.10029086E+03</rscale>
<asrwt>0</asrwt>
<pdfrwt beam="1">  1        2 0.11598374E+00 0.10284231E+03</pdfrwt>
<pdfrwt beam="2">  1       -2 0.28046487E-02 0.10284231E+03</pdfrwt>
<totfact> 0.16653035E+04</totfact>
</mgrwt>
</event>
<event>
 8    1  0.6396648E-004  0.1006128E+03  0.7546771E-02  0.1281539E+00
          1   -1    0    0  501    0  0.00000000000E+00  0.00000000000E+00  0.17200948221E+03  0.17200948221E+03  0.00000000000E+00 0. -1.
         -1   -1    0    0    0  501 -0.00000000000E+00 -0.00000000000E+00 -0.62637380948E+02  0.62637380948E+02  0.00000000000E+00 0.  1.
         23    2    1    2    0    0 -0.37992423900E+02  0.21072797894E+02  0.18033722467E+02  0.10221619697E+03  0.90749372963E+02 0.  0.
         23    2    1    2    0    0  0.37992423900E+02 -0.21072797894E+02  0.91338378793E+02  0.13243066618E+03  0.85485056119E+02 0.  0.
          5    1    4    4  502    0 -0.97071087947E+01 -0.19573431077E+02  0.80124790029E+02  0.83183046003E+02  0.47000000000E+01 0. -1.
         -5    1    3    3    0  503 -0.15380501517E+02  0.56211585717E+02  0.82763746442E+01  0.59049899009E+02  0.47000000000E+01 0.  1.
          5    1    3    3  503    0 -0.22611922383E+02 -0.35138787823E+02  0.97573478227E+01  0.43166297966E+02  0.47000000000E+01 0. -1.
         -5    1    4    4    0  502  0.47699532695E+02 -0.14993668174E+01  0.11213588764E+02  0.49247620177E+02  0.47000000000E+01 0.  1.
<mgrwt>
<rscale>  0 0.99411121E+02</rscale>
<asrwt>0</asrwt>
<pdfrwt beam="1">  1        1 0.26462997E-01 0.10061280E+03</pdfrwt>
<pdfrwt beam="2">  1       -1 0.96365202E-02 0.10061280E+03</pdfrwt>
<totfact> 0.10524642E+04</totfact>
</mgrwt>
</event>
<event>
 8    1  0.6396648E-004  0.9415292E+02  0.7546771E-02  0.1295100E+00
         -1   -1    0    0    0  501 -0.00000000000E+00  0.00000000000E+00  0.16994709587E+02  0.16994709587E+02  0.00000000000E+00 0.  1.
          1   -1    0    0  501    0  0.00000000000E+00 -0.00000000000E+00 -0.55753132713E+03  0.55753132713E+03  0.00000000000E+00 0. -1.
         23    2    1    2    0    0 -0.57599619072E+01  0.77594513470E+01 -0.36489036221E+03  0.37684180848E+03  0.93655677559E+02 0.  0.
         23    2    1    2    0    0  0.57599619072E+01 -0.77594513470E+01 -0.17564625534E+03  0.19768422824E+03  0.90189028350E+02 0.  0.
          5    1    4    4  502    0 -0.33827337795E+02  0.17447765175E+02 -0.11256930631E+03  0.11892288264E+03  0.47000000000E+01 0. -1.
         -5    1    4    4    0  502  0.39587299702E+02 -0.25207216522E+02 -0.63076949026E+02  0.78761345601E+02  0.47000000000E+01 0.  1.
          5    1    3    3  503    0 -0.29283899797E+01  0.36524379526E+02 -0.32637138820E+03  0.32845544416E+03  0.47000000000E+01 0. -1.
         -5    1    3    3    0  503 -0.28315719275E+01 -0.28764928179E+02 -0.38518974010E+02  0.48386364314E+02  0.47000000000E+01 0.  1.
<mgrwt>
<rscale>  0 0.93278914E+02</rscale>
<asrwt>0</asrwt>
<pdfrwt beam="1">  1        1 0.85774045E-01 0.94152919E+02</pdfrwt>
<pdfrwt beam="2">  1       -1 0.26145709E-02 0.94152919E+02</pdfrwt>
<totfact> 0.16484384E+04</totfact>
</mgrwt>
</event>
<event>
 8    1  0.6396648E-004  0.9283688E+02  0.7546771E-02  0.1297787E+00
          1   -1    0    0  501    0  0.00000000000E+00  0.00000000000E+00  0.26883767803E+03  0.26883767803E+03  0.00000000000E+00 0. -1.
         -1   -1    0    0    0  501 -0.00000000000E+00 -0.00000000000E+00 -0.37544766578E+02  0.37544766578E+02  0.00000000000E+00 0.  1.
         23    2    1    2    0    0  0.28031964871E+02  0.68025390504E+01  0.17766472530E+03  0.19916924922E+03  0.85273498980E+02 0.  0.
         23    2    1    2    0    0 -0.28031964871E+02 -0.68025390504E+01  0.53628186155E+02  0.10721319539E+03  0.88241834313E+02 0.  0.
          5    1    3    3  502    0  0.56489827331E+02  0.14902165824E+02  0.99774761896E+02  0.11571632663E+03  0.47000000000E+01 0. -1.
         -5    1    4    4    0  503 -0.38597352409E+02  0.27123778451E+02  0.53348101921E+02  0.71369215695E+02  0.47000000000E+01 0.  1.
          5    1    4    4  503    0  0.10565387538E+02 -0.33926317501E+02  0.28008423414E+00  0.35843979692E+02  0.47000000000E+01 0. -1.
         -5    1    3    3    0  502 -0.28457862461E+02 -0.80996267738E+01  0.77889963406E+02  0.83452922591E+02  0.47000000000E+01 0.  1.
<mgrwt>
<rscale>  0 0.92124554E+02</rscale>
<asrwt>0</asrwt>
<pdfrwt beam="1">  1        1 0.41359641E-01 0.92836883E+02</pdfrwt>
<pdfrwt beam="2">  1       -1 0.57761181E-02 0.92836883E+02</pdfrwt>
<totfact> 0.12949303E+04</totfact>
</mgrwt>
</event>
<event>
 8    1  0.6396648E-004  0.1024615E+03  0.7546771E-02  0.1275732E+00
         -2   -1    0    0    0  501 -0.00000000000E+00  0.00000000000E+00  0.31174778510E+02  0.31174778510E+02  0.00000000000E+00 0.  1.
          2   -1    0    0  501    0  0.00000000000E+00 -0.00000000000E+00 -0.63656133725E+03  0.63656133725E+03  0.00000000000E+00 0. -1.
         23    2    1    2    0    0 -0.50537633612E+02 -0.78298803930E+00 -0.73081973116E+02  0.12585445343E+03  0.89127454655E+02 0.  0.
         23    2    1    2    0    0  0.50537633612E+02  0.78298803930E+00 -0.53230458562E+03  0.54188166232E+03  0.87936901278E+02 0.  0.
          5    1    3    3  502    0 -0.40380287534E+02  0.27486087395E+02 -0.80755997522E+02  0.94496951048E+02  0.47000000000E+01 0. -1.
         -5    1    3    3    0  502 -0.10157346079E+02 -0.28269075435E+02  0.76740244066E+01  0.31357502386E+02  0.47000000000E+01 0.  1.
          5    1    4    4  503    0 -0.24322063905E+02  0.80161773104E+01 -0.13049042470E+03  0.13306262747E+03  0.47000000000E+01 0. -1.
         -5    1    4    4    0  503  0.74859697517E+02 -0.72331892711E+01 -0.40181416092E+03  0.40881903485E+03  0.47000000000E+01 0.  1.
<mgrwt>
<rscale>  0 0.10220208E+03</rscale>
<asrwt>0</asrwt>
<pdfrwt beam="1">  1        2 0.97932512E-01 0.10246155E+03</pdfrwt>
<pdfrwt beam="2">  1       -2 0.47961199E-02 0.10246155E+03</pdfrwt>
<totfact> 0.92194349E+03</totfact>
</mgrwt>
</event>
<event>
 7    1  0.6396648E-004  0.1521119E+03  0.7546771E-02  0.1212593E+00
          2   -1    0    0  501    0  0.00000000000E+00  0.00000000000E+00  0.81027446849E+03  0.81027446849E+03  0.00000000000E+00 0. -1.
         -2   -1    0    0    0  501 -0.00000000000E+00 -0.00000000000E+00 -0.22275729612E+02  0.22275729612E+02  0.00000000000E+00 0.  1.
         23    2    1    2    0    0  0.37669642831E+02 -0.55444936862E+02  0.41919874076E+03  0.43361227038E+03  0.88311232329E+02 0.  0.
          5    1    1    2  502    0 -0.24003050229E+00  0.80204038026E+02  0.32932987191E+03  0.33898820018E+03  0.47000000000E+01 0. -1.
         -5    1    1    2    0  502 -0.37429612328E+02 -0.24759101163E+02  0.39470126215E+02  0.59949727547E+02  0.47000000000E+01 0.  1.
          5    1    3    3  503    0  0.25245756821E+02  0.19258061273E+02  0.17423229321E+03  0.17716433941E+03  0.47000000000E+01 0. -1.
         -5    1    3    3    0  503  0.12423886010E+02 -0.74702998135E+02  0.24496644755E+03  0.25644793097E+03  0.47000000000E+01 0.  1.
<mgrwt>
<rscale>  0 0.14054820E+03</rscale>
<asrwt>0</asrwt>
<pdfrwt beam="1">  1        2 0.12465759E+00 0.15211190E+03</pdfrwt>
<pdfrwt beam="2">  1       -2 0.34270360E-02 0.15211190E+03</pdfrwt>
<totfact> 0.11679439E+04</totfact>
</mgrwt>
</event>
<event>
 8    1  0.6396648E-004  0.9239713E+02  0.7546771E-02  0.1297488E+00
          1   -1    0    0  501    0  0.00000000000E+00  0.00000000000E+00  0.24213829318E+02  0.24213829318E+02  0.00000000000E+00 0. -1.
         -1   -1    0    0    0  501 -0.00000000000E+00 -0.00000000000E+00 -0.38692543173E+03  0.38692543173E+03  0.00000000000E+00 0.  1.
         23    2    1    2    0    0  0.64983083491E+01  0.97782506382E+01 -0.11765467356E+03  0.14924209066E+03  0.91064467369E+02 0.  0.
         23    2    1    2    0    0 -0.64983083491E+01 -0.97782506382E+01 -0.24505692885E+03  0.26189717039E+03  0.91648171190E+02 0.  0.
          5    1    3    3  502    0  0.53342931046E+01  0.46319477483E+02 -0.34215337212E+02  0.58023512284E+02  0.47000000000E+01 0. -1.
         -5    1    3    3    0  502  0.11640152445E+01 -0.36541226845E+02 -0.83439336351E+02  0.91218578379E+02  0.47000000000E+01 0.  1.
          5    1    4    4  503    0  0.37783508760E+02 -0.17111837344E+02 -0.73738368822E+02  0.84733969269E+02  0.47000000000E+01 0. -1.
         -5    1    4    4    0  503 -0.44281817109E+02  0.73335867058E+01 -0.17131856003E+03  0.17716320112E+03  0.47000000000E+01 0.  1.
<mgrwt>
<rscale>  0 0.92252052E+02</rscale>
<asrwt>0</asrwt>
<pdfrwt beam="1">  1        1 0.37252045E-02 0.92397129E+02</pdfrwt>
<pdfrwt beam="2">  1       -1 0.59526989E-01 0.92397129E+02</pdfrwt>
<totfact> 0.68062021E+03</totfact>
</mgrwt>
</event>
<event>
 8    1  0.6396648E-004  0.1051541E+03  0.7546771E-02  0.1271707E+00
         -2   -1    0    0    0  501 -0.00000000000E+00  0.00000000000E+00  0.49604860517E+02  0.49604860517E+02  0.00000000000E+00 0.  1.
          2   -1    0    0  501    0  0.00000000000E+00 -0.00000000000E+00 -0.24432973149E+03  0.24432973149E+03  0.00000000000E+00 0. -1.
         23    2    1    2    0    0 -0.37086363782E+02 -0.25330591609E+02 -0.44876777942E+02  0.11087222755E+03  0.90893830333E+02 0.  0.
         23    2    1    2    0    0  0.37086363782E+02  0.25330591609E+02 -0.14984809303E+03  0.18306236446E+03  0.95080708071E+02 0.  0.
          5    1    3    3  502    0 -0.13405185669E+01 -0.48406147185E+02 -0.47488583068E+02  0.67986819289E+02  0.47000000000E+01 0. -1.
         -5    1    3    3    0  502 -0.35745845215E+02  0.23075555576E+02  0.26118051259E+01  0.42885408256E+02  0.47000000000E+01 0.  1.
          5    1    4    4  503    0  0.33191297182E+02 -0.32114174317E+02 -0.79202091812E+02  0.91804377609E+02  0.47000000000E+01 0. -1.
         -5    1    4    4    0  503  0.38950665995E+01  0.57444765926E+02 -0.70646001219E+02  0.91257986852E+02  0.47000000000E+01 0.  1.
<mgrwt>
<rscale>  0 0.10419862E+03</rscale>
<asrwt>0</asrwt>
<pdfrwt beam="1">  1        2 0.37589191E-01 0.10515407E+03</pdfrwt>
<pdfrwt beam="2">  1       -2 0.76315168E-02 0.10515407E+03</pdfrwt>
<totfact> 0.12800936E+04</totfact>
</mgrwt>
</event>
<event>
 8    1  0.6396648E-004  0.9804370E+02  0.7546771E-02  0.1285544E+00
          2   -1    0    0  501    0  0.00000000000E+00  0.00000000000E+00  0.80417353939E+02  0.80417353939E+02  0.00000000000E+00 0. -1.
         -2   -1    0    0    0  501 -0.00000000000E+00 -0.00000000000E+00 -0.18422183745E+03  0.18422183745E+03  0.00000000000E+00 0.  1.
         23    2    1    2    0    0 -0.33144104821E+02 -0.63641235281E+01 -0.13208603240E+03  0.16449707558E+03  0.92051801532E+02 0.  0.
         23    2    1    2    0    0  0.33144104821E+02  0.63641235281E+01  0.28281548884E+02  0.10014211582E+03  0.89942001316E+02 0.  0.
          5    1    4    4  502    0  0.60962455088E+02  0.12254832914E+02  0.40544519788E+01  0.62491042885E+02  0.47000000000E+01 0. -1.
         -5    1    4    4    0  502 -0.27818350266E+02 -0.58907093860E+01  0.24227096905E+02  0.37651072933E+02  0.47000000000E+01 0.  1.
          5    1    3    3  503    0  0.50582336770E+01 -0.41029288173E+02 -0.34639231961E+02  0.54138291502E+02  0.47000000000E+01 0. -1.
         -5    1    3    3    0  503 -0.38202338498E+02  0.34665164645E+02 -0.97446800438E+02  0.11035878407E+03  0.47000000000E+01 0.  1.
<mgrwt>
<rscale>  0 0.97545389E+02</rscale>
<asrwt>0</asrwt>
<pdfrwt beam="1">  1        2 0.12371901E-01 0.98043704E+02</pdfrwt>
<pdfrwt beam="2">  1       -2 0.28341821E-01 0.98043704E+02</pdfrwt>
<totfact> 0.51822888E+03</totfact>
</mgrwt>
</event>
<event>
 8    1  0.6396648E-004  0.9274923E+02  0.7546771E-02  0.1311855E+00
         -2   -1    0    0    0  501 -0.00000000000E+00  0.00000000000E+00  0.59598984345E+03  0.59598984345E+03  0.00000000000E+00 0.  1.
          2   -1    0    0  501    0  0.00000000000E+00 -0.00000000000E+00 -0.11273414908E+02  0.11273414908E+02  0.00000000000E+00 0. -1.
         23    2    1    2    0    0 -0.16573286496E+02  0.63349437097E+01  0.29375625175E+03  0.30805057196E+03  0.91036334014E+02 0.  0.
         23    2    1    2    0    0  0.16573286496E+02 -0.63349437097E+01  0.29096017680E+03  0.29921268639E+03  0.67495198943E+02 0.  0.
          5    1    4    4  502    0  0.11233341683E+02  0.27730095275E+02  0.19057922000E+03  0.19297065903E+03  0.47000000000E+01 0. -1.
         -5    1    3    3    0  503  0.72449796730E+01 -0.26245274605E+02  0.28477322800E+02  0.39678105844E+02  0.47000000000E+01 0. -1.
          5    1    3    3  503    0 -0.23818266169E+02  0.32580218314E+02  0.26527892895E+03  0.26837246612E+03  0.47000000000E+01 0.  1.
         -5    1    4    4    0  502  0.53399448132E+01 -0.34065038985E+02  0.10038095679E+03  0.10624202736E+03  0.47000000000E+01 0.  1.
<mgrwt>
<rscale>  0 0.86383021E+02</rscale>
<asrwt>0</asrwt>
<pdfrwt beam="1">  1        2 0.17343720E-02 0.92749229E+02</pdfrwt>
<pdfrwt beam="2">  1       -2 0.91690721E-01 0.92749229E+02</pdfrwt>
<totfact> 0.63248931E+03</totfact>
</mgrwt>
</event>
<event>
 8    1  0.6396648E-004  0.1152209E+03  0.7546771E-02  0.1251449E+00
          1   -1    0    0  501    0  0.00000000000E+00  0.00000000000E+00  0.39128807576E+02  0.39128807576E+02  0.00000000000E+00 0. -1.
         -1   -1    0    0    0  501 -0.00000000000E+00 -0.00000000000E+00 -0.61086616425E+03  0.61086616425E+03  0.00000000000E+00 0.  1.
         23    2    1    2    0    0  0.19537976137E+01  0.70326286133E+02 -0.50364541165E+03  0.51665708991E+03  0.91248254910E+02 0.  0.
         23    2    1    2    0    0 -0.19537976137E+01 -0.70326286133E+02 -0.68091945018E+02  0.13333788192E+03  0.90514495699E+02 0.  0.
          5    1    4    4  502    0  0.36001884356E+02 -0.63567646593E+02 -0.30560565073E+02  0.79328554179E+02  0.47000000000E+01 0. -1.
         -5    1    3    3    0  503  0.42903983526E+02  0.39838083441E+02 -0.34408432255E+03  0.34906150707E+03  0.47000000000E+01 0.  1.
          5    1    3    3  503    0 -0.40950185912E+02  0.30488202692E+02 -0.15956108911E+03  0.16759558284E+03  0.47000000000E+01 0. -1.
         -5    1    4    4    0  502 -0.37955681969E+02 -0.67586395397E+01 -0.37531379946E+02  0.54009327739E+02  0.47000000000E+01 0.  1.
<mgrwt>
<rscale>  0 0.11507554E+03</rscale>
<asrwt>0</asrwt>
<pdfrwt beam="1">  1        1 0.60198169E-02 0.11522087E+03</pdfrwt>
<pdfrwt beam="2">  1       -1 0.93979405E-01 0.11522087E+03</pdfrwt>
<totfact> 0.14440574E+03</totfact>
</mgrwt>
</event>
<event>
 8    1  0.6396648E-004  0.9957286E+02  0.7546771E-02  0.1281758E+00
         -3   -1    0    0    0  501 -0.00000000000E+00  0.00000000000E+00  0.36183746246E+03  0.36183746246E+03  0.00000000000E+00 0.  1.
          3   -1    0    0  501    0  0.00000000000E+00 -0.00000000000E+00 -0.33300058094E+02  0.33300058094E+02  0.00000000000E+00 0. -1.
         23    2    1    2    0    0  0.34816911200E+02  0.17291854432E+02  0.79810703578E+02  0.12761074585E+03  0.91670761507E+02 0.  0.
         23    2    1    2    0    0 -0.34816911200E+02 -0.17291854432E+02  0.24872670079E+03  0.26752677470E+03  0.90522803559E+02 0.  0.
          5    1    3    3  502    0 -0.16601651183E+01 -0.23815376341E+02 -0.64959601185E+01  0.25183641443E+02  0.47000000000E+01 0. -1.
         -5    1    4    4    0  503 -0.30393450719E+02  0.24148294284E+02  0.19744202140E+03  0.20127678400E+03  0.47000000000E+01 0.  1.
          5    1    4    4  503    0 -0.44234604812E+01 -0.41440148716E+02  0.51284679384E+02  0.66249990700E+02  0.47000000000E+01 0. -1.
         -5    1    3    3    0  502  0.36477076318E+02  0.41107230772E+02  0.86306663697E+02  0.10242710441E+03  0.47000000000E+01 0.  1.
<mgrwt>
<rscale>  0 0.99307843E+02</rscale>
<asrwt>0</asrwt>
<pdfrwt beam="1">  1        3 0.51230861E-02 0.99572858E+02</pdfrwt>
<pdfrwt beam="2">  1       -3 0.55667299E-01 0.99572858E+02</pdfrwt>
<totfact> 0.15313666E+03</totfact>
</mgrwt>
</event>
<event>
 8    1  0.6396648E-004  0.1119319E+03  0.7546771E-02  0.1260296E+00
          2   -1    0    0  501    0  0.00000000000E+00  0.00000000000E+00  0.42303976752E+02  0.42303976752E+02  0.00000000000E+00 0. -1.
         -2   -1    0    0    0  501 -0.00000000000E+00 -0.00000000000E+00 -0.30030513735E+03  0.30030513735E+03  0.00000000000E+00 0.  1.
         23    2    1    2    0    0  0.11433242653E+00 -0.52863055640E+02 -0.78511485682E+02  0.13107826176E+03  0.90680436698E+02 0.  0.
         23    2    1    2    0    0 -0.11433242653E+00  0.52863055640E+02 -0.17948967491E+03  0.21153085233E+03  0.98662264142E+02 0.  0.
          5    1    4    4  502    0 -0.66907329618E+01 -0.24192050840E+02 -0.14771738168E+02  0.29501109808E+02  0.47000000000E+01 0. -1.
         -5    1    4    4    0  502  0.65764005352E+01  0.77055106480E+02 -0.16471793674E+03  0.18202974252E+03  0.47000000000E+01 0.  1.
          5    1    3    3  503    0 -0.39008162726E+02 -0.49076319744E+02 -0.61652191752E+02  0.88052283711E+02  0.47000000000E+01 0. -1.
         -5    1    3    3    0  503  0.39122495152E+02 -0.37867358964E+01 -0.16859293929E+02  0.43025978054E+02  0.47000000000E+01 0.  1.
<mgrwt>
<rscale>  0 0.11014776E+03</rscale>
<asrwt>0</asrwt>
<pdfrwt beam="1">  1        2 0.65083044E-02 0.11193194E+03</pdfrwt>
<pdfrwt beam="2">  1       -2 0.46200788E-01 0.11193194E+03</pdfrwt>
<totfact> 0.46755222E+03</totfact>
</mgrwt>
</event>
<event>
 8    1  0.6396648E-004  0.9908799E+02  0.7546771E-02  0.1286169E+00
         -1   -1    0    0    0  501 -0.00000000000E+00  0.00000000000E+00  0.17936237231E+02  0.17936237231E+02  0.00000000000E+00 0.  1.
          1   -1    0    0  501    0  0.00000000000E+00 -0.00000000000E+00 -0.86094724144E+03  0.86094724144E+03  0.00000000000E+00 0. -1.
         23    2    1    2    0    0  0.20058140083E+01  0.18062525308E+02 -0.13129160686E+03  0.16029950309E+03  0.90156345020E+02 0.  0.
         23    2    1    2    0    0 -0.20058140083E+01 -0.18062525308E+02 -0.71171939734E+03  0.71858397558E+03  0.97407141915E+02 0.  0.
          5    1    3    3  502    0  0.32757258488E+00 -0.27939727058E+02 -0.10122779995E+03  0.10511847190E+03  0.47000000000E+01 0. -1.
         -5    1    4    4    0  503  0.41891573063E+02  0.14117455552E+02 -0.32069556025E+03  0.32376216395E+03  0.47000000000E+01 0.  1.
          5    1    4    4  503    0 -0.43897387072E+02 -0.32179980859E+02 -0.39102383710E+03  0.39482181163E+03  0.47000000000E+01 0. -1.
         -5    1    3    3    0  502  0.16782414234E+01  0.46002252365E+02 -0.30063806915E+02  0.55181031190E+02  0.47000000000E+01 0.  1.
<mgrwt>
<rscale>  0 0.97258389E+02</rscale>
<asrwt>0</asrwt>
<pdfrwt beam="1">  1        1 0.13245341E+00 0.99087988E+02</pdfrwt>
<pdfrwt beam="2">  1       -1 0.27594213E-02 0.99087988E+02</pdfrwt>
<totfact> 0.82906582E+03</totfact>
</mgrwt>
</event>
<event>
 8    1  0.6396648E-004  0.1363590E+03  0.7546771E-02  0.1228670E+00
         -1   -1    0    0    0  501 -0.00000000000E+00  0.00000000000E+00  0.21785285446E+03  0.21785285446E+03  0.00000000000E+00 0.  1.
          1   -1    0    0  501    0  0.00000000000E+00 -0.00000000000E+00 -0.71610955377E+02  0.71610955377E+02  0.00000000000E+00 0. -1.
         23    2    1    2    0    0  0.45714750673E+02  0.40924367204E+02  0.56435138718E+02  0.14757605298E+03  0.12177489179E+03 0.  0.
         23    2    1    2    0    0 -0.45714750673E+02 -0.40924367204E+02  0.89806760363E+02  0.14188775685E+03  0.91116623499E+02 0.  0.
          5    1    4    4  502    0  0.40834509594E+01 -0.42031774471E+02  0.41537921213E+01  0.42692957568E+02  0.47000000000E+01 0. -1.
         -5    1    3    3    0  503  0.32876884221E+02  0.72163984107E+02 -0.25088317034E+01  0.79479018331E+02  0.47000000000E+01 0.  1.
          5    1    3    3  503    0  0.12837866452E+02 -0.31239616903E+02  0.58943970422E+02  0.68097034652E+02  0.47000000000E+01 0. -1.
         -5    1    4    4    0  502 -0.49798201633E+02  0.11074072672E+01  0.85652968241E+02  0.99194799285E+02  0.47000000000E+01 0.  1.
<mgrwt>
<rscale>  0 0.12918502E+03</rscale>
<asrwt>0</asrwt>
<pdfrwt beam="1">  1        1 0.11017070E-01 0.13635896E+03</pdfrwt>
<pdfrwt beam="2">  1       -1 0.33515823E-01 0.13635896E+03</pdfrwt>
<totfact> 0.45404316E+03</totfact>
</mgrwt>
</event>
<event>
 8    1  0.6396648E-004  0.1005885E+03  0.7546771E-02  0.1282649E+00
          3   -1    0    0  501    0  0.00000000000E+00  0.00000000000E+00  0.31050014449E+02  0.31050014449E+02  0.00000000000E+00 0. -1.
         -3   -1    0    0    0  501 -0.00000000000E+00 -0.00000000000E+00 -0.49345344379E+03  0.49345344379E+03  0.00000000000E+00 0.  1.
         23    2    1    2    0    0 -0.69841198784E+01  0.22089086390E+02 -0.39818221389E+03  0.41069102614E+03  0.97884308379E+02 0.  0.
         23    2    1    2    0    0  0.69841198784E+01 -0.22089086390E+02 -0.64221215449E+02  0.11381243210E+03  0.91061515021E+02 0.  0.
          5    1    4    4  502    0  0.17450270892E+02 -0.55439370425E+02 -0.34976212037E+02  0.67996037795E+02  0.47000000000E+01 0. -1.
         -5    1    4    4    0  502 -0.10466151013E+02  0.33350284035E+02 -0.29245003412E+02  0.45816394302E+02  0.47000000000E+01 0.  1.
          5    1    3    3  503    0 -0.23527908961E+02 -0.11843007065E+02 -0.28632251307E+02  0.39188201430E+02  0.47000000000E+01 0. -1.
         -5    1    3    3    0  503  0.16543789083E+02  0.33932093455E+02 -0.36954996258E+03  0.37150282471E+03  0.47000000000E+01 0.  1.
<mgrwt>
<rscale>  0 0.98889359E+02</rscale>
<asrwt>0</asrwt>
<pdfrwt beam="1">  1        3 0.47769256E-02 0.10058849E+03</pdfrwt>
<pdfrwt beam="2">  1       -3 0.75915910E-01 0.10058849E+03</pdfrwt>
<totfact> 0.89945591E+02</totfact>
</mgrwt>
</event>
<event>
 8    1  0.6396648E-004  0.9751606E+02  0.7546771E-02  0.1287430E+00
          3   -1    0    0  501    0  0.00000000000E+00  0.00000000000E+00  0.36235691166E+02  0.36235691166E+02  0.00000000000E+00 0. -1.
         -3   -1    0    0    0  501 -0.00000000000E+00 -0.00000000000E+00 -0.46752796521E+03  0.46752796521E+03  0.00000000000E+00 0.  1.
         23    2    1    2    0    0  0.12576890979E+01  0.34639762965E+02 -0.38398723400E+03  0.39537938807E+03  0.87619459448E+02 0.  0.
         23    2    1    2    0    0 -0.12576890979E+01 -0.34639762965E+02 -0.47305040045E+02  0.10838426831E+03  0.91147615674E+02 0.  0.
          5    1    3    3  502    0 -0.30935391529E+02  0.38749380530E+01 -0.55305053566E+02  0.63661232661E+02  0.47000000000E+01 0. -1.
         -5    1    3    3    0  502  0.32193080627E+02  0.30764824912E+02 -0.32868218043E+03  0.33171815541E+03  0.47000000000E+01 0.  1.
          5    1    4    4  503    0  0.38339923080E+02 -0.40407707187E+02 -0.18597607727E+02  0.58912592160E+02  0.47000000000E+01 0. -1.
         -5    1    4    4    0  503 -0.39597612177E+02  0.57679442223E+01 -0.28707432318E+02  0.49471676149E+02  0.47000000000E+01 0.  1.
<mgrwt>
<rscale>  0 0.96683103E+02</rscale>
<asrwt>0</asrwt>
<pdfrwt beam="1">  1        3 0.55747219E-02 0.97516064E+02</pdfrwt>
<pdfrwt beam="2">  1       -3 0.71927377E-01 0.97516064E+02</pdfrwt>
<totfact> 0.78681115E+02</totfact>
</mgrwt>
</event>
<event>
 8    1  0.6396648E-004  0.1081382E+03  0.7546771E-02  0.1267572E+00
         -4   -1    0    0    0  501 -0.00000000000E+00  0.00000000000E+00  0.31861403805E+02  0.31861403805E+02  0.00000000000E+00 0.  1.
          4   -1    0    0  501    0  0.00000000000E+00 -0.00000000000E+00 -0.36284291975E+03  0.36284291975E+03  0.00000000000E+00 0. -1.
         23    2    1    2    0    0  0.76420013441E+01  0.42586607163E+02 -0.12488614496E+03  0.16519814666E+03  0.99105293312E+02 0.  0.
         23    2    1    2    0    0 -0.76420013441E+01 -0.42586607163E+02 -0.20609537099E+03  0.22950617690E+03  0.91245624539E+02 0.  0.
          5    1    4    4  502    0  0.23519680292E+02 -0.52356420090E+02 -0.76362687042E+02  0.95643714158E+02  0.47000000000E+01 0. -1.
         -5    1    3    3    0  503  0.47944931834E+02  0.17043752593E+02 -0.30975667361E+02  0.59756070483E+02  0.47000000000E+01 0.  1.
          5    1    3    3  503    0 -0.40302930490E+02  0.25542854569E+02 -0.93910477596E+02  0.10544207617E+03  0.47000000000E+01 0. -1.
         -5    1    4    4    0  502 -0.31161681636E+02  0.97698129275E+01 -0.12973268395E+03  0.13386246274E+03  0.47000000000E+01 0.  1.
<mgrwt>
<rscale>  0 0.10630353E+03</rscale>
<asrwt>0</asrwt>
<pdfrwt beam="1">  1        4 0.55821986E-01 0.10813824E+03</pdfrwt>
<pdfrwt beam="2">  1       -4 0.49017546E-02 0.10813824E+03</pdfrwt>
<totfact> 0.11944580E+03</totfact>
</mgrwt>
</event>
<event>
 8    1  0.6396648E-004  0.1111632E+03  0.7546771E-02  0.1267264E+00
          2   -1    0    0  501    0  0.00000000000E+00  0.00000000000E+00  0.54456767408E+03  0.54456767408E+03  0.00000000000E+00 0. -1.
         -2   -1    0    0    0  501 -0.00000000000E+00 -0.00000000000E+00 -0.12805170689E+03  0.12805170689E+03  0.00000000000E+00 0.  1.
         23    2    1    2    0    0  0.24464792770E+02  0.97080979973E+01 -0.98898552888E+02  0.14878906252E+03  0.10800225975E+03 0.  0.
         23    2    1    2    0    0 -0.24464792770E+02 -0.97080979973E+01  0.51541452008E+03  0.52383031845E+03  0.89740190357E+02 0.  0.
          5    1    4    4  502    0 -0.43326691001E+02  0.14355359076E+02  0.43900763138E+03  0.44139899060E+03  0.47000000000E+01 0. -1.
         -5    1    4    4    0  502  0.18861898230E+02 -0.24063457073E+02  0.76406888698E+02  0.82431327853E+02  0.47000000000E+01 0.  1.
          5    1    3    3  503    0 -0.18819056060E+02  0.14443367594E+02  0.13825186934E+02  0.27856660464E+02  0.47000000000E+01 0. -1.
         -5    1    3    3    0  503  0.43283848831E+02 -0.47352695963E+01 -0.11272373982E+03  0.12093240206E+03  0.47000000000E+01 0.  1.
<mgrwt>
<rscale>  0 0.10646270E+03</rscale>
<asrwt>0</asrwt>
<pdfrwt beam="1">  1        2 0.83779641E-01 0.11116322E+03</pdfrwt>
<pdfrwt beam="2">  1       -2 0.19700263E-01 0.11116322E+03</pdfrwt>
<totfact> 0.12054305E+03</totfact>
</mgrwt>
</event>
<event>
 8    1  0.6396648E-004  0.9666322E+02  0.7546771E-02  0.1288135E+00
         -1   -1    0    0    0  501 -0.00000000000E+00  0.00000000000E+00  0.10129970572E+02  0.10129970572E+02  0.00000000000E+00 0.  1.
          1   -1    0    0  501    0  0.00000000000E+00 -0.00000000000E+00 -0.92395490781E+03  0.92395490781E+03  0.00000000000E+00 0. -1.
         23    2    1    2    0    0  0.26368783325E+02 -0.10842951774E+01 -0.51496934263E+03  0.52396297683E+03  0.92990799568E+02 0.  0.
         23    2    1    2    0    0 -0.26368783325E+02  0.10842951774E+01 -0.39885559460E+03  0.41012190155E+03  0.91748026447E+02 0.  0.
          5    1    4    4  502    0 -0.22897620008E+02 -0.43706163965E+02 -0.18318411520E+03  0.18977101947E+03  0.47000000000E+01 0.  1.
         -5    1    4    4    0  502 -0.34711633171E+01  0.44790459143E+02 -0.21567147940E+03  0.22035088208E+03  0.47000000000E+01 0. -1.
          5    1    3    3  503    0  0.16159997705E+02  0.42035979980E+02 -0.35594005755E+03  0.35880856137E+03  0.47000000000E+01 0. -1.
         -5    1    3    3    0  503  0.10208785620E+02 -0.43120275157E+02 -0.15902928508E+03  0.16515441546E+03  0.47000000000E+01 0.  1.
<mgrwt>
<rscale>  0 0.96363082E+02</rscale>
<asrwt>0</asrwt>
<pdfrwt beam="1">  1        1 0.14214695E+00 0.96663216E+02</pdfrwt>
<pdfrwt beam="2">  1       -1 0.15584565E-02 0.96663216E+02</pdfrwt>
<totfact> 0.16784608E+04</totfact>
</mgrwt>
</event>
<event>
 8    1  0.6396648E-004  0.1009033E+03  0.7546771E-02  0.1279160E+00
          2   -1    0    0  501    0  0.00000000000E+00  0.00000000000E+00  0.39039295678E+03  0.39039295678E+03  0.00000000000E+00 0. -1.
         -2   -1    0    0    0  501 -0.00000000000E+00 -0.00000000000E+00 -0.28409048950E+02  0.28409048950E+02  0.00000000000E+00 0.  1.
         23    2    1    2    0    0 -0.98723349485E+01 -0.39542720505E+02  0.24670617428E+03  0.26654346037E+03  0.92305959164E+02 0.  0.
         23    2    1    2    0    0  0.98723349485E+01  0.39542720505E+02  0.11527773355E+03  0.15225854536E+03  0.90733781139E+02 0.  0.
          5    1    4    4  502    0 -0.38131482214E+02  0.11376053178E+02  0.68699092666E+02  0.79530370645E+02  0.47000000000E+01 0. -1.
         -5    1    4    4    0  502  0.48003817163E+02  0.28166667326E+02  0.46578640886E+02  0.72728174714E+02  0.47000000000E+01 0.  1.
          5    1    3    3  503    0 -0.37261746715E+02 -0.54965674994E+02  0.19275001185E+03  0.20392233881E+03  0.47000000000E+01 0. -1.
         -5    1    3    3    0  503  0.27389411767E+02  0.15422954489E+02  0.53956162428E+02  0.62621121565E+02  0.47000000000E+01 0.  1.
<mgrwt>
<rscale>  0 0.10054234E+03</rscale>
<asrwt>0</asrwt>
<pdfrwt beam="1">  1        2 0.60060451E-01 0.10090332E+03</pdfrwt>
<pdfrwt beam="2">  1       -2 0.43706232E-02 0.10090332E+03</pdfrwt>
<totfact> 0.18002250E+04</totfact>
</mgrwt>
</event>
<event>
 8    1  0.6396648E-004  0.1019914E+03  0.7546771E-02  0.1276883E+00
          2   -1    0    0  501    0  0.00000000000E+00  0.00000000000E+00  0.28477736628E+03  0.28477736628E+03  0.00000000000E+00 0.  1.
         -2   -1    0    0    0  501 -0.00000000000E+00 -0.00000000000E+00 -0.57819565111E+02  0.57819565111E+02  0.00000000000E+00 0. -1.
         23    2    1    2    0    0 -0.36924776965E+02 -0.24370347300E+02  0.88090119603E+01  0.10237108405E+03  0.91896067256E+02 0.  0.
         23    2    1    2    0    0  0.36924776965E+02  0.24370347300E+02  0.21814878921E+03  0.24022584734E+03  0.90344952902E+02 0.  0.
          5    1    4    4  502    0  0.10439987963E+02 -0.33967162927E+02  0.90042406309E+02  0.96914841175E+02  0.47000000000E+01 0. -1.
         -5    1    4    4    0  502  0.26484789002E+02  0.58337510228E+02  0.12810638290E+03  0.14331100616E+03  0.47000000000E+01 0.  1.
          5    1    3    3  503    0 -0.10434381445E+02  0.19466060704E+02 -0.30277505087E+02  0.37770638726E+02  0.47000000000E+01 0. -1.
         -5    1    3    3    0  503 -0.26490395520E+02 -0.43836408005E+02  0.39086517048E+02  0.64600445327E+02  0.47000000000E+01 0.  1.
<mgrwt>
<rscale>  0 0.10164074E+03</rscale>
<asrwt>0</asrwt>
<pdfrwt beam="1">  1        2 0.43811902E-01 0.10199137E+03</pdfrwt>
<pdfrwt beam="2">  1       -2 0.88953179E-02 0.10199137E+03</pdfrwt>
<totfact> 0.85856693E+03</totfact>
</mgrwt>
</event>
<event>
 8    1  0.6396648E-004  0.9960392E+02  0.7546771E-02  0.1282192E+00
          1   -1    0    0  501    0  0.00000000000E+00  0.00000000000E+00  0.33236917121E+03  0.33236917121E+03  0.00000000000E+00 0. -1.
         -1   -1    0    0    0  501 -0.00000000000E+00 -0.00000000000E+00 -0.30268807501E+02  0.30268807501E+02  0.00000000000E+00 0.  1.
         23    2    1    2    0    0  0.34911622648E+02  0.34186051317E+00  0.11643645518E+03  0.15194382133E+03  0.91162154878E+02 0.  0.
         23    2    1    2    0    0 -0.34911622648E+02 -0.34186051317E+00  0.18566390854E+03  0.21069415738E+03  0.93284525824E+02 0.  0.
          5    1    4    4  502    0 -0.24313600768E+02 -0.32070859662E+02  0.16751709826E+03  0.17234778626E+03  0.47000000000E+01 0. -1.
         -5    1    3    3    0  503  0.60158218994E+02 -0.20621929782E+02  0.67720984884E+02  0.93018799682E+02  0.47000000000E+01 0.  1.
          5    1    3    3  503    0 -0.25246596346E+02  0.20963790295E+02  0.48715470293E+02  0.58925021650E+02  0.47000000000E+01 0. -1.
         -5    1    4    4    0  502 -0.10598021880E+02  0.31728999149E+02  0.18146810281E+02  0.38346371121E+02  0.47000000000E+01 0.  1.
<mgrwt>
<rscale>  0 0.99103948E+02</rscale>
<asrwt>0</asrwt>
<pdfrwt beam="1">  1        1 0.51133716E-01 0.99603921E+02</pdfrwt>
<pdfrwt beam="2">  1       -1 0.46567398E-02 0.99603921E+02</pdfrwt>
<totfact> 0.13791590E+04</totfact>
</mgrwt>
</event>
<event>
 8    1  0.6396648E-004  0.1137728E+03  0.7546771E-02  0.1255149E+00
         -1   -1    0    0    0  501 -0.00000000000E+00  0.00000000000E+00  0.13221493160E+02  0.13221493160E+02  0.00000000000E+00 0.  1.
          1   -1    0    0  501    0  0.00000000000E+00 -0.00000000000E+00 -0.10404795882E+04  0.10404795882E+04  0.00000000000E+00 0. -1.
         23    2    1    2    0    0  0.39548103776E+02  0.43334568827E+02 -0.67363277679E+03  0.68317300678E+03  0.97479751020E+02 0.  0.
         23    2    1    2    0    0 -0.39548103776E+02 -0.43334568827E+02 -0.35362531828E+03  0.37052807461E+03  0.93798992413E+02 0.  0.
          5    1    3    3  502    0  0.71959772994E+02  0.33942827591E+02 -0.47216362817E+03  0.47884330030E+03  0.47000000000E+01 0. -1.
         -5    1    4    4    0  503 -0.52565031976E+02  0.81771389963E+01 -0.12820442733E+03  0.13888273246E+03  0.47000000000E+01 0.  1.
          5    1    4    4  503    0  0.13016928200E+02 -0.51511707824E+02 -0.22542089095E+03  0.23164534215E+03  0.47000000000E+01 0. -1.
         -5    1    3    3    0  502 -0.32411669218E+02  0.93917412369E+01 -0.20146914861E+03  0.20432970647E+03  0.47000000000E+01 0.  1.
<mgrwt>
<rscale>  0 0.11298017E+03</rscale>
<asrwt>0</asrwt>
<pdfrwt beam="1">  1        1 0.16007382E+00 0.11377275E+03</pdfrwt>
<pdfrwt beam="2">  1       -1 0.20340754E-02 0.11377275E+03</pdfrwt>
<totfact> 0.95391320E+03</totfact>
</mgrwt>
</event>
<event>
 8    1  0.6396648E-004  0.1061087E+03  0.7546771E-02  0.1268784E+00
         -1   -1    0    0    0  501 -0.00000000000E+00  0.00000000000E+00  0.31894592882E+03  0.31894592882E+03  0.00000000000E+00 0.  1.
          1   -1    0    0  501    0  0.00000000000E+00 -0.00000000000E+00 -0.53452352927E+02  0.53452352927E+02  0.00000000000E+00 0. -1.
         23    2    1    2    0    0 -0.45267880563E+02 -0.35752987758E+02  0.24222468355E+03  0.26376814444E+03  0.87025166216E+02 0.  0.
         23    2    1    2    0    0  0.45267880563E+02  0.35752987758E+02  0.23268892344E+02  0.10863013731E+03  0.89059576897E+02 0.  0.
          5    1    4    4  502    0  0.51548858717E+02 -0.72995163161E+01 -0.10543992556E+02  0.53327605914E+02  0.47000000000E+01 0. -1.
         -5    1    4    4    0  502 -0.62809781544E+01  0.43052504074E+02  0.33812884900E+02  0.55302531397E+02  0.47000000000E+01 0.  1.
          5    1    3    3  503    0 -0.26314566055E+02  0.69636503961E+01  0.14397857438E+02  0.31150234546E+02  0.47000000000E+01 0. -1.
         -5    1    3    3    0  503 -0.18953314508E+02 -0.42716638154E+02  0.22782682611E+03  0.23261790989E+03  0.47000000000E+01 0.  1.
<mgrwt>
<rscale>  0 0.10568074E+03</rscale>
<asrwt>0</asrwt>
<pdfrwt beam="1">  1        1 0.82234391E-02 0.10610874E+03</pdfrwt>
<pdfrwt beam="2">  1       -1 0.49068603E-01 0.10610874E+03</pdfrwt>
<totfact> 0.33748264E+03</totfact>
</mgrwt>
</event>
<event>
 8    1  0.6396648E-004  0.1066462E+03  0.7546771E-02  0.1267485E+00
          1   -1    0    0  501    0  0.00000000000E+00  0.00000000000E+00  0.40967445320E+03  0.40967445320E+03  0.00000000000E+00 0. -1.
         -1   -1    0    0    0  501 -0.00000000000E+00 -0.00000000000E+00 -0.29327780406E+02  0.29327780406E+02  0.00000000000E+00 0.  1.
         23    2    1    2    0    0  0.76797652263E+01  0.54941067955E+02  0.24664487466E+03  0.26871380894E+03  0.91081925649E+02 0.  0.
         23    2    1    2    0    0 -0.76797652263E+01 -0.54941067955E+02  0.13370179814E+03  0.17028842466E+03  0.89691008508E+02 0.  0.
          5    1    4    4  502    0 -0.40170896793E+02 -0.57266191685E+02  0.10692556774E+03  0.12786041098E+03  0.47000000000E+01 0. -1.
         -5    1    4    4    0  502  0.32491131567E+02  0.23251237296E+01  0.26776230396E+02  0.42428013683E+02  0.47000000000E+01 0.  1.
          5    1    3    3  503    0 -0.31407186655E+02  0.28936640063E+02  0.19093515729E+03  0.19570913316E+03  0.47000000000E+01 0. -1.
         -5    1    3    3    0  503  0.39086951882E+02  0.26004427893E+02  0.55709717367E+02  0.73004675785E+02  0.47000000000E+01 0.  1.
<mgrwt>
<rscale>  0 0.10634862E+03</rscale>
<asrwt>0</asrwt>
<pdfrwt beam="1">  1        1 0.63026835E-01 0.10664622E+03</pdfrwt>
<pdfrwt beam="2">  1       -1 0.45119665E-02 0.10664622E+03</pdfrwt>
<totfact> 0.11210915E+04</totfact>
</mgrwt>
</event>
<event>
 8    1  0.6396648E-004  0.2360527E+03  0.7546771E-02  0.1122746E+00
         -2   -1    0    0    0  501 -0.00000000000E+00  0.00000000000E+00  0.72381609601E+02  0.72381609601E+02  0.00000000000E+00 0.  1.
          2   -1    0    0  501    0  0.00000000000E+00 -0.00000000000E+00 -0.76471560682E+03  0.76471560682E+03  0.00000000000E+00 0. -1.
         23    2    1    2    0    0  0.44768118403E+02 -0.21129318876E+03 -0.35841808839E+03  0.42916708318E+03  0.95246328876E+02 0.  0.
         23    2    1    2    0    0 -0.44768118403E+02  0.21129318876E+03 -0.33391590883E+03  0.40793013324E+03  0.90874437508E+02 0.  0.
          5    1    3    3  502    0  0.17602560935E+02 -0.19283651608E+03 -0.25288270480E+03  0.31853967489E+03  0.47000000000E+01 0. -1.
         -5    1    4    4    0  503 -0.35538996371E+02  0.12368388007E+03 -0.11789991533E+03  0.17459439420E+03  0.47000000000E+01 0.  1.
          5    1    4    4  503    0 -0.92291220320E+01  0.87609308684E+02 -0.21601599350E+03  0.23333573903E+03  0.47000000000E+01 0. -1.
         -5    1    3    3    0  502  0.27165557469E+02 -0.18456672674E+02 -0.10553538358E+03  0.11062740830E+03  0.47000000000E+01 0.  1.
<mgrwt>
<rscale>  0 0.23561899E+03</rscale>
<asrwt>0</asrwt>
<pdfrwt beam="1">  1        2 0.11764855E+00 0.23605266E+03</pdfrwt>
<pdfrwt beam="2">  1       -2 0.11135633E-01 0.23605266E+03</pdfrwt>
<totfact> 0.20906212E+03</totfact>
</mgrwt>
</event>
<event>
 8    1  0.6396648E-004  0.1055625E+03  0.7546771E-02  0.1270009E+00
          1   -1    0    0  501    0  0.00000000000E+00  0.00000000000E+00  0.65320814484E+02  0.65320814484E+02  0.00000000000E+00 0. -1.
         -1   -1    0    0    0  501 -0.00000000000E+00 -0.00000000000E+00 -0.23629206528E+03  0.23629206528E+03  0.00000000000E+00 0.  1.
         23    2    1    2    0    0  0.47604359092E+02 -0.27921501067E+02 -0.16635255722E+03  0.19594940499E+03  0.87619694107E+02 0.  0.
         23    2    1    2    0    0 -0.47604359092E+02  0.27921501067E+02 -0.46186935778E+01  0.10566347478E+03  0.89986956528E+02 0.  0.
          5    1    3    3  502    0 -0.14047479253E+02  0.16641700300E+02 -0.67782887206E+02  0.71350456622E+02  0.47000000000E+01 0. -1.
         -5    1    4    4    0  503 -0.43128346450E+02  0.58346750177E+02 -0.11995278580E+02  0.73691072946E+02  0.47000000000E+01 0.  1.
          5    1    4    4  503    0 -0.44760126418E+01 -0.30425249109E+02  0.73765850025E+01  0.31972401831E+02  0.47000000000E+01 0. -1.
         -5    1    3    3    0  502  0.61651838345E+02 -0.44563201367E+02 -0.98569670015E+02  0.12459894837E+03  0.47000000000E+01 0.  1.
<mgrwt>
<rscale>  0 0.10505621E+03</rscale>
<asrwt>0</asrwt>
<pdfrwt beam="1">  1        1 0.10049356E-01 0.10556248E+03</pdfrwt>
<pdfrwt beam="2">  1       -1 0.36352626E-01 0.10556248E+03</pdfrwt>
<totfact> 0.43856500E+03</totfact>
</mgrwt>
</event>
<event>
 8    1  0.6396648E-004  0.9252239E+02  0.7546771E-02  0.1298454E+00
         -1   -1    0    0    0  501 -0.00000000000E+00  0.00000000000E+00  0.93754752359E+02  0.93754752359E+02  0.00000000000E+00 0.  1.
          1   -1    0    0  501    0  0.00000000000E+00 -0.00000000000E+00 -0.95264777509E+02  0.95264777509E+02  0.00000000000E+00 0. -1.
         23    2    1    2    0    0 -0.73020571760E+01 -0.11978342129E+02  0.24128216236E+02  0.93010612299E+02  0.88724305928E+02 0.  0.
         23    2    1    2    0    0  0.73020571760E+01  0.11978342129E+02 -0.25638241386E+02  0.96008917569E+02  0.91452676900E+02 0.  0.
          5    1    4    4  502    0 -0.32264965123E+01  0.45165353594E+02  0.92967011168E+01  0.46463298383E+02  0.47000000000E+01 0. -1.
         -5    1    3    3    0  503 -0.29076253430E+02 -0.33745829761E+02  0.38167093610E+02  0.58847485711E+02  0.47000000000E+01 0.  1.
          5    1    3    3  503    0  0.21774196254E+02  0.21767487633E+02 -0.14038877375E+02  0.34163126588E+02  0.47000000000E+01 0. -1.
         -5    1    4    4    0  502  0.10528553688E+02 -0.33187011465E+02 -0.34934942503E+02  0.49545619185E+02  0.47000000000E+01 0.  1.
<mgrwt>
<rscale>  0 0.91840931E+02</rscale>
<asrwt>0</asrwt>
<pdfrwt beam="1">  1        1 0.14656120E-01 0.92522391E+02</pdfrwt>
<pdfrwt beam="2">  1       -1 0.14423808E-01 0.92522391E+02</pdfrwt>
<totfact> 0.11871024E+04</totfact>
</mgrwt>
</event>
<event>
 8    1  0.6396648E-004  0.1114611E+03  0.7546771E-02  0.1258799E+00
         -1   -1    0    0    0  501 -0.00000000000E+00  0.00000000000E+00  0.34450697669E+02  0.34450697669E+02  0.00000000000E+00 0.  1.
          1   -1    0    0  501    0  0.00000000000E+00 -0.00000000000E+00 -0.40788240527E+03  0.40788240527E+03  0.00000000000E+00 0. -1.
         23    2    1    2    0    0 -0.61954193547E+02  0.66247693116E+01 -0.26547022084E+03  0.28715817793E+03  0.90017616809E+02 0.  0.
         23    2    1    2    0    0  0.61954193547E+02 -0.66247693116E+01 -0.10796148677E+03  0.15517492501E+03  0.92419505842E+02 0.  0.
          5    1    3    3  502    0 -0.82568253212E+02 -0.45196973753E+01 -0.22934370845E+03  0.24384128180E+03  0.47000000000E+01 0. -1.
         -5    1    3    3    0  502  0.20614059665E+02  0.11144466687E+02 -0.36126512386E+02  0.43316896135E+02  0.47000000000E+01 0.  1.
          5    1    4    4  503    0  0.27214872752E+01 -0.39416433748E+02 -0.60299332304E+02  0.72243762490E+02  0.47000000000E+01 0. -1.
         -5    1    4    4    0  503  0.59232706272E+02  0.32791664436E+02 -0.47662154463E+02  0.82931162519E+02  0.47000000000E+01 0.  1.
<mgrwt>
<rscale>  0 0.11096192E+03</rscale>
<asrwt>0</asrwt>
<pdfrwt beam="1">  1        1 0.62751138E-01 0.11146109E+03</pdfrwt>
<pdfrwt beam="2">  1       -1 0.53001075E-02 0.11146109E+03</pdfrwt>
<totfact> 0.89287232E+03</totfact>
</mgrwt>
</event>
<event>
 8    1  0.6396648E-004  0.9509482E+02  0.7546771E-02  0.1293747E+00
          1   -1    0    0  501    0  0.00000000000E+00  0.00000000000E+00  0.55010940509E+03  0.55010940509E+03  0.00000000000E+00 0. -1.
         -1   -1    0    0    0  501 -0.00000000000E+00 -0.00000000000E+00 -0.16144629632E+02  0.16144629632E+02  0.00000000000E+00 0.  1.
         23    2    1    2    0    0  0.25751417102E+01 -0.61674613679E+01  0.31144425815E+03  0.32426559391E+03  0.90033218999E+02 0.  0.
         23    2    1    2    0    0 -0.25751417102E+01  0.61674613679E+01  0.22252051730E+03  0.24198844081E+03  0.94859664397E+02 0.  0.
          5    1    3    3  502    0  0.90329513843E+01 -0.29373090869E+02  0.29003975645E+03  0.29170108502E+03  0.47000000000E+01 0. -1.
         -5    1    4    4    0  503 -0.34881011339E+02 -0.27442670088E+02  0.75747151041E+02  0.87917609069E+02  0.47000000000E+01 0.  1.
          5    1    4    4  503    0  0.32305869629E+02  0.33610131456E+02  0.14677336626E+03  0.15407083174E+03  0.47000000000E+01 0. -1.
         -5    1    3    3    0  502 -0.64578096741E+01  0.23205629501E+02  0.21404501699E+02  0.32564508891E+02  0.47000000000E+01 0.  1.
<mgrwt>
<rscale>  0 0.93867807E+02</rscale>
<asrwt>0</asrwt>
<pdfrwt beam="1">  1        1 0.84632202E-01 0.95094820E+02</pdfrwt>
<pdfrwt beam="2">  1       -1 0.24837896E-02 0.95094820E+02</pdfrwt>
<totfact> 0.18077283E+04</totfact>
</mgrwt>
</event>
<event>
 8    1  0.6396648E-004  0.9856769E+02  0.7546771E-02  0.1284090E+00
          2   -1    0    0  501    0  0.00000000000E+00  0.00000000000E+00  0.11279424262E+04  0.11279424262E+04  0.00000000000E+00 0. -1.
         -2   -1    0    0    0  501 -0.00000000000E+00 -0.00000000000E+00 -0.91009557860E+01  0.91009557860E+01  0.00000000000E+00 0.  1.
         23    2    1    2    0    0  0.46748015635E+01  0.37562547274E+02  0.41609582090E+03  0.42761118146E+03  0.91009843488E+02 0.  0.
         23    2    1    2    0    0 -0.46748015635E+01 -0.37562547274E+02  0.70274564954E+03  0.70943220055E+03  0.89497488822E+02 0.  0.
          5    1    4    4  502    0 -0.89821130719E+01  0.27745119889E+02  0.29035770376E+03  0.29185639648E+03  0.47000000000E+01 0. -1.
         -5    1    4    4    0  502  0.43073115085E+01 -0.65307667163E+02  0.41238794578E+03  0.41757580408E+03  0.47000000000E+01 0.  1.
          5    1    3    3  503    0  0.35158070058E+02  0.49165948489E+02  0.19904598676E+03  0.20807396576E+03  0.47000000000E+01 0. -1.
         -5    1    3    3    0  503 -0.30483268495E+02 -0.11603401215E+02  0.21704983414E+03  0.21953721570E+03  0.47000000000E+01 0.  1.
<mgrwt>
<rscale>  0 0.98217165E+02</rscale>
<asrwt>0</asrwt>
<pdfrwt beam="1">  1        2 0.17352949E+00 0.98567694E+02</pdfrwt>
<pdfrwt beam="2">  1       -2 0.14001479E-02 0.98567694E+02</pdfrwt>
<totfact> 0.26618034E+04</totfact>
</mgrwt>
</event>
<event>
 8    1  0.6396648E-004  0.1291212E+03  0.7546771E-02  0.1229740E+00
          1   -1    0    0  501    0  0.00000000000E+00  0.00000000000E+00  0.24218262707E+03  0.24218262707E+03  0.00000000000E+00 0. -1.
         -1   -1    0    0    0  501 -0.00000000000E+00 -0.00000000000E+00 -0.12017713304E+03  0.12017713304E+03  0.00000000000E+00 0.  1.
         23    2    1    2    0    0 -0.80084093098E+02 -0.35752460129E+02 -0.59319693563E+02  0.13975899351E+03  0.91225269800E+02 0.  0.
         23    2    1    2    0    0  0.80084093098E+02  0.35752460129E+02  0.18132518759E+03  0.22260076660E+03  0.94765907710E+02 0.  0.
          5    1    4    4  502    0  0.80056020593E+01  0.49308381266E+02  0.10646126813E+03  0.11769238607E+03  0.47000000000E+01 0. -1.
         -5    1    3    3    0  503 -0.25700467552E+02 -0.54462152901E+02 -0.55333390498E+02  0.81917728454E+02  0.47000000000E+01 0.  1.
          5    1    3    3  503    0 -0.54383625547E+02  0.18709692772E+02 -0.39863030643E+01  0.57841265056E+02  0.47000000000E+01 0. -1.
         -5    1    4    4    0  502  0.72078491039E+02 -0.13555921136E+02  0.74863919457E+02  0.10490838053E+03  0.47000000000E+01 0.  1.
<mgrwt>
<rscale>  0 0.12847237E+03</rscale>
<asrwt>0</asrwt>
<pdfrwt beam="1">  1        1 0.37258866E-01 0.12912117E+03</pdfrwt>
<pdfrwt beam="2">  1       -1 0.18488790E-01 0.12912117E+03</pdfrwt>
<totfact> 0.25560127E+03</totfact>
</mgrwt>
</event>
<event>
 8    1  0.6396648E-004  0.1160167E+03  0.7546771E-02  0.1250724E+00
          1   -1    0    0  501    0  0.00000000000E+00  0.00000000000E+00  0.10994493447E+04  0.10994493447E+04  0.00000000000E+00 0. -1.
         -1   -1    0    0    0  501 -0.00000000000E+00 -0.00000000000E+00 -0.12039505956E+02  0.12039505956E+02  0.00000000000E+00 0.  1.
         23    2    1    2    0    0  0.62795078267E+02  0.29340710073E+01  0.55907064468E+03  0.57056171135E+03  0.95020261427E+02 0.  0.
         23    2    1    2    0    0 -0.62795078267E+02 -0.29340710073E+01  0.52833919405E+03  0.54092713929E+03  0.97509155636E+02 0.  0.
          5    1    4    4  502    0 -0.53756539353E+02 -0.28303744954E+02  0.49036071385E+03  0.49413215559E+03  0.47000000000E+01 0. -1.
         -5    1    3    3    0  503  0.68021257384E+02  0.36889525555E+02  0.33711335697E+03  0.34591217671E+03  0.47000000000E+01 0.  1.
          5    1    3    3  503    0 -0.52261791165E+01 -0.33955454548E+02  0.22195728772E+03  0.22464953464E+03  0.47000000000E+01 0. -1.
         -5    1    4    4    0  502 -0.90385389147E+01  0.25369673946E+02  0.37978480198E+02  0.46794983706E+02  0.47000000000E+01 0.  1.
<mgrwt>
<rscale>  0 0.11549215E+03</rscale>
<asrwt>0</asrwt>
<pdfrwt beam="1">  1        1 0.16914597E+00 0.11601666E+03</pdfrwt>
<pdfrwt beam="2">  1       -1 0.18522326E-02 0.11601666E+03</pdfrwt>
<totfact> 0.99236564E+03</totfact>
</mgrwt>
</event>
<event>
 8    1  0.6396648E-004  0.9384225E+02  0.7546771E-02  0.1294175E+00
         -2   -1    0    0    0  501 -0.00000000000E+00  0.00000000000E+00  0.51354243209E+02  0.51354243209E+02  0.00000000000E+00 0.  1.
          2   -1    0    0  501    0  0.00000000000E+00 -0.00000000000E+00 -0.18791245938E+03  0.18791245938E+03  0.00000000000E+00 0. -1.
         23    2    1    2    0    0  0.20269231828E+02 -0.10903136588E+02 -0.31874736386E+02  0.99107855810E+02  0.90976085414E+02 0.  0.
         23    2    1    2    0    0 -0.20269231828E+02  0.10903136588E+02 -0.10468347979E+03  0.14015884678E+03  0.90311412592E+02 0.  0.
          5    1    3    3  502    0  0.23843612677E+01  0.39490893649E+02 -0.95417036369E+01  0.40967669792E+02  0.47000000000E+01 0. -1.
         -5    1    3    3    0  502  0.17884870560E+02 -0.50394030237E+02 -0.22333032749E+02  0.58140186018E+02  0.47000000000E+01 0.  1.
          5    1    4    4  503    0  0.18483800376E+02  0.34644936911E+02 -0.77465007258E+02  0.86976087975E+02  0.47000000000E+01 0. -1.
         -5    1    4    4    0  503 -0.38753032203E+02 -0.23741800323E+02 -0.27218472532E+02  0.53182758809E+02  0.47000000000E+01 0.  1.
<mgrwt>
<rscale>  0 0.93680778E+02</rscale>
<asrwt>0</asrwt>
<pdfrwt beam="1">  1        2 0.28909609E-01 0.93842252E+02</pdfrwt>
<pdfrwt beam="2">  1       -2 0.79006529E-02 0.93842252E+02</pdfrwt>
<totfact> 0.15883621E+04</totfact>
</mgrwt>
</event>
<event>
 8    1  0.6396648E-004  0.1055541E+03  0.7546771E-02  0.1269366E+00
         -2   -1    0    0    0  501 -0.00000000000E+00  0.00000000000E+00  0.41683246357E+03  0.41683246357E+03  0.00000000000E+00 0.  1.
          2   -1    0    0  501    0  0.00000000000E+00 -0.00000000000E+00 -0.56108684887E+02  0.56108684887E+02  0.00000000000E+00 0. -1.
         23    2    1    2    0    0 -0.57319555943E+00 -0.52073439034E+02  0.90252688495E+01  0.10593920335E+03  0.91813330860E+02 0.  0.
         23    2    1    2    0    0  0.57319555943E+00  0.52073439034E+02  0.35169850983E+03  0.36700194510E+03  0.91030842484E+02 0.  0.
          5    1    3    3  502    0  0.37046478462E+00 -0.74834630885E+02  0.23455735795E+02  0.78566028063E+02  0.47000000000E+01 0. -1.
         -5    1    3    3    0  502 -0.94366034406E+00  0.22761191851E+02 -0.14430466946E+02  0.27373175292E+02  0.47000000000E+01 0.  1.
          5    1    4    4  503    0  0.40980992857E+02  0.57486362316E+01  0.11171458028E+03  0.11922552597E+03  0.47000000000E+01 0. -1.
         -5    1    4    4    0  503 -0.40407797298E+02  0.46324802803E+02  0.23998392955E+03  0.24777641913E+03  0.47000000000E+01 0.  1.
<mgrwt>
<rscale>  0 0.10538367E+03</rscale>
<asrwt>0</asrwt>
<pdfrwt beam="1">  1        2 0.86321056E-02 0.10555406E+03</pdfrwt>
<pdfrwt beam="2">  1       -2 0.64128069E-01 0.10555406E+03</pdfrwt>
<totfact> 0.16934445E+03</totfact>
</mgrwt>
</event>
<event>
 8    1  0.6396648E-004  0.1311292E+03  0.7546771E-02  0.1227900E+00
          1   -1    0    0  501    0  0.00000000000E+00  0.00000000000E+00  0.28847014680E+02  0.28847014680E+02  0.00000000000E+00 0. -1.
         -1   -1    0    0    0  501 -0.00000000000E+00 -0.00000000000E+00 -0.57086053092E+03  0.57086053092E+03  0.00000000000E+00 0.  1.
         23    2    1    2    0    0 -0.84545196644E+02 -0.18453173861E+02 -0.28009506951E+03  0.30927029736E+03  0.98521362992E+02 0.  0.
         23    2    1    2    0    0  0.84545196644E+02  0.18453173861E+02 -0.26191844673E+03  0.29043724824E+03  0.90907164325E+02 0.  0.
          5    1    4    4  502    0 -0.47029450511E+01  0.23750433299E+02 -0.12097032624E+03  0.12345894299E+03  0.47000000000E+01 0. -1.
         -5    1    3    3    0  503 -0.17581740207E+02 -0.23116901259E+02 -0.21019744600E+03  0.21224647233E+03  0.47000000000E+01 0.  1.
          5    1    3    3  503    0 -0.66963456438E+02  0.46637273981E+01 -0.69897623512E+02  0.97023825033E+02  0.47000000000E+01 0. -1.
         -5    1    4    4    0  502  0.89248141695E+02 -0.52972594375E+01 -0.14094812050E+03  0.16697830525E+03  0.47000000000E+01 0.  1.
<mgrwt>
<rscale>  0 0.12970100E+03</rscale>
<asrwt>0</asrwt>
<pdfrwt beam="1">  1        1 0.44380023E-02 0.13112921E+03</pdfrwt>
<pdfrwt beam="2">  1       -1 0.87824696E-01 0.13112921E+03</pdfrwt>
<totfact> 0.25405641E+03</totfact>
</mgrwt>
</event>
<event>
 8    1  0.6396648E-004  0.1109558E+03  0.7546771E-02  0.1259049E+00
          3   -1    0    0  501    0  0.00000000000E+00  0.00000000000E+00  0.14762614544E+03  0.14762614544E+03  0.00000000000E+00 0. -1.
         -3   -1    0    0    0  501 -0.00000000000E+00 -0.00000000000E+00 -0.11163817323E+03  0.11163817323E+03  0.00000000000E+00 0.  1.
         23    2    1    2    0    0 -0.48278003788E+02 -0.39523160558E+02  0.83677735087E+02  0.13897177687E+03  0.91751542478E+02 0.  0.
         23    2    1    2    0    0  0.48278003788E+02  0.39523160558E+02 -0.47689762879E+02  0.12029254179E+03  0.91121546613E+02 0.  0.
          5    1    4    4  502    0  0.57660688010E+02 -0.10256497702E+02 -0.32775992957E+02  0.67277829939E+02  0.47000000000E+01 0. -1.
         -5    1    4    4    0  502 -0.93826842225E+01  0.49779658259E+02 -0.14913769922E+02  0.53014711853E+02  0.47000000000E+01 0.  1.
          5    1    3    3  503    0 -0.15242010507E+02 -0.33882206772E+02  0.95929659037E+02  0.10298015490E+03  0.47000000000E+01 0. -1.
         -5    1    3    3    0  503 -0.33035993280E+02 -0.56409537855E+01 -0.12251923951E+02  0.35991621971E+02  0.47000000000E+01 0.  1.
<mgrwt>
<rscale>  0 0.11082548E+03</rscale>
<asrwt>0</asrwt>
<pdfrwt beam="1">  1        3 0.22711715E-01 0.11095581E+03</pdfrwt>
<pdfrwt beam="2">  1       -3 0.17175104E-01 0.11095581E+03</pdfrwt>
<totfact> 0.11676109E+03</totfact>
</mgrwt>
</event>
<event>
 8    1  0.6396648E-004  0.1194431E+03  0.7546771E-02  0.1246217E+00
          3   -1    0    0  501    0  0.00000000000E+00  0.00000000000E+00  0.61094557959E+02  0.61094557959E+02  0.00000000000E+00 0. -1.
         -3   -1    0    0    0  501 -0.00000000000E+00 -0.00000000000E+00 -0.26157260575E+03  0.26157260575E+03  0.00000000000E+00 0.  1.
         23    2    1    2    0    0  0.35688929380E+02  0.68411273034E+02 -0.36815770953E+02  0.12005424539E+03  0.84284155615E+02 0.  0.
         23    2    1    2    0    0 -0.35688929380E+02 -0.68411273034E+02 -0.16366227684E+03  0.20261291832E+03  0.91174842202E+02 0.  0.
          5    1    3    3  502    0  0.62472068928E+02  0.57279196695E+02 -0.27208266550E+02  0.89140594225E+02  0.47000000000E+01 0. -1.
         -5    1    3    3    0  502 -0.26783139548E+02  0.11132076338E+02 -0.96075044029E+01  0.30913651168E+02  0.47000000000E+01 0.  1.
          5    1    4    4  503    0 -0.44272596761E+01 -0.62971438399E+02 -0.15777418604E+03  0.16999937195E+03  0.47000000000E+01 0. -1.
         -5    1    4    4    0  503 -0.31261669704E+02 -0.54398346350E+01 -0.58880908002E+01  0.32613546370E+02  0.47000000000E+01 0.  1.
<mgrwt>
<rscale>  0 0.11812826E+03</rscale>
<asrwt>0</asrwt>
<pdfrwt beam="1">  1        3 0.93991627E-02 0.11944310E+03</pdfrwt>
<pdfrwt beam="2">  1       -3 0.40241940E-01 0.11944310E+03</pdfrwt>
<totfact> 0.11319805E+03</totfact>
</mgrwt>
</event>
<event>
 8    1  0.6396648E-004  0.9483124E+02  0.7546771E-02  0.1300330E+00
         -1   -1    0    0    0  501 -0.00000000000E+00  0.00000000000E+00  0.51462877619E+03  0.51462877619E+03  0.00000000000E+00 0.  1.
          1   -1    0    0  501    0  0.00000000000E+00 -0.00000000000E+00 -0.15265872191E+02  0.15265872191E+02  0.00000000000E+00 0. -1.
         23    2    1    2    0    0 -0.72175386212E+01 -0.15846297922E+02  0.30763514448E+03  0.32191978331E+03  0.93218918374E+02 0.  0.
         23    2    1    2    0    0  0.72175386212E+01  0.15846297922E+02  0.19172775952E+03  0.20797486508E+03  0.78681717771E+02 0.  0.
          5    1    3    3  502    0  0.31603997749E+02 -0.38169012041E+02  0.15774404935E+03  0.16541149071E+03  0.47000000000E+01 0.  1.
         -5    1    4    4    0  503  0.41449737231E+02  0.19066445482E+02  0.10707266778E+03  0.11648285816E+03  0.47000000000E+01 0.  1.
          5    1    4    4  503    0 -0.34232198609E+02 -0.32201475593E+01  0.84655091742E+02  0.91492006917E+02  0.47000000000E+01 0. -1.
         -5    1    3    3    0  502 -0.38821536370E+02  0.22322714118E+02  0.14989109513E+03  0.15650829260E+03  0.47000000000E+01 0. -1.
<mgrwt>
<rscale>  0 0.91049530E+02</rscale>
<asrwt>0</asrwt>
<pdfrwt beam="1">  1        1 0.23485961E-02 0.94831244E+02</pdfrwt>
<pdfrwt beam="2">  1       -1 0.79173644E-01 0.94831244E+02</pdfrwt>
<totfact> 0.73692870E+03</totfact>
</mgrwt>
</event>
<event>
 8    1  0.6396648E-004  0.1034895E+03  0.7546771E-02  0.1274497E+00
          1   -1    0    0  501    0  0.00000000000E+00  0.00000000000E+00  0.23780697132E+03  0.23780697132E+03  0.00000000000E+00 0. -1.
         -1   -1    0    0    0  501 -0.00000000000E+00 -0.00000000000E+00 -0.44876937411E+02  0.44876937411E+02  0.00000000000E+00 0.  1.
         23    2    1    2    0    0  0.93581269800E+01 -0.41744417392E+02  0.11886117144E+03  0.15760091597E+03  0.94233219802E+02 0.  0.
         23    2    1    2    0    0 -0.93581269800E+01  0.41744417392E+02  0.74068862468E+02  0.12508299276E+03  0.91265479602E+02 0.  0.
          5    1    3    3  502    0 -0.27669969055E+02 -0.17085871119E+02  0.25187640605E+01  0.32954337375E+02  0.47000000000E+01 0. -1.
         -5    1    3    3    0  502  0.37028096035E+02 -0.24658546273E+02  0.11634240738E+03  0.12464657860E+03  0.47000000000E+01 0.  1.
          5    1    4    4  503    0 -0.29901516553E+02  0.22370915095E+02  0.86149115230E+02  0.94012332113E+02  0.47000000000E+01 0. -1.
         -5    1    4    4    0  503  0.20543389573E+02  0.19373502297E+02 -0.12080252762E+02  0.31070660649E+02  0.47000000000E+01 0.  1.
<mgrwt>
<rscale>  0 0.10280908E+03</rscale>
<asrwt>0</asrwt>
<pdfrwt beam="1">  1        1 0.36585687E-01 0.10348947E+03</pdfrwt>
<pdfrwt beam="2">  1       -1 0.69041443E-02 0.10348947E+03</pdfrwt>
<totfact> 0.11669957E+04</totfact>
</mgrwt>
</event>
<event>
 8    1  0.6396648E-004  0.1090951E+03  0.7546771E-02  0.1262792E+00
         -1   -1    0    0    0  501 -0.00000000000E+00  0.00000000000E+00  0.17902271926E+02  0.17902271926E+02  0.00000000000E+00 0.  1.
          1   -1    0    0  501    0  0.00000000000E+00 -0.00000000000E+00 -0.69779100963E+03  0.69779100963E+03  0.00000000000E+00 0. -1.
         23    2    1    2    0    0 -0.25927144297E+02 -0.53634742203E+02 -0.25267916692E+03  0.27477407244E+03  0.90028479432E+02 0.  0.
         23    2    1    2    0    0  0.25927144297E+02  0.53634742203E+02 -0.42720957078E+03  0.44091920911E+03  0.91393813864E+02 0.  0.
          5    1    3    3  502    0  0.90732693233E+01 -0.47812914975E+02 -0.22294461890E+03  0.22824283593E+03  0.47000000000E+01 0. -1.
         -5    1    3    3    0  502 -0.35000413620E+02 -0.58218272277E+01 -0.29734548018E+02  0.46531236516E+02  0.47000000000E+01 0.  1.
          5    1    4    4  503    0  0.52601206590E+02  0.41150918773E+02 -0.37378893007E+03  0.37973746101E+03  0.47000000000E+01 0. -1.
         -5    1    4    4    0  503 -0.26674062293E+02  0.12483823430E+02 -0.53420640707E+02  0.61181748097E+02  0.47000000000E+01 0.  1.
<mgrwt>
<rscale>  0 0.10880862E+03</rscale>
<asrwt>0</asrwt>
<pdfrwt beam="1">  1        1 0.10735247E+00 0.10909506E+03</pdfrwt>
<pdfrwt beam="2">  1       -1 0.27541955E-02 0.10909506E+03</pdfrwt>
<totfact> 0.11404519E+04</totfact>
</mgrwt>
</event>
<event>
 8    1  0.6396648E-004  0.1035484E+03  0.7546771E-02  0.1273366E+00
          2   -1    0    0  501    0  0.00000000000E+00  0.00000000000E+00  0.30895546885E+03  0.30895546885E+03  0.00000000000E+00 0. -1.
         -2   -1    0    0    0  501 -0.00000000000E+00 -0.00000000000E+00 -0.35380545101E+02  0.35380545101E+02  0.00000000000E+00 0.  1.
         23    2    1    2    0    0 -0.47479332002E+02 -0.82903094631E+01  0.10957034032E+03  0.15075786101E+03  0.91647460307E+02 0.  0.
         23    2    1    2    0    0  0.47479332002E+02  0.82903094631E+01  0.16400458343E+03  0.19357815294E+03  0.90840418926E+02 0.  0.
          5    1    3    3  502    0 -0.36617633524E+02 -0.39986467713E+02  0.10270713094E+03  0.11623516435E+03  0.47000000000E+01 0. -1.
         -5    1    4    4    0  503 -0.10711597365E+02  0.32501984066E+02  0.31397686171E+02  0.46679995536E+02  0.47000000000E+01 0.  1.
          5    1    4    4  503    0  0.58190929368E+02 -0.24211674603E+02  0.13260689726E+03  0.14689815740E+03  0.47000000000E+01 0. -1.
         -5    1    3    3    0  502 -0.10861698478E+02  0.31696158250E+02  0.68632093727E+01  0.34522696658E+02  0.47000000000E+01 0.  1.
<mgrwt>
<rscale>  0 0.10336955E+03</rscale>
<asrwt>0</asrwt>
<pdfrwt beam="1">  1        2 0.47531609E-01 0.10354841E+03</pdfrwt>
<pdfrwt beam="2">  1       -2 0.54431610E-02 0.10354841E+03</pdfrwt>
<totfact> 0.16648882E+04</totfact>
</mgrwt>
</event>
<event>
 8    1  0.6396648E-004  0.9512903E+02  0.7546771E-02  0.1291202E+00
         -2   -1    0    0    0  501 -0.00000000000E+00  0.00000000000E+00  0.15154244412E+02  0.15154244412E+02  0.00000000000E+00 0.  1.
          2   -1    0    0  501    0  0.00000000000E+00 -0.00000000000E+00 -0.79746109063E+03  0.79746109063E+03  0.00000000000E+00 0. -1.
         23    2    1    2    0    0 -0.23111925436E+02 -0.10231880749E+02 -0.59569961541E+03  0.60315939470E+03  0.91128322298E+02 0.  0.
         23    2    1    2    0    0  0.23111925436E+02  0.10231880749E+02 -0.18660723080E+03  0.20945594034E+03  0.91709758895E+02 0.  0.
          5    1    4    4  502    0 -0.71385408597E+01  0.38628236266E+02 -0.14579645032E+03  0.15106883971E+03  0.47000000000E+01 0. -1.
         -5    1    4    4    0  502  0.30250466296E+02 -0.28396355516E+02 -0.40810780476E+02  0.58387100637E+02  0.47000000000E+01 0.  1.
          5    1    3    3  503    0 -0.33930186076E+02  0.34308363938E+02 -0.30062096405E+03  0.30450513196E+03  0.47000000000E+01 0. -1.
         -5    1    3    3    0  503  0.10818260640E+02 -0.44540244687E+02 -0.29507865136E+03  0.29865426273E+03  0.47000000000E+01 0.  1.
<mgrwt>
<rscale>  0 0.94988617E+02</rscale>
<asrwt>0</asrwt>
<pdfrwt beam="1">  1        2 0.12268632E+00 0.95129030E+02</pdfrwt>
<pdfrwt beam="2">  1       -2 0.23314223E-02 0.95129030E+02</pdfrwt>
<totfact> 0.20200751E+04</totfact>
</mgrwt>
</event>
<event>
 8    1  0.6396648E-004  0.1010435E+03  0.7546771E-02  0.1280263E+00
          1   -1    0    0  501    0  0.00000000000E+00  0.00000000000E+00  0.59513364838E+03  0.59513364838E+03  0.00000000000E+00 0. -1.
         -1   -1    0    0    0  501 -0.00000000000E+00 -0.00000000000E+00 -0.17268490298E+02  0.17268490298E+02  0.00000000000E+00 0.  1.
         23    2    1    2    0    0 -0.29283537369E+02 -0.13626534206E+02  0.36019449166E+03  0.37409874205E+03  0.95742305071E+02 0.  0.
         23    2    1    2    0    0  0.29283537369E+02  0.13626534206E+02  0.21767066642E+03  0.23830339664E+03  0.91459181235E+02 0.  0.
          5    1    3    3  502    0  0.51175492356E+00 -0.50621742350E+02  0.14443384853E+03  0.15312102825E+03  0.47000000000E+01 0. -1.
         -5    1    3    3    0  502 -0.29795292292E+02  0.36995208144E+02  0.21576064314E+03  0.22097771380E+03  0.47000000000E+01 0.  1.
          5    1    4    4  503    0  0.41301856489E+02 -0.30443446432E+01  0.21256402382E+03  0.21661178548E+03  0.47000000000E+01 0. -1.
         -5    1    4    4    0  503 -0.12018319120E+02  0.16670878849E+02  0.51066426005E+01  0.21691611160E+02  0.47000000000E+01 0.  1.
<mgrwt>
<rscale>  0 0.10001578E+03</rscale>
<asrwt>0</asrwt>
<pdfrwt beam="1">  1        1 0.91559007E-01 0.10104354E+03</pdfrwt>
<pdfrwt beam="2">  1       -1 0.26566913E-02 0.10104354E+03</pdfrwt>
<totfact> 0.14864314E+04</totfact>
</mgrwt>
</event>
<event>
 8    1  0.6396648E-004  0.9803986E+02  0.7546771E-02  0.1285893E+00
          1   -1    0    0  501    0  0.00000000000E+00  0.00000000000E+00  0.55168146993E+03  0.55168146993E+03  0.00000000000E+00 0. -1.
         -1   -1    0    0    0  501 -0.00000000000E+00 -0.00000000000E+00 -0.19042090698E+02  0.19042090698E+02  0.00000000000E+00 0.  1.
         23    2    1    2    0    0 -0.63266272845E+01  0.32031069499E+02  0.17525765338E+03  0.20081598109E+03  0.92443483092E+02 0.  0.
         23    2    1    2    0    0  0.63266272845E+01 -0.32031069499E+02  0.35738172585E+03  0.36990757954E+03  0.89687813008E+02 0.  0.
          5    1    3    3  502    0 -0.33910060695E+02  0.20829222535E+02  0.16370415012E+03  0.16853749581E+03  0.47000000000E+01 0. -1.
         -5    1    3    3    0  502  0.27583433411E+02  0.11201846964E+02  0.11553503258E+02  0.32278485275E+02  0.47000000000E+01 0.  1.
          5    1    4    4  503    0 -0.11982971683E+02  0.19281079704E+02  0.29610589921E+02  0.37606231936E+02  0.47000000000E+01 0. -1.
         -5    1    4    4    0  503  0.18309598968E+02 -0.51312149203E+02  0.32777113593E+03  0.33230134760E+03  0.47000000000E+01 0.  1.
<mgrwt>
<rscale>  0 0.97384830E+02</rscale>
<asrwt>0</asrwt>
<pdfrwt beam="1">  1        1 0.84874060E-01 0.98039855E+02</pdfrwt>
<pdfrwt beam="2">  1       -1 0.29295528E-02 0.98039855E+02</pdfrwt>
<totfact> 0.14241717E+04</totfact>
</mgrwt>
</event>
<event>
 8    1  0.6396648E-004  0.9471435E+02  0.7546771E-02  0.1294360E+00
          2   -1    0    0  501    0  0.00000000000E+00  0.00000000000E+00  0.76085403865E+03  0.76085403865E+03  0.00000000000E+00 0. -1.
         -2   -1    0    0    0  501 -0.00000000000E+00 -0.00000000000E+00 -0.12978505899E+02  0.12978505899E+02  0.00000000000E+00 0.  1.
         23    2    1    2    0    0 -0.10747212775E+02 -0.46348468217E+01  0.24050926976E+03  0.25848697514E+03  0.93988419982E+02 0.  0.
         23    2    1    2    0    0  0.10747212775E+02  0.46348468217E+01  0.50736626300E+03  0.51534556941E+03  0.89574252418E+02 0.  0.
          5    1    3    3  502    0  0.35584938454E+02  0.18966064531E+02  0.13143040069E+03  0.13755740501E+03  0.47000000000E+01 0. -1.
         -5    1    4    4    0  503 -0.35661911007E+02  0.19993620528E+02  0.24161998416E+03  0.24509961955E+03  0.47000000000E+01 0.  1.
          5    1    4    4  503    0  0.46409123782E+02 -0.15358773707E+02  0.26574627884E+03  0.27024594986E+03  0.47000000000E+01 0. -1.
         -5    1    3    3    0  502 -0.46332151228E+02 -0.23600911353E+02  0.10907886907E+03  0.12092957013E+03  0.47000000000E+01 0.  1.
<mgrwt>
<rscale>  0 0.93600168E+02</rscale>
<asrwt>0</asrwt>
<pdfrwt beam="1">  1        2 0.11705443E+00 0.94714347E+02</pdfrwt>
<pdfrwt beam="2">  1       -2 0.19966938E-02 0.94714347E+02</pdfrwt>
<totfact> 0.26725294E+04</totfact>
</mgrwt>
</event>
<event>
 8    1  0.6396648E-004  0.1024404E+03  0.7546771E-02  0.1277032E+00
          1   -1    0    0  501    0  0.00000000000E+00  0.00000000000E+00  0.20024714891E+03  0.20024714891E+03  0.00000000000E+00 0. -1.
         -1   -1    0    0    0  501 -0.00000000000E+00 -0.00000000000E+00 -0.52270320446E+02  0.52270320446E+02  0.00000000000E+00 0.  1.
         23    2    1    2    0    0 -0.47130662834E+02 -0.10541291158E+02  0.50590771071E+02  0.11117361976E+03  0.86416025213E+02 0.  0.
         23    2    1    2    0    0  0.47130662834E+02  0.10541291158E+02  0.97386057388E+02  0.14134384960E+03  0.90341692736E+02 0.  0.
          5    1    3    3  502    0 -0.46999593742E+02  0.12494840093E+02  0.66694639405E+02  0.82676162019E+02  0.47000000000E+01 0. -1.
         -5    1    3    3    0  502 -0.13106909273E+00 -0.23036131251E+02 -0.16103868334E+02  0.28497457737E+02  0.47000000000E+01 0.  1.
          5    1    4    4  503    0  0.71457087751E+02  0.10309480734E+02  0.90028220257E+02  0.11549706155E+03  0.47000000000E+01 0. -1.
         -5    1    4    4    0  503 -0.24326424916E+02  0.23181042398E+00  0.73578371304E+01  0.25846788051E+02  0.47000000000E+01 0.  1.
<mgrwt>
<rscale>  0 0.10156816E+03</rscale>
<asrwt>0</asrwt>
<pdfrwt beam="1">  1        1 0.30807253E-01 0.10244042E+03</pdfrwt>
<pdfrwt beam="2">  1       -1 0.80415879E-02 0.10244042E+03</pdfrwt>
<totfact> 0.11469884E+04</totfact>
</mgrwt>
</event>
<event>
 8    1  0.6396648E-004  0.1007687E+03  0.7546771E-02  0.1279282E+00
          2   -1    0    0  501    0  0.00000000000E+00  0.00000000000E+00  0.24085108928E+03  0.24085108928E+03  0.00000000000E+00 0. -1.
         -2   -1    0    0    0  501 -0.00000000000E+00 -0.00000000000E+00 -0.50356226300E+02  0.50356226300E+02  0.00000000000E+00 0.  1.
         23    2    1    2    0    0  0.35032763928E+02  0.83523992142E+01  0.34385551227E+02  0.10539976134E+03  0.92896105600E+02 0.  0.
         23    2    1    2    0    0 -0.35032763928E+02 -0.83523992142E+01  0.15610931176E+03  0.18580755425E+03  0.94113085578E+02 0.  0.
          5    1    3    3  502    0 -0.50190250376E+01 -0.36392604521E+02  0.21937283615E+01  0.37101411298E+02  0.47000000000E+01 0. -1.
         -5    1    4    4    0  503 -0.13669637155E+02 -0.18217485299E+02 -0.42688531968E+01  0.23644214053E+02  0.47000000000E+01 0.  1.
          5    1    4    4  503    0 -0.21363126773E+02  0.98650860853E+01  0.16037816495E+03  0.16216334019E+03  0.47000000000E+01 0. -1.
         -5    1    3    3    0  502  0.40051788966E+02  0.44745003736E+02  0.32191822865E+02  0.68298350039E+02  0.47000000000E+01 0.  1.
<mgrwt>
<rscale>  0 0.10048357E+03</rscale>
<asrwt>0</asrwt>
<pdfrwt beam="1">  1        2 0.37054013E-01 0.10076870E+03</pdfrwt>
<pdfrwt beam="2">  1       -2 0.77471119E-02 0.10076870E+03</pdfrwt>
<totfact> 0.12652012E+04</totfact>
</mgrwt>
</event>
<event>
 8    1  0.6396648E-004  0.1538670E+03  0.7546771E-02  0.1195841E+00
          1   -1    0    0  501    0  0.00000000000E+00  0.00000000000E+00  0.55755951976E+03  0.55755951976E+03  0.00000000000E+00 0. -1.
         -1   -1    0    0    0  501 -0.00000000000E+00 -0.00000000000E+00 -0.42428722185E+02  0.42428722185E+02  0.00000000000E+00 0.  1.
         23    2    1    2    0    0 -0.83119959755E+02  0.90804688968E+02  0.26070512397E+03  0.30265428343E+03  0.92076242115E+02 0.  0.
         23    2    1    2    0    0  0.83119959755E+02 -0.90804688968E+02  0.25442567360E+03  0.29733395852E+03  0.92307314191E+02 0.  0.
          5    1    4    4  502    0  0.43657107345E+02 -0.87750433177E+02  0.23129898927E+03  0.25125165468E+03  0.47000000000E+01 0. -1.
         -5    1    4    4    0  502  0.39462852409E+02 -0.30542557907E+01  0.23126684336E+02  0.46082303839E+02  0.47000000000E+01 0.  1.
          5    1    3    3  503    0  0.10499879494E+02  0.36417269603E+02  0.11423816277E+03  0.12045294861E+03  0.47000000000E+01 0. -1.
         -5    1    3    3    0  503 -0.93619839249E+02  0.54387419365E+02  0.14646696120E+03  0.18220133482E+03  0.47000000000E+01 0.  1.
<mgrwt>
<rscale>  0 0.15383238E+03</rscale>
<asrwt>0</asrwt>
<pdfrwt beam="1">  1        1 0.85778382E-01 0.15386702E+03</pdfrwt>
<pdfrwt beam="2">  1       -1 0.65274961E-02 0.15386702E+03</pdfrwt>
<totfact> 0.44568997E+03</totfact>
</mgrwt>
</event>
<event>
 8    1  0.6396648E-004  0.1135433E+03  0.7546771E-02  0.1260774E+00
          1   -1    0    0  501    0  0.00000000000E+00  0.00000000000E+00  0.69810025269E+03  0.69810025269E+03  0.00000000000E+00 0. -1.
         -1   -1    0    0    0  501 -0.00000000000E+00 -0.00000000000E+00 -0.16672750808E+02  0.16672750808E+02  0.00000000000E+00 0.  1.
         23    2    1    2    0    0 -0.11332111468E+02 -0.45750952630E+02  0.26372753947E+03  0.28191582931E+03  0.87765330974E+02 0.  0.
         23    2    1    2    0    0  0.11332111468E+02  0.45750952630E+02  0.41769996241E+03  0.43285717419E+03  0.10329815213E+03 0.  0.
          5    1    4    4  502    0 -0.31036935337E+02  0.21214709339E+02  0.33112681752E+03  0.33328728527E+03  0.47000000000E+01 0. -1.
         -5    1    3    3    0  503  0.29889634715E+02 -0.49426612617E+02  0.15084962355E+03  0.16159851244E+03  0.47000000000E+01 0.  1.
          5    1    3    3  503    0 -0.41221746183E+02  0.36756599873E+01  0.11287791593E+03  0.12031731687E+03  0.47000000000E+01 0. -1.
         -5    1    4    4    0  502  0.42369046805E+02  0.24536243291E+02  0.86573144895E+02  0.99569888917E+02  0.47000000000E+01 0.  1.
<mgrwt>
<rscale>  0 0.10989012E+03</rscale>
<asrwt>0</asrwt>
<pdfrwt beam="1">  1        1 0.10740002E+00 0.11354327E+03</pdfrwt>
<pdfrwt beam="2">  1       -1 0.25650391E-02 0.11354327E+03</pdfrwt>
<totfact> 0.12668303E+04</totfact>
</mgrwt>
</event>
<event>
 8    1  0.6396648E-004  0.9704616E+02  0.7546771E-02  0.1287558E+00
          1   -1    0    0  501    0  0.00000000000E+00  0.00000000000E+00  0.44427093040E+02  0.44427093040E+02  0.00000000000E+00 0. -1.
         -1   -1    0    0    0  501 -0.00000000000E+00 -0.00000000000E+00 -0.21069690709E+03  0.21069690709E+03  0.00000000000E+00 0.  1.
         23    2    1    2    0    0 -0.23651783744E+02  0.13269669725E+02 -0.97323323837E+02  0.13744011739E+03  0.93179748312E+02 0.  0.
         23    2    1    2    0    0  0.23651783744E+02 -0.13269669725E+02 -0.68946490209E+02  0.11768388274E+03  0.91435150439E+02 0.  0.
          5    1    3    3  502    0  0.99107460600E+01 -0.35728234614E+02 -0.40512674180E+02  0.55118929646E+02  0.47000000000E+01 0. -1.
         -5    1    4    4    0  503 -0.26205392458E+01  0.34350855013E+02 -0.47874253236E+02  0.59168256599E+02  0.47000000000E+01 0.  1.
          5    1    4    4  503    0  0.26272322990E+02 -0.47620524739E+02 -0.21072236973E+02  0.58515626141E+02  0.47000000000E+01 0. -1.
         -5    1    3    3    0  502 -0.33562529804E+02  0.48997904339E+02 -0.56810649657E+02  0.82321187740E+02  0.47000000000E+01 0.  1.
<mgrwt>
<rscale>  0 0.96624961E+02</rscale>
<asrwt>0</asrwt>
<pdfrwt beam="1">  1        1 0.68349373E-02 0.97046157E+02</pdfrwt>
<pdfrwt beam="2">  1       -1 0.32414909E-01 0.97046157E+02</pdfrwt>
<totfact> 0.88255660E+03</totfact>
</mgrwt>
</event>
<event>
 8    1  0.6396648E-004  0.1318883E+03  0.7546771E-02  0.1225992E+00
          2   -1    0    0  501    0  0.00000000000E+00  0.00000000000E+00  0.20187681206E+03  0.20187681206E+03  0.00000000000E+00 0. -1.
         -2   -1    0    0    0  501 -0.00000000000E+00 -0.00000000000E+00 -0.13306347755E+03  0.13306347755E+03  0.00000000000E+00 0.  1.
         23    2    1    2    0    0  0.91158210640E+02  0.10210486449E+02  0.13653461303E+03  0.18983206872E+03  0.94765185376E+02 0.  0.
         23    2    1    2    0    0 -0.91158210640E+02 -0.10210486449E+02 -0.67721278515E+02  0.14510822089E+03  0.89756062773E+02 0.  0.
          5    1    4    4  502    0 -0.33053844382E+02  0.21378844071E+02  0.11997532877E+02  0.41420313825E+02  0.47000000000E+01 0. -1.
         -5    1    3    3    0  503 -0.58675222077E+01 -0.25424086444E+02  0.15949641736E+02  0.30940152874E+02  0.47000000000E+01 0.  1.
          5    1    3    3  503    0  0.97025732848E+02  0.35634572893E+02  0.12058497129E+03  0.15889191585E+03  0.47000000000E+01 0. -1.
         -5    1    4    4    0  502 -0.58104366258E+02 -0.31589330520E+02 -0.79718811392E+02  0.10368790706E+03  0.47000000000E+01 0.  1.
<mgrwt>
<rscale>  0 0.13099118E+03</rscale>
<asrwt>0</asrwt>
<pdfrwt beam="1">  1        2 0.31057971E-01 0.13188826E+03</pdfrwt>
<pdfrwt beam="2">  1       -2 0.20471304E-01 0.13188826E+03</pdfrwt>
<totfact> 0.32808630E+03</totfact>
</mgrwt>
</event>
<event>
 8    1  0.6396648E-004  0.1850330E+03  0.7546771E-02  0.1163427E+00
         -1   -1    0    0    0  501 -0.00000000000E+00  0.00000000000E+00  0.64284516428E+02  0.64284516428E+02  0.00000000000E+00 0.  1.
          1   -1    0    0  501    0  0.00000000000E+00 -0.00000000000E+00 -0.53239289532E+03  0.53239289532E+03  0.00000000000E+00 0. -1.
         23    2    1    2    0    0 -0.10799153772E+03  0.11783950541E+03 -0.20462264739E+03  0.27471164665E+03  0.89709195340E+02 0.  0.
         23    2    1    2    0    0  0.10799153772E+03 -0.11783950541E+03 -0.26348573151E+03  0.32196576510E+03  0.93214279670E+02 0.  0.
          5    1    3    3  502    0 -0.85890438740E+02  0.28201402657E+02 -0.93050652544E+02  0.12981910691E+03  0.47000000000E+01 0. -1.
         -5    1    3    3    0  502 -0.22101098979E+02  0.89638102751E+02 -0.11157199484E+03  0.14489253974E+03  0.47000000000E+01 0.  1.
          5    1    4    4  503    0  0.68936234813E+02 -0.40284814492E+02 -0.19663460377E+03  0.21227889237E+03  0.47000000000E+01 0. -1.
         -5    1    4    4    0  503  0.39055302906E+02 -0.77554690916E+02 -0.66851127739E+02  0.10968687272E+03  0.47000000000E+01 0.  1.
<mgrwt>
<rscale>  0 0.18459630E+03</rscale>
<asrwt>0</asrwt>
<pdfrwt beam="1">  1        1 0.81906597E-01 0.18503303E+03</pdfrwt>
<pdfrwt beam="2">  1       -1 0.98899259E-02 0.18503303E+03</pdfrwt>
<totfact> 0.25408427E+03</totfact>
</mgrwt>
</event>
<event>
 8    1  0.6396648E-004  0.1156893E+03  0.7546771E-02  0.1253340E+00
         -2   -1    0    0    0  501 -0.00000000000E+00  0.00000000000E+00  0.15332890652E+02  0.15332890652E+02  0.00000000000E+00 0.  1.
          2   -1    0    0  501    0  0.00000000000E+00 -0.00000000000E+00 -0.12433351987E+04  0.12433351987E+04  0.00000000000E+00 0. -1.
         23    2    1    2    0    0  0.57900978840E+02 -0.33627323787E+02 -0.26045764337E+03  0.28499509056E+03  0.94343507421E+02 0.  0.
         23    2    1    2    0    0 -0.57900978840E+02  0.33627323787E+02 -0.96754466463E+03  0.97367299875E+03  0.86099420383E+02 0.  0.
          5    1    3    3  502    0 -0.24501866044E+02 -0.11869376392E+02 -0.93310928785E+02  0.97315173361E+02  0.47000000000E+01 0. -1.
         -5    1    4    4    0  503 -0.42651590493E+02 -0.24036652770E+02 -0.42102137382E+03  0.42388442536E+03  0.47000000000E+01 0.  1.
          5    1    4    4  503    0 -0.15249388348E+02  0.57663976557E+02 -0.54652329081E+03  0.54978857339E+03  0.47000000000E+01 0. -1.
         -5    1    3    3    0  502  0.82402844884E+02 -0.21757947395E+02 -0.16714671459E+03  0.18767991719E+03  0.47000000000E+01 0.  1.
<mgrwt>
<rscale>  0 0.11399794E+03</rscale>
<asrwt>0</asrwt>
<pdfrwt beam="1">  1        2 0.19128239E+00 0.11568932E+03</pdfrwt>
<pdfrwt beam="2">  1       -2 0.23589056E-02 0.11568932E+03</pdfrwt>
<totfact> 0.10978601E+04</totfact>
</mgrwt>
</event>
<event>
 8    1  0.6396648E-004  0.1069170E+03  0.7546771E-02  0.1271490E+00
          1   -1    0    0  501    0  0.00000000000E+00  0.00000000000E+00  0.20332130565E+02  0.20332130565E+02  0.00000000000E+00 0. -1.
         -1   -1    0    0    0  501 -0.00000000000E+00 -0.00000000000E+00 -0.66481120200E+03  0.66481120200E+03  0.00000000000E+00 0.  1.
         23    2    1    2    0    0  0.21646165563E+02  0.16131745621E+02 -0.14516167451E+03  0.17450735468E+03  0.93016747913E+02 0.  0.
         23    2    1    2    0    0 -0.21646165563E+02 -0.16131745621E+02 -0.49931739693E+03  0.51063597788E+03  0.10345264294E+03 0.  0.
          5    1    3    3  502    0 -0.17984511177E+02 -0.10053048753E+02  0.58781667762E+00  0.21141001867E+02  0.47000000000E+01 0. -1.
         -5    1    4    4    0  503  0.11772602015E+02  0.30943068542E+02 -0.71706658279E+02  0.79120177519E+02  0.47000000000E+01 0.  1.
          5    1    4    4  503    0 -0.33418767578E+02 -0.47074814163E+02 -0.42761073865E+03  0.43151580036E+03  0.47000000000E+01 0. -1.
         -5    1    3    3    0  502  0.39630676741E+02  0.26184794374E+02 -0.14574949119E+03  0.15336635282E+03  0.47000000000E+01 0.  1.
<mgrwt>
<rscale>  0 0.10430751E+03</rscale>
<asrwt>0</asrwt>
<pdfrwt beam="1">  1        1 0.31280202E-02 0.10691697E+03</pdfrwt>
<pdfrwt beam="2">  1       -1 0.10227864E+00 0.10691697E+03</pdfrwt>
<totfact> 0.29233380E+03</totfact>
</mgrwt>
</event>
<event>
 8    1  0.6396648E-004  0.1029801E+03  0.7546771E-02  0.1275085E+00
         -3   -1    0    0    0  501 -0.00000000000E+00  0.00000000000E+00  0.84631430651E+02  0.84631430651E+02  0.00000000000E+00 0.  1.
          3   -1    0    0  501    0  0.00000000000E+00 -0.00000000000E+00 -0.31323316959E+03  0.31323316959E+03  0.00000000000E+00 0. -1.
         23    2    1    2    0    0 -0.46007762329E+02  0.17933753247E+02  0.41092620791E+02  0.10917800019E+03  0.88277395422E+02 0.  0.
         23    2    1    2    0    0  0.46007762329E+02 -0.17933753247E+02 -0.26969435973E+03  0.28868660005E+03  0.90369085852E+02 0.  0.
          5    1    3    3  502    0 -0.36326719457E+02 -0.31956683348E+02  0.10692381978E+02  0.49772253209E+02  0.47000000000E+01 0. -1.
         -5    1    4    4    0  503  0.72766605190E+02 -0.69198840103E+01 -0.20389125182E+03  0.21664855456E+03  0.47000000000E+01 0.  1.
          5    1    4    4  503    0 -0.26758842861E+02 -0.11013869237E+02 -0.65803107914E+02  0.72038045490E+02  0.47000000000E+01 0. -1.
         -5    1    3    3    0  502 -0.96810428720E+01  0.49890436595E+02  0.30400238813E+02  0.59405746983E+02  0.47000000000E+01 0.  1.
<mgrwt>
<rscale>  0 0.10251940E+03</rscale>
<asrwt>0</asrwt>
<pdfrwt beam="1">  1        3 0.48189720E-01 0.10298012E+03</pdfrwt>
<pdfrwt beam="2">  1       -3 0.13020220E-01 0.10298012E+03</pdfrwt>
<totfact> 0.45338628E+02</totfact>
</mgrwt>
</event>
<event>
 8    1  0.6396648E-004  0.1856445E+03  0.7546771E-02  0.1163029E+00
          2   -1    0    0  501    0  0.00000000000E+00  0.00000000000E+00  0.25396074468E+04  0.25396074468E+04  0.00000000000E+00 0. -1.
         -2   -1    0    0    0  501 -0.00000000000E+00 -0.00000000000E+00 -0.13496135187E+02  0.13496135187E+02  0.00000000000E+00 0.  1.
         23    2    1    2    0    0 -0.68591238876E+02 -0.14607585837E+03  0.13846081525E+04  0.13969980670E+04  0.91765726794E+02 0.  0.
         23    2    1    2    0    0  0.68591238876E+02  0.14607585837E+03  0.11415031591E+04  0.11561055150E+04  0.86646322533E+02 0.  0.
          5    1    3    3  502    0 -0.40778598500E+02 -0.14253313484E+03  0.12810611327E+04  0.12896194417E+04  0.47000000000E+01 0. -1.
         -5    1    4    4    0  503  0.84475764947E+02  0.11340311232E+03  0.77795577831E+03  0.79071720846E+03  0.47000000000E+01 0.  1.
          5    1    4    4  503    0 -0.15884526070E+02  0.32672746049E+02  0.36354738076E+03  0.36538830654E+03  0.47000000000E+01 0. -1.
         -5    1    3    3    0  502 -0.27812640376E+02 -0.35427235275E+01  0.10354701977E+03  0.10737862524E+03  0.47000000000E+01 0.  1.
<mgrwt>
<rscale>  0 0.18502221E+03</rscale>
<asrwt>0</asrwt>
<pdfrwt beam="1">  1        2 0.39070846E+00 0.18564445E+03</pdfrwt>
<pdfrwt beam="2">  1       -2 0.20763305E-02 0.18564445E+03</pdfrwt>
<totfact> 0.28080003E+03</totfact>
</mgrwt>
</event>
<event>
 8    1  0.6396648E-004  0.9728259E+02  0.7546771E-02  0.1287898E+00
         -1   -1    0    0    0  501 -0.00000000000E+00  0.00000000000E+00  0.78632718593E+02  0.78632718593E+02  0.00000000000E+00 0.  1.
          1   -1    0    0  501    0  0.00000000000E+00 -0.00000000000E+00 -0.59076457366E+03  0.59076457366E+03  0.00000000000E+00 0. -1.
         23    2    1    2    0    0 -0.18502382114E+02 -0.17702323519E+02  0.44683081253E+02  0.10414798882E+03  0.90523562810E+02 0.  0.
         23    2    1    2    0    0  0.18502382114E+02  0.17702323519E+02 -0.55681493632E+03  0.56524930343E+03  0.93851964897E+02 0.  0.
          5    1    3    3  502    0  0.22425804364E+02 -0.17851392486E+02 -0.14162255654E+02  0.32314832512E+02  0.47000000000E+01 0. -1.
         -5    1    3    3    0  502 -0.40928186478E+02  0.14906896702E+00  0.58845336907E+02  0.71833156312E+02  0.47000000000E+01 0.  1.
          5    1    4    4  503    0  0.52683802362E+02  0.71410395094E+00 -0.41327294909E+03  0.41664458886E+03  0.47000000000E+01 0. -1.
         -5    1    4    4    0  503 -0.34181420249E+02  0.16988219568E+02 -0.14354198723E+03  0.14860471457E+03  0.47000000000E+01 0.  1.
<mgrwt>
<rscale>  0 0.96470744E+02</rscale>
<asrwt>0</asrwt>
<pdfrwt beam="1">  1        1 0.90886862E-01 0.97282587E+02</pdfrwt>
<pdfrwt beam="2">  1       -1 0.12097341E-01 0.97282587E+02</pdfrwt>
<totfact> 0.15951983E+03</totfact>
</mgrwt>
</event>
<event>
 8    1  0.6396648E-004  0.1967900E+03  0.7546771E-02  0.1152554E+00
         -2   -1    0    0    0  501 -0.00000000000E+00  0.00000000000E+00  0.19586924699E+02  0.19586924699E+02  0.00000000000E+00 0.  1.
          2   -1    0    0  501    0  0.00000000000E+00 -0.00000000000E+00 -0.19818955868E+04  0.19818955868E+04  0.00000000000E+00 0. -1.
         23    2    1    2    0    0  0.48689247715E+02  0.16756549492E+03 -0.91517622315E+03  0.93601891843E+03  0.90194558069E+02 0.  0.
         23    2    1    2    0    0 -0.48689247715E+02 -0.16756549492E+03 -0.10471324390E+04  0.10654635931E+04  0.90980687671E+02 0.  0.
          5    1    3    3  502    0  0.25336051440E+02  0.31490119310E+01 -0.20675032071E+03  0.20837374329E+03  0.47000000000E+01 0. -1.
         -5    1    3    3    0  502  0.23353196276E+02  0.16441648299E+03 -0.70842590244E+03  0.72764517514E+03  0.47000000000E+01 0.  1.
          5    1    4    4  503    0  0.52443118415E+01 -0.12263048248E+03 -0.75839528863E+03  0.76827810190E+03  0.47000000000E+01 0. -1.
         -5    1    4    4    0  503 -0.53933559557E+02 -0.44935012442E+02 -0.28873715035E+03  0.29718549121E+03  0.47000000000E+01 0.  1.
<mgrwt>
<rscale>  0 0.19669943E+03</rscale>
<asrwt>0</asrwt>
<pdfrwt beam="1">  1        2 0.30490724E+00 0.19679005E+03</pdfrwt>
<pdfrwt beam="2">  1       -2 0.30133708E-02 0.19679005E+03</pdfrwt>
<totfact> 0.31972653E+03</totfact>
</mgrwt>
</event>
<event>
 8    1  0.6396648E-004  0.9314437E+02  0.7546771E-02  0.1296983E+00
          1   -1    0    0  501    0  0.00000000000E+00  0.00000000000E+00  0.24095345263E+03  0.24095345263E+03  0.00000000000E+00 0. -1.
         -1   -1    0    0    0  501 -0.00000000000E+00 -0.00000000000E+00 -0.34991205515E+02  0.34991205515E+02  0.00000000000E+00 0.  1.
         23    2    1    2    0    0 -0.15677313259E+02 -0.77142468972E+00  0.10194718217E+03  0.13809091665E+03  0.91812308875E+02 0.  0.
         23    2    1    2    0    0  0.15677313259E+02  0.77142468972E+00  0.10401506495E+03  0.13785374150E+03  0.89096279732E+02 0.  0.
          5    1    3    3  502    0 -0.49973192427E+02 -0.18247939287E+02  0.68655268012E+02  0.86982429693E+02  0.47000000000E+01 0. -1.
         -5    1    3    3    0  502  0.34295879168E+02  0.17476514597E+02  0.33291914158E+02  0.51108486953E+02  0.47000000000E+01 0.  1.
          5    1    4    4  503    0 -0.25981025390E+02  0.25442915012E+02  0.68254582674E+02  0.77479891976E+02  0.47000000000E+01 0. -1.
         -5    1    4    4    0  503  0.41658338649E+02 -0.24671490322E+02  0.35760482271E+02  0.60373849521E+02  0.47000000000E+01 0.  1.
<mgrwt>
<rscale>  0 0.92468030E+02</rscale>
<asrwt>0</asrwt>
<pdfrwt beam="1">  1        1 0.37069761E-01 0.93144368E+02</pdfrwt>
<pdfrwt beam="2">  1       -1 0.53832625E-02 0.93144368E+02</pdfrwt>
<totfact> 0.16421840E+04</totfact>
</mgrwt>
</event>
<event>
 8    1  0.6396648E-004  0.1056242E+03  0.7546771E-02  0.1269807E+00
         -2   -1    0    0    0  501 -0.00000000000E+00  0.00000000000E+00  0.37570297078E+02  0.37570297078E+02  0.00000000000E+00 0.  1.
          2   -1    0    0  501    0  0.00000000000E+00 -0.00000000000E+00 -0.56844361000E+03  0.56844361000E+03  0.00000000000E+00 0. -1.
         23    2    1    2    0    0 -0.35605029623E+02 -0.36946932135E+02 -0.47802823742E+03  0.48955844434E+03  0.92323782014E+02 0.  0.
         23    2    1    2    0    0  0.35605029623E+02  0.36946932135E+02 -0.52845075496E+02  0.11645546273E+03  0.90202432713E+02 0.  0.
          5    1    3    3  502    0 -0.29888855812E+02 -0.60231815554E+02 -0.43402017090E+03  0.43922296622E+03  0.47000000000E+01 0. -1.
         -5    1    4    4    0  503 -0.83159133655E+01  0.55152400011E+02 -0.27227977092E+02  0.62244633332E+02  0.47000000000E+01 0.  1.
          5    1    4    4  503    0  0.43920942988E+02 -0.18205467877E+02 -0.25617098403E+02  0.54210829400E+02  0.47000000000E+01 0. -1.
         -5    1    3    3    0  502 -0.57161738109E+01  0.23284883419E+02 -0.44008066526E+02  0.50335478126E+02  0.47000000000E+01 0.  1.
<mgrwt>
<rscale>  0 0.10515887E+03</rscale>
<asrwt>0</asrwt>
<pdfrwt beam="1">  1        2 0.87452870E-01 0.10562421E+03</pdfrwt>
<pdfrwt beam="2">  1       -2 0.57800453E-02 0.10562421E+03</pdfrwt>
<totfact> 0.79400741E+03</totfact>
</mgrwt>
</event>
<event>
 8    1  0.6396648E-004  0.1172385E+03  0.7546771E-02  0.1249117E+00
          4   -1    0    0  501    0  0.00000000000E+00  0.00000000000E+00  0.65848545142E+03  0.65848545142E+03  0.00000000000E+00 0. -1.
         -4   -1    0    0    0  501 -0.00000000000E+00 -0.00000000000E+00 -0.20473375241E+02  0.20473375241E+02  0.00000000000E+00 0.  1.
         23    2    1    2    0    0 -0.57847349304E+02  0.45516523790E+02  0.34556697354E+03  0.36388897819E+03  0.87066557817E+02 0.  0.
         23    2    1    2    0    0  0.57847349304E+02 -0.45516523790E+02  0.29244510264E+03  0.31506984846E+03  0.91251310108E+02 0.  0.
          5    1    3    3  502    0 -0.28426735945E+02  0.54914580416E+02  0.31171724085E+03  0.31782608248E+03  0.47000000000E+01 0. -1.
         -5    1    4    4    0  503  0.74481284350E+02 -0.70484621321E+01  0.19344681441E+03  0.20746301488E+03  0.47000000000E+01 0. -1.
          5    1    4    4  503    0 -0.16633935047E+02 -0.38468061658E+02  0.98998288228E+02  0.10760683359E+03  0.47000000000E+01 0.  1.
         -5    1    3    3    0  502 -0.29420613359E+02 -0.93980566253E+01  0.33849732689E+02  0.46062895717E+02  0.47000000000E+01 0.  1.
<mgrwt>
<rscale>  0 0.11642334E+03</rscale>
<asrwt>0</asrwt>
<pdfrwt beam="1">  1        4 0.10130544E+00 0.11723852E+03</pdfrwt>
<pdfrwt beam="2">  1       -4 0.31497505E-02 0.11723852E+03</pdfrwt>
<totfact> 0.66762559E+02</totfact>
</mgrwt>
</event>
<event>
 8    1  0.6396648E-004  0.1092574E+03  0.7546771E-02  0.1263444E+00
          2   -1    0    0  501    0  0.00000000000E+00  0.00000000000E+00  0.21534315207E+03  0.21534315207E+03  0.00000000000E+00 0. -1.
         -2   -1    0    0    0  501 -0.00000000000E+00 -0.00000000000E+00 -0.61554162779E+03  0.61554162779E+03  0.00000000000E+00 0.  1.
         23    2    1    2    0    0 -0.25154627149E+02  0.54533141289E+02 -0.59669451874E+03  0.60605625077E+03  0.87482636189E+02 0.  0.
         23    2    1    2    0    0  0.25154627149E+02 -0.54533141289E+02  0.19649604302E+03  0.22482852910E+03  0.91271867574E+02 0.  0.
          5    1    3    3  502    0 -0.14651655449E+02 -0.14154583300E+02 -0.41084013805E+02  0.46097824527E+02  0.47000000000E+01 0. -1.
         -5    1    3    3    0  502 -0.10502971700E+02  0.68687724589E+02 -0.55561050493E+03  0.55995842624E+03  0.47000000000E+01 0.  1.
          5    1    4    4  503    0  0.52872059401E+02 -0.17803769207E+02  0.14591766608E+03  0.15628974418E+03  0.47000000000E+01 0. -1.
         -5    1    4    4    0  503 -0.27717432252E+02 -0.36729372082E+02  0.50578376940E+02  0.68538784918E+02  0.47000000000E+01 0.  1.
<mgrwt>
<rscale>  0 0.10846248E+03</rscale>
<asrwt>0</asrwt>
<pdfrwt beam="1">  1        2 0.33129715E-01 0.10925737E+03</pdfrwt>
<pdfrwt beam="2">  1       -2 0.94698713E-01 0.10925737E+03</pdfrwt>
<totfact> 0.15564228E+02</totfact>
</mgrwt>
</event>
<event>
 8    1  0.6396648E-004  0.1392485E+03  0.7546771E-02  0.1214975E+00
         -1   -1    0    0    0  501 -0.00000000000E+00  0.00000000000E+00  0.26443295637E+03  0.26443295637E+03  0.00000000000E+00 0.  1.
          1   -1    0    0  501    0  0.00000000000E+00 -0.00000000000E+00 -0.12692250706E+03  0.12692250706E+03  0.00000000000E+00 0. -1.
         23    2    1    2    0    0  0.83016813941E+02  0.62889828986E+02  0.19679342549E+03  0.24001272414E+03  0.89618823076E+02 0.  0.
         23    2    1    2    0    0 -0.83016813941E+02 -0.62889828986E+02 -0.59282976175E+02  0.15134273928E+03  0.92429602851E+02 0.  0.
          5    1    3    3  502    0  0.17255464453E+02 -0.17101847688E+02  0.10622993616E+02  0.26928836610E+02  0.47000000000E+01 0. -1.
         -5    1    4    4    0  503 -0.31243632098E+02  0.22492013686E+02 -0.22433102670E+02  0.44803898511E+02  0.47000000000E+01 0.  1.
          5    1    4    4  503    0 -0.51773181843E+02 -0.85381842672E+02 -0.36849873505E+02  0.10653884077E+03  0.47000000000E+01 0. -1.
         -5    1    3    3    0  502  0.65761349489E+02  0.79991676674E+02  0.18617043187E+03  0.21308388753E+03  0.47000000000E+01 0.  1.
<mgrwt>
<rscale>  0 0.13878380E+03</rscale>
<asrwt>0</asrwt>
<pdfrwt beam="1">  1        1 0.19526540E-01 0.13924853E+03</pdfrwt>
<pdfrwt beam="2">  1       -1 0.40681993E-01 0.13924853E+03</pdfrwt>
<totfact> 0.15472224E+03</totfact>
</mgrwt>
</event>
<event>
 8    1  0.6396648E-004  0.1012037E+03  0.7546771E-02  0.1278215E+00
         -1   -1    0    0    0  501 -0.00000000000E+00  0.00000000000E+00  0.47061916926E+02  0.47061916926E+02  0.00000000000E+00 0.  1.
          1   -1    0    0  501    0  0.00000000000E+00 -0.00000000000E+00 -0.25591198742E+03  0.25591198742E+03  0.00000000000E+00 0. -1.
         23    2    1    2    0    0 -0.36553804432E+02 -0.16081211745E+02 -0.44854387248E+02  0.11069824083E+03  0.92991389266E+02 0.  0.
         23    2    1    2    0    0  0.36553804432E+02  0.16081211745E+02 -0.16399568325E+03  0.19227566352E+03  0.92089959648E+02 0.  0.
          5    1    3    3  502    0  0.14091819898E+02  0.22132560646E+02 -0.38411036859E+02  0.46753902312E+02  0.47000000000E+01 0. -1.
         -5    1    3    3    0  502 -0.50645624330E+02 -0.38213772391E+02 -0.64433503890E+01  0.63944338517E+02  0.47000000000E+01 0.  1.
          5    1    4    4  503    0  0.50479285040E+02  0.37510842566E+02 -0.15009458975E+03  0.16280570445E+03  0.47000000000E+01 0. -1.
         -5    1    4    4    0  503 -0.13925480609E+02 -0.21429630821E+02 -0.13901093499E+02  0.29469959073E+02  0.47000000000E+01 0.  1.
<mgrwt>
<rscale>  0 0.10099613E+03</rscale>
<asrwt>0</asrwt>
<pdfrwt beam="1">  1        1 0.39371075E-01 0.10120368E+03</pdfrwt>
<pdfrwt beam="2">  1       -1 0.72402949E-02 0.10120368E+03</pdfrwt>
<totfact> 0.99179576E+03</totfact>
</mgrwt>
</event>
<event>
 8    1  0.6396648E-004  0.1215815E+03  0.7546771E-02  0.1248135E+00
          2   -1    0    0  501    0  0.00000000000E+00  0.00000000000E+00  0.56071371806E+02  0.56071371806E+02  0.00000000000E+00 0. -1.
         -2   -1    0    0    0  501 -0.00000000000E+00 -0.00000000000E+00 -0.22768204839E+03  0.22768204839E+03  0.00000000000E+00 0.  1.
         23    2    1    2    0    0 -0.46074005748E+02  0.46390608172E+01 -0.84223514075E+02  0.13402510238E+03  0.93406599632E+02 0.  0.
         23    2    1    2    0    0  0.46074005748E+02 -0.46390608172E+01 -0.87387162507E+02  0.14972831781E+03  0.11241760579E+03 0.  0.
          5    1    4    4  502    0  0.43941417216E+02 -0.41988920049E+02 -0.75363544940E+01  0.61423156813E+02  0.47000000000E+01 0. -1.
         -5    1    4    4    0  502  0.21325885319E+01  0.37349859231E+02 -0.79850808013E+02  0.88305160998E+02  0.47000000000E+01 0.  1.
          5    1    3    3  503    0 -0.51363644845E+02 -0.24178138815E+02 -0.87248708486E+02  0.10419804960E+03  0.47000000000E+01 0. -1.
         -5    1    3    3    0  503  0.52896390972E+01  0.28817199632E+02  0.30251944109E+01  0.29827052782E+02  0.47000000000E+01 0.  1.
<mgrwt>
<rscale>  0 0.11699704E+03</rscale>
<asrwt>0</asrwt>
<pdfrwt beam="1">  1        2 0.86263646E-02 0.12158147E+03</pdfrwt>
<pdfrwt beam="2">  1       -2 0.35028009E-01 0.12158147E+03</pdfrwt>
<totfact> 0.55708397E+03</totfact>
</mgrwt>
</event>
<event>
 8    1  0.6396648E-004  0.1079033E+03  0.7546771E-02  0.1264603E+00
          1   -1    0    0  501    0  0.00000000000E+00  0.00000000000E+00  0.56162015270E+02  0.56162015270E+02  0.00000000000E+00 0. -1.
         -1   -1    0    0    0  501 -0.00000000000E+00 -0.00000000000E+00 -0.25935161170E+03  0.25935161170E+03  0.00000000000E+00 0.  1.
         23    2    1    2    0    0  0.42480534188E+02 -0.38956074982E+02 -0.17261513783E+03  0.20356596669E+03  0.91219216310E+02 0.  0.
         23    2    1    2    0    0 -0.42480534188E+02  0.38956074982E+02 -0.30574458606E+02  0.11194766028E+03  0.90968728477E+02 0.  0.
          5    1    4    4  502    0  0.32101678365E+01  0.44602780449E+02  0.14601184520E+02  0.47275763248E+02  0.47000000000E+01 0. -1.
         -5    1    4    4    0  502 -0.45690702025E+02 -0.56467054668E+01 -0.45175643126E+02  0.64671897034E+02  0.47000000000E+01 0.  1.
          5    1    3    3  503    0  0.49930217649E+02  0.14762898782E+02 -0.99661317742E+02  0.11254082845E+03  0.47000000000E+01 0. -1.
         -5    1    3    3    0  503 -0.74496834603E+01 -0.53718973764E+02 -0.72953820086E+02  0.91025138237E+02  0.47000000000E+01 0.  1.
<mgrwt>
<rscale>  0 0.10785032E+03</rscale>
<asrwt>0</asrwt>
<pdfrwt beam="1">  1        1 0.86403100E-02 0.10790328E+03</pdfrwt>
<pdfrwt beam="2">  1       -1 0.39900248E-01 0.10790328E+03</pdfrwt>
<totfact> 0.45659658E+03</totfact>
</mgrwt>
</event>
<event>
 8    1  0.6396648E-004  0.1005977E+03  0.7546771E-02  0.1281424E+00
         -1   -1    0    0    0  501 -0.00000000000E+00  0.00000000000E+00  0.13299838630E+02  0.13299838630E+02  0.00000000000E+00 0.  1.
          1   -1    0    0  501    0  0.00000000000E+00 -0.00000000000E+00 -0.74075407878E+03  0.74075407878E+03  0.00000000000E+00 0. -1.
         23    2    1    2    0    0  0.36296669932E+02 -0.86855906218E+01 -0.30541086531E+03  0.32018698373E+03  0.88605982671E+02 0.  0.
         23    2    1    2    0    0 -0.36296669932E+02  0.86855906218E+01 -0.42204337483E+03  0.43386693368E+03  0.93418510832E+02 0.  0.
          5    1    4    4  502    0 -0.24731940016E+01  0.47879816828E+02 -0.22333005124E+03  0.22846661755E+03  0.47000000000E+01 0. -1.
         -5    1    3    3    0  503  0.16732641540E+02 -0.42643219465E+02 -0.89014040956E+02  0.10021983310E+03  0.47000000000E+01 0.  1.
          5    1    3    3  503    0  0.19564028392E+02  0.33957628844E+02 -0.21639682436E+03  0.21996715063E+03  0.47000000000E+01 0. -1.
         -5    1    4    4    0  502 -0.33823475931E+02 -0.39194226206E+02 -0.19871332359E+03  0.20540031613E+03  0.47000000000E+01 0.  1.
<mgrwt>
<rscale>  0 0.99465651E+02</rscale>
<asrwt>0</asrwt>
<pdfrwt beam="1">  1        1 0.11396218E+00 0.10059774E+03</pdfrwt>
<pdfrwt beam="2">  1       -1 0.20461287E-02 0.10059774E+03</pdfrwt>
<totfact> 0.15950331E+04</totfact>
</mgrwt>
</event>
<event>
 8    1  0.6396648E-004  0.1943750E+03  0.7546771E-02  0.1154631E+00
         -1   -1    0    0    0  501 -0.00000000000E+00  0.00000000000E+00  0.21101682916E+03  0.21101682916E+03  0.00000000000E+00 0.  1.
          1   -1    0    0  501    0  0.00000000000E+00 -0.00000000000E+00 -0.40801227920E+03  0.40801227920E+03  0.00000000000E+00 0. -1.
         23    2    1    2    0    0 -0.15437300835E+03 -0.71515709185E+02  0.13345831240E+03  0.23578117087E+03  0.94000622438E+02 0.  0.
         23    2    1    2    0    0  0.15437300835E+03  0.71515709185E+02 -0.33045376245E+03  0.38324793750E+03  0.93454642007E+02 0.  0.
          5    1    4    4  502    0  0.14008168775E+03  0.25454940586E+02 -0.21358621148E+03  0.25673331100E+03  0.47000000000E+01 0. -1.
         -5    1    3    3    0  503 -0.11310992477E+03 -0.17947747860E+01  0.77434901932E+02  0.13716898460E+03  0.47000000000E+01 0.  1.
          5    1    3    3  503    0 -0.41263083576E+02 -0.69720934399E+02  0.56023410470E+02  0.98612186267E+02  0.47000000000E+01 0. -1.
         -5    1    4    4    0  502  0.14291320600E+02  0.46060768599E+02 -0.11686755096E+03  0.12651462649E+03  0.47000000000E+01 0.  1.
<mgrwt>
<rscale>  0 0.19430910E+03</rscale>
<asrwt>0</asrwt>
<pdfrwt beam="1">  1        1 0.62771119E-01 0.19437500E+03</pdfrwt>
<pdfrwt beam="2">  1       -1 0.32464128E-01 0.19437500E+03</pdfrwt>
<totfact> 0.53061035E+02</totfact>
</mgrwt>
</event>
<event>
 8    1  0.6396648E-004  0.9726947E+02  0.7546771E-02  0.1287241E+00
         -1   -1    0    0    0  501 -0.00000000000E+00  0.00000000000E+00  0.10041952877E+03  0.10041952877E+03  0.00000000000E+00 0.  1.
          1   -1    0    0  501    0  0.00000000000E+00 -0.00000000000E+00 -0.12067908933E+03  0.12067908933E+03  0.00000000000E+00 0. -1.
         23    2    1    2    0    0 -0.49529433388E+01 -0.27455200989E+02  0.43553093059E+02  0.10476545206E+03  0.91107674333E+02 0.  0.
         23    2    1    2    0    0  0.49529433388E+01  0.27455200989E+02 -0.63812653624E+02  0.11633316603E+03  0.93182783000E+02 0.  0.
          5    1    4    4  502    0  0.21970249911E+02  0.42291280196E+02 -0.76319106030E+02  0.90099612690E+02  0.47000000000E+01 0. -1.
         -5    1    3    3    0  503  0.23326920413E+02 -0.51493811830E+02  0.34065207028E+02  0.66168619471E+02  0.47000000000E+01 0.  1.
          5    1    3    3  503    0 -0.28279863752E+02  0.24038610841E+02  0.94878860304E+01  0.38596832594E+02  0.47000000000E+01 0. -1.
         -5    1    4    4    0  502 -0.17017306572E+02 -0.14836079207E+02  0.12506452406E+02  0.26233553343E+02  0.47000000000E+01 0.  1.
<mgrwt>
<rscale>  0 0.96769111E+02</rscale>
<asrwt>0</asrwt>
<pdfrwt beam="1">  1        1 0.18566014E-01 0.97269475E+02</pdfrwt>
<pdfrwt beam="2">  1       -1 0.15449158E-01 0.97269475E+02</pdfrwt>
<totfact> 0.79332319E+03</totfact>
</mgrwt>
</event>
<event>
 8    1  0.6396648E-004  0.9393398E+02  0.7546771E-02  0.1298945E+00
         -1   -1    0    0    0  501 -0.00000000000E+00  0.00000000000E+00  0.62145260263E+02  0.62145260263E+02  0.00000000000E+00 0.  1.
          1   -1    0    0  501    0  0.00000000000E+00 -0.00000000000E+00 -0.29275685282E+03  0.29275685282E+03  0.00000000000E+00 0. -1.
         23    2    1    2    0    0  0.41407438981E+01  0.23288165167E+02  0.19899486060E+02  0.87358859041E+02  0.81707382228E+02 0.  0.
         23    2    1    2    0    0 -0.41407438981E+01 -0.23288165167E+02 -0.25051107862E+03  0.26754325405E+03  0.90907138755E+02 0.  0.
          5    1    3    3  502    0 -0.28709251193E+01 -0.24271190490E+02 -0.13804010133E+02  0.28460035042E+02  0.47000000000E+01 0. -1.
         -5    1    3    3    0  502  0.70116690174E+01  0.47559355657E+02  0.33703496192E+02  0.58898823999E+02  0.47000000000E+01 0.  1.
          5    1    4    4  503    0  0.34157554381E+02 -0.38800712410E+02 -0.15180586612E+03  0.16043486153E+03  0.47000000000E+01 0. -1.
         -5    1    4    4    0  503 -0.38298298279E+02  0.15512547243E+02 -0.98705212498E+02  0.10710839252E+03  0.47000000000E+01 0.  1.
<mgrwt>
<rscale>  0 0.91632853E+02</rscale>
<asrwt>0</asrwt>
<pdfrwt beam="1">  1        1 0.45039516E-01 0.93933978E+02</pdfrwt>
<pdfrwt beam="2">  1       -1 0.95608093E-02 0.93933978E+02</pdfrwt>
<totfact> 0.55162480E+03</totfact>
</mgrwt>
</event>
<event>
 8    1  0.6396648E-004  0.9776638E+02  0.7546771E-02  0.1285379E+00
         -2   -1    0    0    0  501 -0.00000000000E+00  0.00000000000E+00  0.23359754646E+02  0.23359754646E+02  0.00000000000E+00 0.  1.
          2   -1    0    0  501    0  0.00000000000E+00 -0.00000000000E+00 -0.40754360415E+03  0.40754360415E+03  0.00000000000E+00 0. -1.
         23    2    1    2    0    0  0.32178853721E+02  0.17809152545E+02 -0.18206420307E+03  0.20638027298E+03  0.89959982755E+02 0.  0.
         23    2    1    2    0    0 -0.32178853721E+02 -0.17809152545E+02 -0.20211964644E+03  0.22452308582E+03  0.90584877577E+02 0.  0.
          5    1    4    4  502    0  0.20052280757E+02 -0.23737668391E+02 -0.13772167042E+03  0.14126188222E+03  0.47000000000E+01 0. -1.
         -5    1    4    4    0  502 -0.52231134478E+02  0.59285158469E+01 -0.64397976019E+02  0.83261203597E+02  0.47000000000E+01 0.  1.
          5    1    3    3  503    0  0.27670145161E+02 -0.23210775750E+02 -0.25652228114E+02  0.44547770442E+02  0.47000000000E+01 0. -1.
         -5    1    3    3    0  503  0.45087085599E+01  0.41019928295E+02 -0.15641197495E+03  0.16183250254E+03  0.47000000000E+01 0.  1.
<mgrwt>
<rscale>  0 0.97621378E+02</rscale>
<asrwt>0</asrwt>
<pdfrwt beam="1">  1        2 0.62699018E-01 0.97766378E+02</pdfrwt>
<pdfrwt beam="2">  1       -2 0.35938083E-02 0.97766378E+02</pdfrwt>
<totfact> 0.22880038E+04</totfact>
</mgrwt>
</event>
<event>
 8    1  0.6396648E-004  0.1291625E+03  0.7546771E-02  0.1229637E+00
         -2   -1    0    0    0  501 -0.00000000000E+00  0.00000000000E+00  0.46797320070E+02  0.46797320070E+02  0.00000000000E+00 0.  1.
          2   -1    0    0  501    0  0.00000000000E+00 -0.00000000000E+00 -0.49068730992E+03  0.49068730992E+03  0.00000000000E+00 0. -1.
         23    2    1    2    0    0 -0.90385429319E+01  0.89628841264E+02 -0.76376599746E+02  0.14793484269E+03  0.89085959878E+02 0.  0.
         23    2    1    2    0    0  0.90385429319E+01 -0.89628841264E+02 -0.36751339010E+03  0.38954978730E+03  0.92563061944E+02 0.  0.
          5    1    3    3  502    0 -0.40029504774E+02  0.36466349464E+02 -0.65535325651E+01  0.54746640854E+02  0.47000000000E+01 0.  1.
         -5    1    3    3    0  502  0.30990961842E+02  0.53162491800E+02 -0.69823067181E+02  0.93188201833E+02  0.47000000000E+01 0. -1.
          5    1    4    4  503    0  0.28955701630E+02 -0.18021401362E+02 -0.36152684571E+02  0.49923042431E+02  0.47000000000E+01 0.  1.
         -5    1    4    4    0  503 -0.19917158698E+02 -0.71607439903E+02 -0.33136070553E+03  0.33962674487E+03  0.47000000000E+01 0. -1.
<mgrwt>
<rscale>  0 0.12854085E+03</rscale>
<asrwt>0</asrwt>
<pdfrwt beam="1">  1        2 0.75490359E-01 0.12916247E+03</pdfrwt>
<pdfrwt beam="2">  1       -2 0.71995873E-02 0.12916247E+03</pdfrwt>
<totfact> 0.67783545E+03</totfact>
</mgrwt>
</event>
<event>
 8    1  0.6396648E-004  0.1009863E+03  0.7546771E-02  0.1279027E+00
         -1   -1    0    0    0  501 -0.00000000000E+00  0.00000000000E+00  0.10069057700E+03  0.10069057700E+03  0.00000000000E+00 0.  1.
          1   -1    0    0  501    0  0.00000000000E+00 -0.00000000000E+00 -0.99828841929E+02  0.99828841929E+02  0.00000000000E+00 0. -1.
         23    2    1    2    0    0  0.39879797324E+02  0.89986725163E+01 -0.19761008251E+01  0.10100559828E+03  0.92340952817E+02 0.  0.
         23    2    1    2    0    0 -0.39879797324E+02 -0.89986725163E+01  0.28378359001E+01  0.99513820656E+02  0.90683917247E+02 0.  0.
          5    1    4    4  502    0 -0.34673317954E+02 -0.40072255782E+02 -0.23521467890E+02  0.58166778431E+02  0.47000000000E+01 0. -1.
         -5    1    4    4    0  502 -0.52064793701E+01  0.31073583266E+02  0.26359303790E+02  0.41347042224E+02  0.47000000000E+01 0.  1.
          5    1    3    3  503    0 -0.25317329337E+02  0.22119145814E+02 -0.47574855520E+01  0.34277506401E+02  0.47000000000E+01 0. -1.
         -5    1    3    3    0  503  0.65197126661E+02 -0.13120473298E+02  0.27813847269E+01  0.66728091876E+02  0.47000000000E+01 0.  1.
<mgrwt>
<rscale>  0 0.10060589E+03</rscale>
<asrwt>0</asrwt>
<pdfrwt beam="1">  1        1 0.15358283E-01 0.10098627E+03</pdfrwt>
<pdfrwt beam="2">  1       -1 0.15490858E-01 0.10098627E+03</pdfrwt>
<totfact> 0.10089914E+04</totfact>
</mgrwt>
</event>
<event>
 8    1  0.6396648E-004  0.1246548E+03  0.7546771E-02  0.1238752E+00
         -2   -1    0    0    0  501 -0.00000000000E+00  0.00000000000E+00  0.28966828852E+03  0.28966828852E+03  0.00000000000E+00 0.  1.
          2   -1    0    0  501    0  0.00000000000E+00 -0.00000000000E+00 -0.54788940110E+02  0.54788940110E+02  0.00000000000E+00 0. -1.
         23    2    1    2    0    0  0.73893892055E+02  0.40678766505E+01  0.16290207819E+03  0.20051433032E+03  0.90509970074E+02 0.  0.
         23    2    1    2    0    0 -0.73893892055E+02 -0.40678766505E+01  0.71977270219E+02  0.14394289831E+03  0.10030939956E+03 0.  0.
          5    1    4    4  502    0 -0.37113405872E+02 -0.47594119721E+02  0.13234635415E+02  0.61966528885E+02  0.47000000000E+01 0. -1.
         -5    1    3    3    0  503  0.11573449624E+02  0.37987352122E+02  0.90952373869E+02  0.99354959463E+02  0.47000000000E+01 0.  1.
          5    1    3    3  503    0  0.62320442430E+02 -0.33919475471E+02  0.71949704323E+02  0.10115937086E+03  0.47000000000E+01 0. -1.
         -5    1    4    4    0  502 -0.36780486183E+02  0.43526243071E+02  0.58742634804E+02  0.81976369421E+02  0.47000000000E+01 0.  1.
<mgrwt>
<rscale>  0 0.12267289E+03</rscale>
<asrwt>0</asrwt>
<pdfrwt beam="1">  1        2 0.84290679E-02 0.12465485E+03</pdfrwt>
<pdfrwt beam="2">  1       -2 0.44564351E-01 0.12465485E+03</pdfrwt>
<totfact> 0.36486044E+03</totfact>
</mgrwt>
</event>
<event>
 8    1  0.6396648E-004  0.1103814E+03  0.7546771E-02  0.1264344E+00
          2   -1    0    0  501    0  0.00000000000E+00  0.00000000000E+00  0.36499591588E+03  0.36499591588E+03  0.00000000000E+00 0. -1.
         -2   -1    0    0    0  501 -0.00000000000E+00 -0.00000000000E+00 -0.54668084382E+02  0.54668084382E+02  0.00000000000E+00 0.  1.
         23    2    1    2    0    0 -0.91612759028E+01  0.44672656089E+02  0.29802261338E+03  0.31780739584E+03  0.10052108031E+03 0.  0.
         23    2    1    2    0    0  0.91612759028E+01 -0.44672656089E+02  0.12305218111E+02  0.10185660442E+03  0.90242862833E+02 0.  0.
          5    1    3    3  502    0 -0.38344169028E+02  0.55020325010E+02  0.12459850876E+03  0.14157821106E+03  0.47000000000E+01 0. -1.
         -5    1    4    4    0  503 -0.34026949469E+02 -0.43787082776E+02 -0.31391777559E+01  0.55741244561E+02  0.47000000000E+01 0. -1.
          5    1    4    4  503    0  0.43188225372E+02 -0.88557331249E+00  0.15444395867E+02  0.46115359855E+02  0.47000000000E+01 0.  1.
         -5    1    3    3    0  502  0.29182893125E+02 -0.10347668921E+02  0.17342410463E+03  0.17622918478E+03  0.47000000000E+01 0.  1.
<mgrwt>
<rscale>  0 0.10798693E+03</rscale>
<asrwt>0</asrwt>
<pdfrwt beam="1">  1        2 0.56153216E-01 0.11038144E+03</pdfrwt>
<pdfrwt beam="2">  1       -2 0.84104748E-02 0.11038144E+03</pdfrwt>
<totfact> 0.72540390E+03</totfact>
</mgrwt>
</event>
<event>
 8    1  0.6396648E-004  0.2227697E+03  0.7546771E-02  0.1132178E+00
          2   -1    0    0  501    0  0.00000000000E+00  0.00000000000E+00  0.90882450400E+03  0.90882450400E+03  0.00000000000E+00 0. -1.
         -2   -1    0    0    0  501 -0.00000000000E+00 -0.00000000000E+00 -0.55448706467E+02  0.55448706467E+02  0.00000000000E+00 0.  1.
         23    2    1    2    0    0  0.87140930073E+02  0.18110286081E+03  0.35111989380E+03  0.41483047998E+03  0.91691653979E+02 0.  0.
         23    2    1    2    0    0 -0.87140930073E+02 -0.18110286081E+03  0.50225590373E+03  0.54944273049E+03  0.96096479473E+02 0.  0.
          5    1    4    4  502    0 -0.62487994542E+02 -0.89942649691E+02  0.37633321972E+03  0.39197348374E+03  0.47000000000E+01 0. -1.
         -5    1    3    3    0  503  0.63595307746E+02  0.17428352162E+03  0.34032406952E+03  0.38763600371E+03  0.47000000000E+01 0.  1.
          5    1    3    3  503    0  0.23545622327E+02  0.68193391916E+01  0.10795824278E+02  0.27194476270E+02  0.47000000000E+01 0. -1.
         -5    1    4    4    0  502 -0.24652935531E+02 -0.91160211118E+02  0.12592268402E+03  0.15746924675E+03  0.47000000000E+01 0.  1.
<mgrwt>
<rscale>  0 0.22230210E+03</rscale>
<asrwt>0</asrwt>
<pdfrwt beam="1">  1        2 0.13981914E+00 0.22276966E+03</pdfrwt>
<pdfrwt beam="2">  1       -2 0.85305709E-02 0.22276966E+03</pdfrwt>
<totfact> 0.25507658E+03</totfact>
</mgrwt>
</event>
<event>
 8    1  0.6396648E-004  0.2100091E+03  0.7546771E-02  0.1141632E+00
          1   -1    0    0  501    0  0.00000000000E+00  0.00000000000E+00  0.73071407109E+03  0.73071407109E+03  0.00000000000E+00 0. -1.
         -1   -1    0    0    0  501 -0.00000000000E+00 -0.00000000000E+00 -0.68790377887E+02  0.68790377887E+02  0.00000000000E+00 0.  1.
         23    2    1    2    0    0 -0.18676774878E+03 -0.20523688554E+02  0.19037415810E+03  0.28345392895E+03  0.93810425798E+02 0.  0.
         23    2    1    2    0    0  0.18676774878E+03  0.20523688554E+02  0.47154953510E+03  0.51605052003E+03  0.92982586462E+02 0.  0.
          5    1    3    3  502    0 -0.45241792866E+02 -0.10019844138E+02  0.11192909137E+03  0.12123295176E+03  0.47000000000E+01 0. -1.
         -5    1    3    3    0  502 -0.14152595592E+03 -0.10503844416E+02  0.78445066729E+02  0.16222097719E+03  0.47000000000E+01 0.  1.
          5    1    4    4  503    0  0.15836567746E+03 -0.15895711762E+02  0.31802238096E+03  0.35565810301E+03  0.47000000000E+01 0. -1.
         -5    1    4    4    0  503  0.28402071324E+02  0.36419400316E+02  0.15352715415E+03  0.16039241701E+03  0.47000000000E+01 0.  1.
<mgrwt>
<rscale>  0 0.20991689E+03</rscale>
<asrwt>0</asrwt>
<pdfrwt beam="1">  1        1 0.11241754E+00 0.21000907E+03</pdfrwt>
<pdfrwt beam="2">  1       -1 0.10583136E-01 0.21000907E+03</pdfrwt>
<totfact> 0.14731792E+03</totfact>
</mgrwt>
</event>
<event>
 8    1  0.6396648E-004  0.1015764E+03  0.7546771E-02  0.1281114E+00
          1   -1    0    0  501    0  0.00000000000E+00  0.00000000000E+00  0.12800709916E+03  0.12800709916E+03  0.00000000000E+00 0. -1.
         -1   -1    0    0    0  501 -0.00000000000E+00 -0.00000000000E+00 -0.90463187594E+02  0.90463187594E+02  0.00000000000E+00 0.  1.
         23    2    1    2    0    0 -0.34046797607E+02  0.10309647099E+02 -0.26249727475E+02  0.10491338208E+03  0.95143556252E+02 0.  0.
         23    2    1    2    0    0  0.34046797607E+02 -0.10309647099E+02  0.63793639041E+02  0.11355690467E+03  0.86948657072E+02 0.  0.
          5    1    3    3  502    0 -0.57590438217E+02 -0.15805983978E+02 -0.33601958895E+02  0.68685292058E+02  0.47000000000E+01 0. -1.
         -5    1    3    3    0  502  0.23543640610E+02  0.26115631077E+02  0.73522314202E+01  0.36228090021E+02  0.47000000000E+01 0.  1.
          5    1    4    4  503    0 -0.21980371553E+02  0.13980807750E+02  0.39755562563E+02  0.47761851657E+02  0.47000000000E+01 0. -1.
         -5    1    4    4    0  503  0.56027169160E+02 -0.24290454849E+02  0.24038076478E+02  0.65795053018E+02  0.47000000000E+01 0.  1.
<mgrwt>
<rscale>  0 0.99612160E+02</rscale>
<asrwt>0</asrwt>
<pdfrwt beam="1">  1        1 0.19693400E-01 0.10157642E+03</pdfrwt>
<pdfrwt beam="2">  1       -1 0.13917413E-01 0.10157642E+03</pdfrwt>
<totfact> 0.86911289E+03</totfact>
</mgrwt>
</event>
<event>
 8    1  0.6396648E-004  0.1259658E+03  0.7546771E-02  0.1236479E+00
         -1   -1    0    0    0  501 -0.00000000000E+00  0.00000000000E+00  0.26241909710E+03  0.26241909710E+03  0.00000000000E+00 0.  1.
          1   -1    0    0  501    0  0.00000000000E+00 -0.00000000000E+00 -0.59934889973E+02  0.59934889973E+02  0.00000000000E+00 0. -1.
         23    2    1    2    0    0 -0.44941436898E+02  0.60302753887E+02  0.13966141030E+03  0.18807627383E+03  0.10105058324E+03 0.  0.
         23    2    1    2    0    0  0.44941436898E+02 -0.60302753887E+02  0.62822796824E+02  0.13427771324E+03  0.91802209103E+02 0.  0.
          5    1    3    3  502    0 -0.58448466821E+02  0.51112247597E+01  0.10764868745E+03  0.12268935488E+03  0.47000000000E+01 0. -1.
         -5    1    4    4    0  503 -0.25669660465E+02 -0.31849465243E+02  0.31414848857E+02  0.51790951269E+02  0.47000000000E+01 0.  1.
          5    1    4    4  503    0  0.70611097363E+02 -0.28453288644E+02  0.31407947968E+02  0.82486761975E+02  0.47000000000E+01 0. -1.
         -5    1    3    3    0  502  0.13507029922E+02  0.55191529127E+02  0.32012722855E+02  0.65386918946E+02  0.47000000000E+01 0.  1.
<mgrwt>
<rscale>  0 0.12410217E+03</rscale>
<asrwt>0</asrwt>
<pdfrwt beam="1">  1        1 0.92207524E-02 0.12596577E+03</pdfrwt>
<pdfrwt beam="2">  1       -1 0.40372168E-01 0.12596577E+03</pdfrwt>
<totfact> 0.41455708E+03</totfact>
</mgrwt>
</event>
<event>
 8    1  0.6396648E-004  0.9814137E+02  0.7546771E-02  0.1288267E+00
          1   -1    0    0  501    0  0.00000000000E+00  0.00000000000E+00  0.75210389879E+03  0.75210389879E+03  0.00000000000E+00 0. -1.
         -1   -1    0    0    0  501 -0.00000000000E+00 -0.00000000000E+00 -0.11901222112E+02  0.11901222112E+02  0.00000000000E+00 0.  1.
         23    2    1    2    0    0 -0.16309610146E+02  0.31151262087E+02  0.39539037089E+03  0.40738835693E+03  0.91625997699E+02 0.  0.
         23    2    1    2    0    0  0.16309610146E+02 -0.31151262087E+02  0.34481230579E+03  0.35661676397E+03  0.83926072309E+02 0.  0.
          5    1    4    4  502    0  0.39216741490E+02 -0.32341502337E+02  0.31289463953E+03  0.31703165620E+03  0.47000000000E+01 0. -1.
         -5    1    3    3    0  503  0.89402381872E+01  0.51312335754E+02  0.33189164364E+03  0.33598666161E+03  0.47000000000E+01 0.  1.
          5    1    3    3  503    0 -0.25249848333E+02 -0.20161073667E+02  0.63498727251E+02  0.71401695321E+02  0.47000000000E+01 0. -1.
         -5    1    4    4    0  502 -0.22907131344E+02  0.11902402503E+01  0.31917666258E+02  0.39585107776E+02  0.47000000000E+01 0.  1.
<mgrwt>
<rscale>  0 0.96303663E+02</rscale>
<asrwt>0</asrwt>
<pdfrwt beam="1">  1        1 0.11570825E+00 0.98141367E+02</pdfrwt>
<pdfrwt beam="2">  1       -1 0.18309578E-02 0.98141367E+02</pdfrwt>
<totfact> 0.18250278E+04</totfact>
</mgrwt>
</event>
<event>
 8    1  0.6396648E-004  0.1059390E+03  0.7546771E-02  0.1268437E+00
          2   -1    0    0  501    0  0.00000000000E+00  0.00000000000E+00  0.59811404485E+03  0.59811404485E+03  0.00000000000E+00 0. -1.
         -2   -1    0    0    0  501 -0.00000000000E+00 -0.00000000000E+00 -0.24335169983E+02  0.24335169983E+02  0.00000000000E+00 0.  1.
         23    2    1    2    0    0 -0.16362672276E+02 -0.51213232308E+02  0.43689318890E+03  0.44955392928E+03  0.91282772862E+02 0.  0.
         23    2    1    2    0    0  0.16362672276E+02  0.51213232308E+02  0.13688568597E+03  0.17289528555E+03  0.90909606395E+02 0.  0.
          5    1    3    3  502    0 -0.51208989179E+02 -0.19302670076E+02  0.29067173197E+03  0.29581598911E+03  0.47000000000E+01 0. -1.
         -5    1    4    4    0  503  0.53922121112E+02  0.34590408785E+02  0.80927868425E+02  0.10332231808E+03  0.47000000000E+01 0.  1.
          5    1    4    4  503    0 -0.37559448836E+02  0.16622823523E+02  0.55957817544E+02  0.69572967473E+02  0.47000000000E+01 0. -1.
         -5    1    3    3    0  502  0.34846316902E+02 -0.31910562232E+02  0.14622145692E+03  0.15373794017E+03  0.47000000000E+01 0.  1.
<mgrwt>
<rscale>  0 0.10585859E+03</rscale>
<asrwt>0</asrwt>
<pdfrwt beam="1">  1        2 0.92017535E-01 0.10593902E+03</pdfrwt>
<pdfrwt beam="2">  1       -2 0.37438727E-02 0.10593902E+03</pdfrwt>
<totfact> 0.14310186E+04</totfact>
</mgrwt>
</event>
<event>
 8    1  0.6396648E-004  0.1256327E+03  0.7546771E-02  0.1236530E+00
         -1   -1    0    0    0  501 -0.00000000000E+00  0.00000000000E+00  0.27064893761E+02  0.27064893761E+02  0.00000000000E+00 0.  1.
          1   -1    0    0  501    0  0.00000000000E+00 -0.00000000000E+00 -0.68042239167E+03  0.68042239167E+03  0.00000000000E+00 0. -1.
         23    2    1    2    0    0  0.26770468729E+02  0.81877158521E+02 -0.18153753292E+03  0.22077013823E+03  0.91449718368E+02 0.  0.
         23    2    1    2    0    0 -0.26770468729E+02 -0.81877158521E+02 -0.47181996499E+03  0.48671714721E+03  0.82818928629E+02 0.  0.
          5    1    4    4  502    0 -0.22199919742E+02 -0.31278605025E+02 -0.37757773716E+03  0.37955002986E+03  0.47000000000E+01 0. -1.
         -5    1    4    4    0  502 -0.45705489870E+01 -0.50598553496E+02 -0.94242227830E+02  0.10716711735E+03  0.47000000000E+01 0.  1.
          5    1    3    3  503    0 -0.14388181096E+02  0.35353888806E+02 -0.14170247293E+03  0.14682846470E+03  0.47000000000E+01 0. -1.
         -5    1    3    3    0  503  0.41158649825E+02  0.46523269715E+02 -0.39835059988E+02  0.73941673531E+02  0.47000000000E+01 0.  1.
<mgrwt>
<rscale>  0 0.12406983E+03</rscale>
<asrwt>0</asrwt>
<pdfrwt beam="1">  1        1 0.10468036E+00 0.12563271E+03</pdfrwt>
<pdfrwt beam="2">  1       -1 0.41638299E-02 0.12563271E+03</pdfrwt>
<totfact> 0.65354282E+03</totfact>
</mgrwt>
</event>
<event>
 8    1  0.6396648E-004  0.9718075E+02  0.7546771E-02  0.1287305E+00
          1   -1    0    0  501    0  0.00000000000E+00  0.00000000000E+00  0.42899278225E+03  0.42899278225E+03  0.00000000000E+00 0. -1.
         -1   -1    0    0    0  501 -0.00000000000E+00 -0.00000000000E+00 -0.22594624279E+02  0.22594624279E+02  0.00000000000E+00 0.  1.
         23    2    1    2    0    0 -0.30701426411E+02  0.11805900316E+02  0.15806546117E+03  0.18554996270E+03  0.91444747116E+02 0.  0.
         23    2    1    2    0    0  0.30701426411E+02 -0.11805900316E+02  0.24833269679E+03  0.26603744383E+03  0.89581450955E+02 0.  0.
          5    1    4    4  502    0 -0.30398694741E+02  0.64471357199E+01  0.77456561562E+02  0.83589802787E+02  0.47000000000E+01 0. -1.
         -5    1    3    3    0  503 -0.53532196078E+02 -0.18134007938E+02  0.73300941969E+02  0.92680398976E+02  0.47000000000E+01 0.  1.
          5    1    3    3  503    0  0.22830769667E+02  0.29939908254E+02  0.84764519205E+02  0.92869563721E+02  0.47000000000E+01 0. -1.
         -5    1    4    4    0  502  0.61100121152E+02 -0.18253036036E+02  0.17087613523E+03  0.18244764104E+03  0.47000000000E+01 0.  1.
<mgrwt>
<rscale>  0 0.96739954E+02</rscale>
<asrwt>0</asrwt>
<pdfrwt beam="1">  1        1 0.65998884E-01 0.97180752E+02</pdfrwt>
<pdfrwt beam="2">  1       -1 0.34760963E-02 0.97180752E+02</pdfrwt>
<totfact> 0.15345024E+04</totfact>
</mgrwt>
</event>
<event>
 8    1  0.6396648E-004  0.2863865E+03  0.7546771E-02  0.1093010E+00
          2   -1    0    0  501    0  0.00000000000E+00  0.00000000000E+00  0.13607695025E+04  0.13607695025E+04  0.00000000000E+00 0. -1.
         -2   -1    0    0    0  501 -0.00000000000E+00 -0.00000000000E+00 -0.62490891836E+02  0.62490891836E+02  0.00000000000E+00 0.  1.
         23    2    1    2    0    0  0.14604181309E+03 -0.22229738153E+03  0.48917871222E+03  0.56684480785E+03  0.10617385124E+03 0.  0.
         23    2    1    2    0    0 -0.14604181309E+03  0.22229738153E+03  0.80909989847E+03  0.85641558652E+03  0.89781257039E+02 0.  0.
          5    1    3    3  502    0  0.60449714507E+02 -0.15618605928E+02  0.10390505379E+03  0.12131141347E+03  0.47000000000E+01 0. -1.
         -5    1    3    3    0  502  0.85592098583E+02 -0.20667877560E+03  0.38527365843E+03  0.44553339438E+03  0.47000000000E+01 0.  1.
          5    1    4    4  503    0 -0.15801351675E+03  0.20207250172E+03  0.74840502563E+03  0.79115974355E+03  0.47000000000E+01 0. -1.
         -5    1    4    4    0  503  0.11971703661E+02  0.20224879808E+02  0.60694872844E+02  0.65255842967E+02  0.47000000000E+01 0.  1.
<mgrwt>
<rscale>  0 0.28495982E+03</rscale>
<asrwt>0</asrwt>
<pdfrwt beam="1">  1        2 0.20934913E+00 0.28638649E+03</pdfrwt>
<pdfrwt beam="2">  1       -2 0.96139844E-02 0.28638649E+03</pdfrwt>
<totfact> 0.11481983E+03</totfact>
</mgrwt>
</event>
<event>
 8    1  0.6396648E-004  0.9445599E+02  0.7546771E-02  0.1295116E+00
          1   -1    0    0  501    0  0.00000000000E+00  0.00000000000E+00  0.41602994110E+03  0.41602994110E+03  0.00000000000E+00 0. -1.
         -1   -1    0    0    0  501 -0.00000000000E+00 -0.00000000000E+00 -0.60665026406E+02  0.60665026406E+02  0.00000000000E+00 0.  1.
         23    2    1    2    0    0  0.80442358658E+01  0.18451311408E+02  0.37334210434E+03  0.38510552017E+03  0.92286370456E+02 0.  0.
         23    2    1    2    0    0 -0.80442358658E+01 -0.18451311408E+02 -0.17977189647E+02  0.91589447330E+02  0.87523064910E+02 0.  0.
          5    1    4    4  502    0  0.17340029486E+02  0.19293999587E+02  0.19233470728E+02  0.32633593717E+02  0.47000000000E+01 0. -1.
         -5    1    3    3    0  503  0.12790272628E+02  0.54301976505E+02  0.18583555438E+03  0.19408564862E+03  0.47000000000E+01 0.  1.
          5    1    3    3  503    0 -0.47460367619E+01 -0.35850665097E+02  0.18750654996E+03  0.19101987156E+03  0.47000000000E+01 0. -1.
         -5    1    4    4    0  502 -0.25384265352E+02 -0.37745310996E+02 -0.37210660376E+02  0.58955853613E+02  0.47000000000E+01 0.  1.
<mgrwt>
<rscale>  0 0.93271874E+02</rscale>
<asrwt>0</asrwt>
<pdfrwt beam="1">  1        1 0.64004604E-01 0.94455994E+02</pdfrwt>
<pdfrwt beam="2">  1       -1 0.93330813E-02 0.94455994E+02</pdfrwt>
<totfact> 0.37105357E+03</totfact>
</mgrwt>
</event>
<event>
 8    1  0.6396648E-004  0.1254539E+03  0.7546771E-02  0.1234726E+00
         -1   -1    0    0    0  501 -0.00000000000E+00  0.00000000000E+00  0.50742160919E+02  0.50742160919E+02  0.00000000000E+00 0.  1.
          1   -1    0    0  501    0  0.00000000000E+00 -0.00000000000E+00 -0.32012404988E+03  0.32012404988E+03  0.00000000000E+00 0. -1.
         23    2    1    2    0    0  0.83594666945E+02 -0.14241843816E+02 -0.17048986197E+03  0.21112166265E+03  0.91184784641E+02 0.  0.
         23    2    1    2    0    0 -0.83594666945E+02  0.14241843816E+02 -0.98892026992E+02  0.15974454815E+03  0.92454254649E+02 0.  0.
          5    1    3    3  502    0  0.37407002003E+02  0.19102834417E+02 -0.14020028617E+03  0.14643227897E+03  0.47000000000E+01 0. -1.
         -5    1    3    3    0  502  0.46187664942E+02 -0.33344678232E+02 -0.30289575796E+02  0.64689383682E+02  0.47000000000E+01 0.  1.
          5    1    4    4  503    0  0.48123724507E+01  0.32324110581E+02 -0.40094726127E+02  0.51939234849E+02  0.47000000000E+01 0. -1.
         -5    1    4    4    0  503 -0.88407039396E+02 -0.18082266765E+02 -0.58797300864E+02  0.10780531330E+03  0.47000000000E+01 0.  1.
<mgrwt>
<rscale>  0 0.12522013E+03</rscale>
<asrwt>0</asrwt>
<pdfrwt beam="1">  1        1 0.49249854E-01 0.12545393E+03</pdfrwt>
<pdfrwt beam="2">  1       -1 0.78064863E-02 0.12545393E+03</pdfrwt>
<totfact> 0.68394956E+03</totfact>
</mgrwt>
</event>
<event>
 8    1  0.6396648E-004  0.9653178E+02  0.7546771E-02  0.1288427E+00
          2   -1    0    0  501    0  0.00000000000E+00  0.00000000000E+00  0.10839868408E+03  0.10839868408E+03  0.00000000000E+00 0. -1.
         -2   -1    0    0    0  501 -0.00000000000E+00 -0.00000000000E+00 -0.86874025244E+02  0.86874025244E+02  0.00000000000E+00 0.  1.
         23    2    1    2    0    0  0.19653497307E+02  0.16891496423E+02  0.25407908126E+02  0.98662850084E+02  0.91745373636E+02 0.  0.
         23    2    1    2    0    0 -0.19653497307E+02 -0.16891496423E+02 -0.38832492924E+01  0.96609859237E+02  0.92988185642E+02 0.  0.
          5    1    4    4  502    0 -0.20241719363E+02  0.34198214534E+02 -0.17268752674E+02  0.43583768757E+02  0.47000000000E+01 0. -1.
         -5    1    3    3    0  503  0.52877434471E+02 -0.19369001047E+01  0.10636844669E+01  0.53131874453E+02  0.47000000000E+01 0.  1.
          5    1    3    3  503    0 -0.33223937163E+02  0.18828396527E+02  0.24344223659E+02  0.45530975632E+02  0.47000000000E+01 0. -1.
         -5    1    4    4    0  502  0.58822205560E+00 -0.51089710957E+02  0.13385503382E+02  0.53026090481E+02  0.47000000000E+01 0.  1.
<mgrwt>
<rscale>  0 0.96231232E+02</rscale>
<asrwt>0</asrwt>
<pdfrwt beam="1">  1        2 0.16676721E-01 0.96531784E+02</pdfrwt>
<pdfrwt beam="2">  1       -2 0.13365235E-01 0.96531784E+02</pdfrwt>
<totfact> 0.12887173E+04</totfact>
</mgrwt>
</event>
<event>
 8    1  0.6396648E-004  0.1551035E+03  0.7546771E-02  0.1194610E+00
         -1   -1    0    0    0  501 -0.00000000000E+00  0.00000000000E+00  0.82335736774E+03  0.82335736774E+03  0.00000000000E+00 0.  1.
          1   -1    0    0  501    0  0.00000000000E+00 -0.00000000000E+00 -0.36423087562E+02  0.36423087562E+02  0.00000000000E+00 0. -1.
         23    2    1    2    0    0  0.10560251736E+03  0.66588875009E+02  0.20092016752E+03  0.25382281025E+03  0.92038770841E+02 0.  0.
         23    2    1    2    0    0 -0.10560251736E+03 -0.66588875009E+02  0.58601411265E+03  0.60595764505E+03  0.90477386222E+02 0.  0.
          5    1    3    3  502    0  0.86085186130E+02  0.83856392653E+02  0.12520801692E+03  0.17361362666E+03  0.47000000000E+01 0. -1.
         -5    1    4    4    0  503 -0.47847531031E+02 -0.80515173491E+02  0.38784958515E+03  0.39902565091E+03  0.47000000000E+01 0.  1.
          5    1    4    4  503    0 -0.57754986332E+02  0.13926298482E+02  0.19816452750E+03  0.20693199414E+03  0.47000000000E+01 0. -1.
         -5    1    3    3    0  502  0.19517331234E+02 -0.17267517644E+02  0.75712150601E+02  0.80209183593E+02  0.47000000000E+01 0.  1.
<mgrwt>
<rscale>  0 0.15487266E+03</rscale>
<asrwt>0</asrwt>
<pdfrwt beam="1">  1        1 0.56035526E-02 0.15510353E+03</pdfrwt>
<pdfrwt beam="2">  1       -1 0.12667035E+00 0.15510353E+03</pdfrwt>
<totfact> 0.81589962E+02</totfact>
</mgrwt>
</event>
<event>
 8    1  0.6396648E-004  0.9966624E+02  0.7546771E-02  0.1281484E+00
          1   -1    0    0  501    0  0.00000000000E+00  0.00000000000E+00  0.61890045640E+03  0.61890045640E+03  0.00000000000E+00 0. -1.
         -1   -1    0    0    0  501 -0.00000000000E+00 -0.00000000000E+00 -0.17405209955E+02  0.17405209955E+02  0.00000000000E+00 0.  1.
         23    2    1    2    0    0 -0.37266076004E+02  0.17467310949E+02  0.39546921619E+03  0.40783484522E+03  0.90771651134E+02 0.  0.
         23    2    1    2    0    0  0.37266076004E+02 -0.17467310949E+02  0.20602603025E+03  0.22847082113E+03  0.89768165818E+02 0.  0.
          5    1    4    4  502    0  0.21635339680E+02  0.84952219551E+01  0.19413691689E+03  0.19557987938E+03  0.47000000000E+01 0. -1.
         -5    1    3    3    0  503 -0.59332158572E+01 -0.36135848734E+02  0.12836795505E+03  0.13357179529E+03  0.47000000000E+01 0.  1.
          5    1    3    3  503    0 -0.31332860146E+02  0.53603159682E+02  0.26710126114E+03  0.27426304993E+03  0.47000000000E+01 0. -1.
         -5    1    4    4    0  502  0.15630736324E+02 -0.25962532904E+02  0.11889113366E+02  0.32890941754E+02  0.47000000000E+01 0.  1.
<mgrwt>
<rscale>  0 0.99437189E+02</rscale>
<asrwt>0</asrwt>
<pdfrwt beam="1">  1        1 0.95215438E-01 0.99666243E+02</pdfrwt>
<pdfrwt beam="2">  1       -1 0.26777251E-02 0.99666243E+02</pdfrwt>
<totfact> 0.13923542E+04</totfact>
</mgrwt>
</event>
<event>
 8    1  0.6396648E-004  0.1451854E+03  0.7546771E-02  0.1206658E+00
         -2   -1    0    0    0  501 -0.00000000000E+00  0.00000000000E+00  0.38337528731E+02  0.38337528731E+02  0.00000000000E+00 0.  1.
          2   -1    0    0  501    0  0.00000000000E+00 -0.00000000000E+00 -0.57122377055E+03  0.57122377055E+03  0.00000000000E+00 0. -1.
         23    2    1    2    0    0 -0.11071523873E+03  0.19417538034E+02 -0.20480749477E+03  0.25079331506E+03  0.91193596779E+02 0.  0.
         23    2    1    2    0    0  0.11071523873E+03 -0.19417538034E+02 -0.32807874704E+03  0.35876798422E+03  0.91890681624E+02 0.  0.
          5    1    3    3  502    0 -0.16562906565E+02  0.42141404893E+02 -0.45974240957E+02  0.64698908119E+02  0.47000000000E+01 0. -1.
         -5    1    3    3    0  502 -0.94152332164E+02 -0.22723866859E+02 -0.15883325382E+03  0.18609440694E+03  0.47000000000E+01 0.  1.
          5    1    4    4  503    0  0.92846167299E+02  0.23665033937E+02 -0.24898671280E+03  0.26682750563E+03  0.47000000000E+01 0. -1.
         -5    1    4    4    0  503  0.17869071430E+02 -0.43082571970E+02 -0.79092034247E+02  0.91940478586E+02  0.47000000000E+01 0.  1.
<mgrwt>
<rscale>  0 0.14507523E+03</rscale>
<asrwt>0</asrwt>
<pdfrwt beam="1">  1        2 0.87880574E-01 0.14518541E+03</pdfrwt>
<pdfrwt beam="2">  1       -2 0.58980818E-02 0.14518541E+03</pdfrwt>
<totfact> 0.78145477E+03</totfact>
</mgrwt>
</event>
<event>
 8    1  0.6396648E-004  0.9568549E+02  0.7546771E-02  0.1295003E+00
         -1   -1    0    0    0  501 -0.00000000000E+00  0.00000000000E+00  0.11937977341E+03  0.11937977341E+03  0.00000000000E+00 0.  1.
          1   -1    0    0  501    0  0.00000000000E+00 -0.00000000000E+00 -0.72714676978E+02  0.72714676978E+02  0.00000000000E+00 0. -1.
         23    2    1    2    0    0  0.73895668014E+01  0.27648152865E+02  0.22469903615E+01  0.86601881677E+02  0.81705635606E+02 0.  0.
         23    2    1    2    0    0 -0.73895668014E+01 -0.27648152865E+02  0.44418106075E+02  0.10549256872E+03  0.91305464528E+02 0.  0.
          5    1    3    3  502    0  0.43896131245E+02  0.21443673894E+02  0.39323349537E+01  0.49236721525E+02  0.47000000000E+01 0. -1.
         -5    1    4    4    0  503 -0.37396565388E+02 -0.20047190935E+02  0.57453531413E+02  0.71577868361E+02  0.47000000000E+01 0.  1.
          5    1    4    4  503    0  0.30006998586E+02 -0.76009619308E+01 -0.13035425338E+02  0.33914700355E+02  0.47000000000E+01 0. -1.
         -5    1    3    3    0  502 -0.36506564443E+02  0.62044789710E+01 -0.16853445922E+01  0.37365160152E+02  0.47000000000E+01 0.  1.
<mgrwt>
<rscale>  0 0.93321101E+02</rscale>
<asrwt>0</asrwt>
<pdfrwt beam="1">  1        1 0.11186873E-01 0.95685495E+02</pdfrwt>
<pdfrwt beam="2">  1       -1 0.18366119E-01 0.95685495E+02</pdfrwt>
<totfact> 0.11577807E+04</totfact>
</mgrwt>
</event>
<event>
 8    1  0.6396648E-004  0.1019577E+03  0.7546771E-02  0.1279720E+00
          1   -1    0    0  501    0  0.00000000000E+00  0.00000000000E+00  0.79820744440E+02  0.79820744440E+02  0.00000000000E+00 0. -1.
         -1   -1    0    0    0  501 -0.00000000000E+00 -0.00000000000E+00 -0.38569404510E+03  0.38569404510E+03  0.00000000000E+00 0.  1.
         23    2    1    2    0    0  0.98151590967E+01 -0.28444831569E+02 -0.34697654752E+03  0.36164637538E+03  0.97416274341E+02 0.  0.
         23    2    1    2    0    0 -0.98151590967E+01  0.28444831569E+02  0.41103246863E+02  0.10386841416E+03  0.90519195563E+02 0.  0.
          5    1    3    3  502    0  0.60702898230E+01  0.19994450900E+02 -0.15114140809E+02  0.26213617411E+02  0.47000000000E+01 0. -1.
         -5    1    3    3    0  502  0.37448692737E+01 -0.48439282469E+02 -0.33186240671E+03  0.33543275797E+03  0.47000000000E+01 0.  1.
          5    1    4    4  503    0  0.17178024181E+02  0.32226218724E+02  0.59981480714E+02  0.70380975531E+02  0.47000000000E+01 0. -1.
         -5    1    4    4    0  503 -0.26993183278E+02 -0.37813871551E+01 -0.18878233851E+02  0.33487438625E+02  0.47000000000E+01 0.  1.
<mgrwt>
<rscale>  0 0.10027445E+03</rscale>
<asrwt>0</asrwt>
<pdfrwt beam="1">  1        1 0.12280115E-01 0.10195772E+03</pdfrwt>
<pdfrwt beam="2">  1       -1 0.59337545E-01 0.10195772E+03</pdfrwt>
<totfact> 0.14007758E+03</totfact>
</mgrwt>
</event>
<event>
 8    1  0.6396648E-004  0.9216373E+02  0.7546771E-02  0.1298537E+00
         -1   -1    0    0    0  501 -0.00000000000E+00  0.00000000000E+00  0.78704024423E+02  0.78704024423E+02  0.00000000000E+00 0.  1.
          1   -1    0    0  501    0  0.00000000000E+00 -0.00000000000E+00 -0.11375193121E+03  0.11375193121E+03  0.00000000000E+00 0. -1.
         23    2    1    2    0    0  0.79549348600E+01  0.94842674334E+01 -0.42338761748E+02  0.10142348945E+03  0.91328643632E+02 0.  0.
         23    2    1    2    0    0 -0.79549348600E+01 -0.94842674334E+01  0.72908549586E+01  0.91032466189E+02  0.89891718289E+02 0.  0.
          5    1    4    4  502    0 -0.35291558961E+02  0.23976390377E+02 -0.10304453343E+02  0.44143325521E+02  0.47000000000E+01 0. -1.
         -5    1    3    3    0  503 -0.22319238125E+02 -0.82518623860E+01  0.18858992480E+02  0.30724472668E+02  0.47000000000E+01 0.  1.
          5    1    3    3  503    0  0.30274172985E+02  0.17736129819E+02 -0.61197754228E+02  0.70699016779E+02  0.47000000000E+01 0. -1.
         -5    1    4    4    0  502  0.27336624101E+02 -0.33460657810E+02  0.17595308301E+02  0.46889140668E+02  0.47000000000E+01 0.  1.
<mgrwt>
<rscale>  0 0.91805726E+02</rscale>
<asrwt>0</asrwt>
<pdfrwt beam="1">  1        1 0.17500297E-01 0.92163732E+02</pdfrwt>
<pdfrwt beam="2">  1       -1 0.12108311E-01 0.92163732E+02</pdfrwt>
<totfact> 0.12387861E+04</totfact>
</mgrwt>
</event>
<event>
 8    1  0.6396648E-004  0.9540953E+02  0.7546771E-02  0.1290655E+00
          4   -1    0    0  501    0  0.00000000000E+00  0.00000000000E+00  0.36121531235E+03  0.36121531235E+03  0.00000000000E+00 0. -1.
         -4   -1    0    0    0  501 -0.00000000000E+00 -0.00000000000E+00 -0.28468849254E+02  0.28468849254E+02  0.00000000000E+00 0.  1.
         23    2    1    2    0    0  0.19089955570E+02  0.16103998295E+02  0.23479414151E+03  0.25343888340E+03  0.92082645300E+02 0.  0.
         23    2    1    2    0    0 -0.19089955570E+02 -0.16103998295E+02  0.97952321585E+02  0.13624527821E+03  0.91347432175E+02 0.  0.
          5    1    4    4  502    0 -0.53842337054E+02  0.40090941516E+01  0.58815864131E+02  0.79977909256E+02  0.47000000000E+01 0. -1.
         -5    1    3    3    0  503 -0.11623091449E+02 -0.25942034433E+02  0.15756681361E+03  0.16017951229E+03  0.47000000000E+01 0.  1.
          5    1    3    3  503    0  0.30713047018E+02  0.42046032727E+02  0.77227327899E+02  0.93259371109E+02  0.47000000000E+01 0. -1.
         -5    1    4    4    0  502  0.34752381485E+02 -0.20113092446E+02  0.39136457454E+02  0.56267368951E+02  0.47000000000E+01 0.  1.
<mgrwt>
<rscale>  0 0.95231690E+02</rscale>
<asrwt>0</asrwt>
<pdfrwt beam="1">  1        4 0.55571583E-01 0.95409532E+02</pdfrwt>
<pdfrwt beam="2">  1       -4 0.43798232E-02 0.95409532E+02</pdfrwt>
<totfact> 0.13989428E+03</totfact>
</mgrwt>
</event>
<event>
 8    1  0.6396648E-004  0.1019889E+03  0.7546771E-02  0.1278486E+00
         -1   -1    0    0    0  501 -0.00000000000E+00  0.00000000000E+00  0.77308316909E+03  0.77308316909E+03  0.00000000000E+00 0.  1.
          1   -1    0    0  501    0  0.00000000000E+00 -0.00000000000E+00 -0.30002079175E+02  0.30002079175E+02  0.00000000000E+00 0. -1.
         23    2    1    2    0    0  0.37433858489E+02  0.27231899325E+02  0.64680101070E+02  0.11706073560E+03  0.85888475612E+02 0.  0.
         23    2    1    2    0    0 -0.37433858489E+02 -0.27231899325E+02  0.67840098885E+03  0.68602451267E+03  0.90878271374E+02 0.  0.
          5    1    4    4  502    0 -0.31845885858E+02  0.26833441885E+02  0.40991591308E+03  0.41205259354E+03  0.47000000000E+01 0. -1.
         -5    1    4    4    0  502 -0.55879726317E+01 -0.54065341210E+02  0.26848507577E+03  0.27397191913E+03  0.47000000000E+01 0.  1.
          5    1    3    3  503    0  0.30704338258E+02  0.52070234990E+02  0.67520060969E+02  0.90747531058E+02  0.47000000000E+01 0. -1.
         -5    1    3    3    0  503  0.67295202312E+01 -0.24838335665E+02 -0.28399598989E+01  0.26313204544E+02  0.47000000000E+01 0.  1.
<mgrwt>
<rscale>  0 0.10086547E+03</rscale>
<asrwt>0</asrwt>
<pdfrwt beam="1">  1        1 0.46157051E-02 0.10198887E+03</pdfrwt>
<pdfrwt beam="2">  1       -1 0.11893586E+00 0.10198887E+03</pdfrwt>
<totfact> 0.12177467E+03</totfact>
</mgrwt>
</event>
<event>
 8    1  0.6396648E-004  0.1203045E+03  0.7546771E-02  0.1244096E+00
          2   -1    0    0  501    0  0.00000000000E+00  0.00000000000E+00  0.14326014146E+03  0.14326014146E+03  0.00000000000E+00 0. -1.
         -2   -1    0    0    0  501 -0.00000000000E+00 -0.00000000000E+00 -0.10007988512E+03  0.10007988512E+03  0.00000000000E+00 0.  1.
         23    2    1    2    0    0 -0.25922848148E+01  0.75031543792E+02  0.39303730926E+02  0.12656201914E+03  0.94003770778E+02 0.  0.
         23    2    1    2    0    0  0.25922848148E+01 -0.75031543792E+02  0.38765254182E+01  0.11677800743E+03  0.89362313457E+02 0.  0.
          5    1    3    3  502    0  0.24495554707E+02  0.17663042142E+02  0.53284868029E+02  0.61427863539E+02  0.47000000000E+01 0. -1.
         -5    1    3    3    0  502 -0.27087839522E+02  0.57368501650E+02 -0.13981137103E+02  0.65134155604E+02  0.47000000000E+01 0.  1.
          5    1    4    4  503    0  0.22881048469E+02 -0.88517387298E+02  0.67761555919E+01  0.91798020227E+02  0.47000000000E+01 0. -1.
         -5    1    4    4    0  503 -0.20288763654E+02  0.13485843506E+02 -0.28996301736E+01  0.24979987206E+02  0.47000000000E+01 0.  1.
<mgrwt>
<rscale>  0 0.11939653E+03</rscale>
<asrwt>0</asrwt>
<pdfrwt beam="1">  1        2 0.22040022E-01 0.12030445E+03</pdfrwt>
<pdfrwt beam="2">  1       -2 0.15396905E-01 0.12030445E+03</pdfrwt>
<totfact> 0.76284639E+03</totfact>
</mgrwt>
</event>
<event>
 8    1  0.6396648E-004  0.9166664E+02  0.7546771E-02  0.1299078E+00
         -1   -1    0    0    0  501 -0.00000000000E+00  0.00000000000E+00  0.19759775410E+02  0.19759775410E+02  0.00000000000E+00 0.  1.
          1   -1    0    0  501    0  0.00000000000E+00 -0.00000000000E+00 -0.73853490143E+03  0.73853490143E+03  0.00000000000E+00 0. -1.
         23    2    1    2    0    0 -0.30809950456E+01  0.13785174297E+01 -0.11219559256E+03  0.14488141542E+03  0.91604479723E+02 0.  0.
         23    2    1    2    0    0  0.30809950456E+01 -0.13785174297E+01 -0.60657953347E+03  0.61341326142E+03  0.91245306858E+02 0.  0.
          5    1    3    3  502    0  0.11854220878E+02 -0.25152417571E+02 -0.11048532152E+03  0.11402746570E+03  0.47000000000E+01 0. -1.
         -5    1    3    3    0  502 -0.14935215923E+02  0.26530935000E+02 -0.17102710369E+01  0.30853949726E+02  0.47000000000E+01 0.  1.
          5    1    4    4  503    0  0.33395692589E+02 -0.32697648139E+02 -0.34548900831E+03  0.34866768324E+03  0.47000000000E+01 0. -1.
         -5    1    4    4    0  503 -0.30314697543E+02  0.31319130710E+02 -0.26109052516E+03  0.26474557818E+03  0.47000000000E+01 0.  1.
<mgrwt>
<rscale>  0 0.91576779E+02</rscale>
<asrwt>0</asrwt>
<pdfrwt beam="1">  1        1 0.11362073E+00 0.91666644E+02</pdfrwt>
<pdfrwt beam="2">  1       -1 0.30399660E-02 0.91666644E+02</pdfrwt>
<totfact> 0.90070335E+03</totfact>
</mgrwt>
</event>
<event>
 8    1  0.6396648E-004  0.1063870E+03  0.7546771E-02  0.1267583E+00
          1   -1    0    0  501    0  0.00000000000E+00  0.00000000000E+00  0.89404108706E+02  0.89404108706E+02  0.00000000000E+00 0. -1.
         -1   -1    0    0    0  501 -0.00000000000E+00 -0.00000000000E+00 -0.18351265097E+03  0.18351265097E+03  0.00000000000E+00 0.  1.
         23    2    1    2    0    0 -0.52557551831E+02  0.63557543985E+01 -0.12327696464E+03  0.16260362845E+03  0.91869680007E+02 0.  0.
         23    2    1    2    0    0  0.52557551831E+02 -0.63557543985E+01  0.29168422379E+02  0.11031313123E+03  0.92279457026E+02 0.  0.
          5    1    4    4  502    0  0.73935842054E+02 -0.59143715052E+01  0.60346499816E+00  0.74323231230E+02  0.47000000000E+01 0. -1.
         -5    1    3    3    0  503 -0.32926417267E+02 -0.38609497843E+02 -0.89037709123E+02  0.10258969697E+03  0.47000000000E+01 0.  1.
          5    1    3    3  503    0 -0.19631134563E+02  0.44965252242E+02 -0.34239255521E+02  0.60013931483E+02  0.47000000000E+01 0. -1.
         -5    1    4    4    0  502 -0.21378290223E+02 -0.44138289333E+00  0.28564957381E+02  0.35989899998E+02  0.47000000000E+01 0.  1.
<mgrwt>
<rscale>  0 0.10629806E+03</rscale>
<asrwt>0</asrwt>
<pdfrwt beam="1">  1        1 0.13754478E-01 0.10638698E+03</pdfrwt>
<pdfrwt beam="2">  1       -1 0.28232715E-01 0.10638698E+03</pdfrwt>
<totfact> 0.44610514E+03</totfact>
</mgrwt>
</event>
<event>
 8    1  0.6396648E-004  0.2722002E+03  0.7546771E-02  0.1100081E+00
         -1   -1    0    0    0  501 -0.00000000000E+00  0.00000000000E+00  0.78415152860E+02  0.78415152860E+02  0.00000000000E+00 0.  1.
          1   -1    0    0  501    0  0.00000000000E+00 -0.00000000000E+00 -0.10345450836E+04  0.10345450836E+04  0.00000000000E+00 0. -1.
         23    2    1    2    0    0  0.81026752945E+02  0.24239823652E+03 -0.31273746546E+03  0.41435676880E+03  0.92544960898E+02 0.  0.
         23    2    1    2    0    0 -0.81026752945E+02 -0.24239823652E+03 -0.64339246529E+03  0.69860346767E+03  0.93652020199E+02 0.  0.
          5    1    4    4  502    0 -0.62888339145E+02 -0.11247987165E+03 -0.42159052122E+03  0.44087109489E+03  0.47000000000E+01 0. -1.
         -5    1    4    4    0  502 -0.18138413799E+02 -0.12991836487E+03 -0.22180194407E+03  0.25773237278E+03  0.47000000000E+01 0.  1.
          5    1    3    3  503    0  0.39096505243E+02  0.29244728654E+02 -0.29021879418E+02  0.56992546541E+02  0.47000000000E+01 0. -1.
         -5    1    3    3    0  503  0.41930247702E+02  0.21315350787E+03 -0.28371558605E+03  0.35736422226E+03  0.47000000000E+01 0.  1.
<mgrwt>
<rscale>  0 0.27210541E+03</rscale>
<asrwt>0</asrwt>
<pdfrwt beam="1">  1        1 0.15916078E+00 0.27220018E+03</pdfrwt>
<pdfrwt beam="2">  1       -1 0.12063869E-01 0.27220018E+03</pdfrwt>
<totfact> 0.68651907E+02</totfact>
</mgrwt>
</event>
<event>
 8    1  0.6396648E-004  0.1005159E+03  0.7546771E-02  0.1279342E+00
          1   -1    0    0  501    0  0.00000000000E+00  0.00000000000E+00  0.19533412550E+03  0.19533412550E+03  0.00000000000E+00 0. -1.
         -1   -1    0    0    0  501 -0.00000000000E+00 -0.00000000000E+00 -0.52076579173E+02  0.52076579173E+02  0.00000000000E+00 0.  1.
         23    2    1    2    0    0  0.37794022119E+02 -0.17160540180E+02  0.59870621808E+02  0.11699548902E+03  0.91545512445E+02 0.  0.
         23    2    1    2    0    0 -0.37794022119E+02  0.17160540180E+02  0.83386924513E+02  0.13041521565E+03  0.91279116149E+02 0.  0.
          5    1    3    3  502    0  0.42567488386E+01 -0.46077904994E+02  0.56840398432E+01  0.46858206840E+02  0.47000000000E+01 0. -1.
         -5    1    3    3    0  502  0.33537273280E+02  0.28917364814E+02  0.54186581965E+02  0.70137282182E+02  0.47000000000E+01 0.  1.
          5    1    4    4  503    0 -0.12278730706E+02  0.40581204919E+02  0.85341084573E+02  0.95408553791E+02  0.47000000000E+01 0. -1.
         -5    1    4    4    0  503 -0.25515291413E+02 -0.23420664739E+02 -0.19541600592E+01  0.35006661855E+02  0.47000000000E+01 0.  1.
<mgrwt>
<rscale>  0 0.10045524E+03</rscale>
<asrwt>0</asrwt>
<pdfrwt beam="1">  1        1 0.30051404E-01 0.10051593E+03</pdfrwt>
<pdfrwt beam="2">  1       -1 0.80117815E-02 0.10051593E+03</pdfrwt>
<totfact> 0.11871650E+04</totfact>
</mgrwt>
</event>
<event>
 8    1  0.6396648E-004  0.1013625E+03  0.7546771E-02  0.1278064E+00
          1   -1    0    0  501    0  0.00000000000E+00  0.00000000000E+00  0.67011288335E+02  0.67011288335E+02  0.00000000000E+00 0. -1.
         -1   -1    0    0    0  501 -0.00000000000E+00 -0.00000000000E+00 -0.15236077455E+03  0.15236077455E+03  0.00000000000E+00 0.  1.
         23    2    1    2    0    0  0.22567842110E+02 -0.39156451149E+02 -0.50870035182E+02  0.11341124392E+03  0.90729348086E+02 0.  0.
         23    2    1    2    0    0 -0.22567842110E+02  0.39156451149E+02 -0.34479451029E+02  0.10596081896E+03  0.89422186551E+02 0.  0.
          5    1    4    4  502    0  0.26224382297E+02  0.30736321768E+02  0.69062826996E+01  0.41258047014E+02  0.47000000000E+01 0.  1.
         -5    1    3    3    0  503 -0.19816333723E+02  0.67586519544E+01 -0.45758056289E+02  0.50539649522E+02  0.47000000000E+01 0.  1.
          5    1    3    3  503    0  0.42384175833E+02 -0.45915103103E+02 -0.51119788936E+01  0.62871594399E+02  0.47000000000E+01 0. -1.
         -5    1    4    4    0  502 -0.48792224407E+02  0.84201293809E+01 -0.41385733729E+02  0.64702771947E+02  0.47000000000E+01 0. -1.
<mgrwt>
<rscale>  0 0.10106911E+03</rscale>
<asrwt>0</asrwt>
<pdfrwt beam="1">  1        1 0.10309429E-01 0.10136247E+03</pdfrwt>
<pdfrwt beam="2">  1       -1 0.23440119E-01 0.10136247E+03</pdfrwt>
<totfact> 0.87712272E+03</totfact>
</mgrwt>
</event>
<event>
 8    1  0.6396648E-004  0.1061437E+03  0.7546771E-02  0.1268702E+00
          1   -1    0    0  501    0  0.00000000000E+00  0.00000000000E+00  0.23199349001E+03  0.23199349001E+03  0.00000000000E+00 0. -1.
         -1   -1    0    0    0  501 -0.00000000000E+00 -0.00000000000E+00 -0.67407110009E+02  0.67407110009E+02  0.00000000000E+00 0.  1.
         23    2    1    2    0    0  0.50459819032E+02 -0.16809391371E+02  0.10971939304E+01  0.10447705074E+03  0.89919415717E+02 0.  0.
         23    2    1    2    0    0 -0.50459819032E+02  0.16809391371E+02  0.16348918607E+03  0.19492354927E+03  0.91857101654E+02 0.  0.
          5    1    4    4  502    0 -0.38241530515E+02 -0.51518714931E+01  0.16480048159E+03  0.16932290208E+03  0.47000000000E+01 0. -1.
         -5    1    4    4    0  502 -0.12218288517E+02  0.21961262864E+02 -0.13112955197E+01  0.25600647195E+02  0.47000000000E+01 0.  1.
          5    1    3    3  503    0  0.34297538074E+02 -0.40091124520E+01  0.44307182870E+02  0.56370298513E+02  0.47000000000E+01 0. -1.
         -5    1    3    3    0  503  0.16162280958E+02 -0.12800278919E+02 -0.43209988939E+02  0.48106752232E+02  0.47000000000E+01 0.  1.
<mgrwt>
<rscale>  0 0.10572307E+03</rscale>
<asrwt>0</asrwt>
<pdfrwt beam="1">  1        1 0.35691306E-01 0.10614366E+03</pdfrwt>
<pdfrwt beam="2">  1       -1 0.10370325E-01 0.10614366E+03</pdfrwt>
<totfact> 0.65411748E+03</totfact>
</mgrwt>
</event>
<event>
 8    1  0.6396648E-004  0.1277706E+03  0.7546771E-02  0.1234676E+00
         -1   -1    0    0    0  501 -0.00000000000E+00  0.00000000000E+00  0.46158382052E+03  0.46158382052E+03  0.00000000000E+00 0.  1.
          1   -1    0    0  501    0  0.00000000000E+00 -0.00000000000E+00 -0.32712425578E+02  0.32712425578E+02  0.00000000000E+00 0. -1.
         23    2    1    2    0    0 -0.54502570067E+02  0.38765588887E+02  0.22284378264E+03  0.25687481569E+03  0.10886697592E+03 0.  0.
         23    2    1    2    0    0  0.54502570067E+02 -0.38765588887E+02  0.20602761230E+03  0.23742143041E+03  0.97202147931E+02 0.  0.
          5    1    4    4  502    0  0.19590180817E+02 -0.44843944437E+02  0.19333434693E+03  0.19948687736E+03  0.47000000000E+01 0. -1.
         -5    1    4    4    0  502  0.34912389250E+02  0.60783555500E+01  0.12693265374E+02  0.37934553051E+02  0.47000000000E+01 0.  1.
          5    1    3    3  503    0 -0.13571977673E+02  0.21823884143E+02 -0.33466182999E+01  0.26339520707E+02  0.47000000000E+01 0. -1.
         -5    1    3    3    0  503 -0.40930592394E+02  0.16941704744E+02  0.22619040094E+03  0.23053529498E+03  0.47000000000E+01 0.  1.
<mgrwt>
<rscale>  0 0.12525184E+03</rscale>
<asrwt>0</asrwt>
<pdfrwt beam="1">  1        1 0.50326812E-02 0.12777057E+03</pdfrwt>
<pdfrwt beam="2">  1       -1 0.71012891E-01 0.12777057E+03</pdfrwt>
<totfact> 0.32934454E+03</totfact>
</mgrwt>
</event>
<event>
 8    1  0.6396648E-004  0.1499587E+03  0.7546771E-02  0.1200555E+00
         -3   -1    0    0    0  501 -0.00000000000E+00  0.00000000000E+00  0.27059416552E+02  0.27059416552E+02  0.00000000000E+00 0.  1.
          3   -1    0    0  501    0  0.00000000000E+00 -0.00000000000E+00 -0.86576984098E+03  0.86576984098E+03  0.00000000000E+00 0. -1.
         23    2    1    2    0    0  0.98043675434E+02 -0.67392180719E+02 -0.32937406030E+03  0.36190453649E+03  0.91287204024E+02 0.  0.
         23    2    1    2    0    0 -0.98043675434E+02  0.67392180719E+02 -0.50933636413E+03  0.53092472104E+03  0.91122221632E+02 0.  0.
          5    1    4    4  502    0 -0.67528760449E+02  0.24230496568E+02 -0.42670735023E+03  0.43272220095E+03  0.47000000000E+01 0. -1.
         -5    1    3    3    0  503  0.11909024980E+02 -0.43478901934E+02 -0.19671095684E+03  0.20186512906E+03  0.47000000000E+01 0.  1.
          5    1    3    3  503    0  0.86134650454E+02 -0.23913278785E+02 -0.13266310346E+03  0.16003940743E+03  0.47000000000E+01 0. -1.
         -5    1    4    4    0  502 -0.30514914985E+02  0.43161684151E+02 -0.82629013900E+02  0.98202520097E+02  0.47000000000E+01 0.  1.
<mgrwt>
<rscale>  0 0.14993363E+03</rscale>
<asrwt>0</asrwt>
<pdfrwt beam="1">  1        3 0.13319537E+00 0.14995873E+03</pdfrwt>
<pdfrwt beam="2">  1       -3 0.41629868E-02 0.14995873E+03</pdfrwt>
<totfact> 0.33208486E+02</totfact>
</mgrwt>
</event>
<event>
 8    1  0.6396648E-004  0.1235081E+03  0.7546771E-02  0.1237566E+00
         -2   -1    0    0    0  501 -0.00000000000E+00  0.00000000000E+00  0.13090114560E+02  0.13090114560E+02  0.00000000000E+00 0.  1.
          2   -1    0    0  501    0  0.00000000000E+00 -0.00000000000E+00 -0.11651191017E+04  0.11651191017E+04  0.00000000000E+00 0. -1.
         23    2    1    2    0    0 -0.51466503174E+02  0.66134608688E+02 -0.60631910738E+03  0.61869735147E+03  0.90227298143E+02 0.  0.
         23    2    1    2    0    0  0.51466503174E+02 -0.66134608688E+02 -0.54570987976E+03  0.55951186479E+03  0.90728532192E+02 0.  0.
          5    1    3    3  502    0  0.24976707278E+02  0.25519266172E+02 -0.15520163296E+03  0.15932578487E+03  0.47000000000E+01 0.  1.
         -5    1    3    3    0  502 -0.76443210452E+02  0.40615342516E+02 -0.45111747442E+03  0.45937156660E+03  0.47000000000E+01 0. -1.
          5    1    4    4  503    0 -0.11752537508E+02 -0.38982083842E+02 -0.34195597589E+03  0.34440340365E+03  0.47000000000E+01 0. -1.
         -5    1    4    4    0  503  0.63219040683E+02 -0.27152524846E+02 -0.20375390387E+03  0.21510846114E+03  0.47000000000E+01 0.  1.
<mgrwt>
<rscale>  0 0.12341608E+03</rscale>
<asrwt>0</asrwt>
<pdfrwt beam="1">  1        2 0.17924912E+00 0.12350811E+03</pdfrwt>
<pdfrwt beam="2">  1       -2 0.20138635E-02 0.12350811E+03</pdfrwt>
<totfact> 0.15305562E+04</totfact>
</mgrwt>
</event>
<event>
 8    1  0.6396648E-004  0.1019405E+03  0.7546771E-02  0.1278631E+00
          1   -1    0    0  501    0  0.00000000000E+00  0.00000000000E+00  0.13017791343E+03  0.13017791343E+03  0.00000000000E+00 0. -1.
         -1   -1    0    0    0  501 -0.00000000000E+00 -0.00000000000E+00 -0.76345606638E+02  0.76345606638E+02  0.00000000000E+00 0.  1.
         23    2    1    2    0    0 -0.77137267061E+01 -0.37402451910E+02  0.26983042271E+02  0.10110651122E+03  0.89643722882E+02 0.  0.
         23    2    1    2    0    0  0.77137267061E+01  0.37402451910E+02  0.26849264520E+02  0.10541700885E+03  0.94516759150E+02 0.  0.
          5    1    3    3  502    0 -0.33538370310E+02 -0.52524459461E+02  0.32301541556E+02  0.70349987289E+02  0.47000000000E+01 0. -1.
         -5    1    4    4    0  503  0.32705914682E+02 -0.14288381994E+02  0.31210196578E+02  0.47644528391E+02  0.47000000000E+01 0.  1.
          5    1    4    4  503    0 -0.24992187976E+02  0.51690833904E+02 -0.43609320581E+01  0.57772480455E+02  0.47000000000E+01 0. -1.
         -5    1    3    3    0  502  0.25824643603E+02  0.15122007551E+02 -0.53184992851E+01  0.30756523930E+02  0.47000000000E+01 0.  1.
<mgrwt>
<rscale>  0 0.10079609E+03</rscale>
<asrwt>0</asrwt>
<pdfrwt beam="1">  1        1 0.20027371E-01 0.10194049E+03</pdfrwt>
<pdfrwt beam="2">  1       -1 0.11745478E-01 0.10194049E+03</pdfrwt>
<totfact> 0.11048752E+04</totfact>
</mgrwt>
</event>
<event>
 8    1  0.6396648E-004  0.2177284E+03  0.7546771E-02  0.1137858E+00
          1   -1    0    0  501    0  0.00000000000E+00  0.00000000000E+00  0.23096927375E+03  0.23096927375E+03  0.00000000000E+00 0. -1.
         -1   -1    0    0    0  501 -0.00000000000E+00 -0.00000000000E+00 -0.28042316354E+03  0.28042316354E+03  0.00000000000E+00 0.  1.
         23    2    1    2    0    0  0.94462606828E+02 -0.15958158838E+03 -0.16678538434E+03  0.27426811822E+03  0.11408842539E+03 0.  0.
         23    2    1    2    0    0 -0.94462606828E+02  0.15958158838E+03  0.11733149455E+03  0.23712431906E+03  0.89843172464E+02 0.  0.
          5    1    4    4  502    0  0.58795007277E+01  0.72967136232E+02  0.44742576658E+02  0.85922986823E+02  0.47000000000E+01 0. -1.
         -5    1    4    4    0  502 -0.10034210756E+03  0.86614452145E+02  0.72588917893E+02  0.15120133224E+03  0.47000000000E+01 0.  1.
          5    1    3    3  503    0 -0.24252959316E+02 -0.50248512276E+02 -0.37011810518E+02  0.67119916115E+02  0.47000000000E+01 0. -1.
         -5    1    3    3    0  503  0.11871556614E+03 -0.10933307610E+03 -0.12977357382E+03  0.20714820211E+03  0.47000000000E+01 0.  1.
<mgrwt>
<rscale>  0 0.21475108E+03</rscale>
<asrwt>0</asrwt>
<pdfrwt beam="1">  1        1 0.35533734E-01 0.21772835E+03</pdfrwt>
<pdfrwt beam="2">  1       -1 0.43142025E-01 0.21772835E+03</pdfrwt>
<totfact> 0.65975348E+02</totfact>
</mgrwt>
</event>
<event>
 8    1  0.6396648E-004  0.1018177E+03  0.7546771E-02  0.1276700E+00
         -1   -1    0    0    0  501 -0.00000000000E+00  0.00000000000E+00  0.27101856487E+03  0.27101856487E+03  0.00000000000E+00 0.  1.
          1   -1    0    0  501    0  0.00000000000E+00 -0.00000000000E+00 -0.89683141614E+02  0.89683141614E+02  0.00000000000E+00 0. -1.
         23    2    1    2    0    0  0.22812223654E+01  0.43174495561E+02  0.22735324713E+03  0.24896768849E+03  0.91794171305E+02 0.  0.
         23    2    1    2    0    0 -0.22812223654E+01 -0.43174495561E+02 -0.46017823878E+02  0.11173401800E+03  0.92182480011E+02 0.  0.
          5    1    3    3  502    0 -0.29568256520E+02 -0.15555942220E+02  0.62432678058E+02  0.70966178011E+02  0.47000000000E+01 0. -1.
         -5    1    3    3    0  502  0.31849478886E+02  0.58730437781E+02  0.16492056907E+03  0.17800151047E+03  0.47000000000E+01 0.  1.
          5    1    4    4  503    0 -0.26006186325E+02 -0.56526900436E+02 -0.54484495067E+02  0.82838773547E+02  0.47000000000E+01 0. -1.
         -5    1    4    4    0  503  0.23724963960E+02  0.13352404874E+02  0.84666711892E+01  0.28895244450E+02  0.47000000000E+01 0.  1.
<mgrwt>
<rscale>  0 0.10172976E+03</rscale>
<asrwt>0</asrwt>
<pdfrwt beam="1">  1        1 0.13797407E-01 0.10181773E+03</pdfrwt>
<pdfrwt beam="2">  1       -1 0.41695164E-01 0.10181773E+03</pdfrwt>
<totfact> 0.22831579E+03</totfact>
</mgrwt>
</event>
<event>
 8    1  0.6396648E-004  0.9665669E+02  0.7546771E-02  0.1289183E+00
         -1   -1    0    0    0  501 -0.00000000000E+00  0.00000000000E+00  0.45594520224E+02  0.45594520224E+02  0.00000000000E+00 0.  1.
          1   -1    0    0  501    0  0.00000000000E+00 -0.00000000000E+00 -0.34808748325E+03  0.34808748325E+03  0.00000000000E+00 0. -1.
         23    2    1    2    0    0  0.19439809077E+02 -0.16198715555E+02 -0.20859142287E+02  0.95923503591E+02  0.90143830414E+02 0.  0.
         23    2    1    2    0    0 -0.19439809077E+02  0.16198715555E+02 -0.28163382073E+03  0.29775849988E+03  0.93285640407E+02 0.  0.
          5    1    4    4  502    0 -0.51490394991E+02 -0.79211233024E+01 -0.19933939175E+03  0.20608805903E+03  0.47000000000E+01 0. -1.
         -5    1    3    3    0  503  0.24887940974E+02  0.34212031414E+02 -0.68959211853E+01  0.43122110667E+02  0.47000000000E+01 0.  1.
          5    1    3    3  503    0 -0.54481318969E+01 -0.50410746969E+02 -0.13963221102E+02  0.52801392924E+02  0.47000000000E+01 0. -1.
         -5    1    4    4    0  502  0.32050585913E+02  0.24119838858E+02 -0.82294428980E+02  0.91670440847E+02  0.47000000000E+01 0.  1.
<mgrwt>
<rscale>  0 0.95890469E+02</rscale>
<asrwt>0</asrwt>
<pdfrwt beam="1">  1        1 0.53551919E-01 0.96656688E+02</pdfrwt>
<pdfrwt beam="2">  1       -1 0.70145418E-02 0.96656688E+02</pdfrwt>
<totfact> 0.71049181E+03</totfact>
</mgrwt>
</event>
<event>
 8    1  0.6396648E-004  0.1332379E+03  0.7546771E-02  0.1232394E+00
         -3   -1    0    0    0  501 -0.00000000000E+00  0.00000000000E+00  0.61307118293E+02  0.61307118293E+02  0.00000000000E+00 0.  1.
          3   -1    0    0  501    0  0.00000000000E+00 -0.00000000000E+00 -0.26512664186E+03  0.26512664186E+03  0.00000000000E+00 0. -1.
         23    2    1    2    0    0  0.45205180602E+02  0.22696252448E+02 -0.60456211740E+02  0.14631231684E+03  0.12326277740E+03 0.  0.
         23    2    1    2    0    0 -0.45205180602E+02 -0.22696252448E+02 -0.14336331183E+03  0.18012144331E+03  0.96602623851E+02 0.  0.
          5    1    4    4  502    0  0.68491772082E+01  0.20534703693E+02 -0.93101544425E+02  0.95700432907E+02  0.47000000000E+01 0. -1.
         -5    1    4    4    0  502 -0.52054357810E+02 -0.43230956140E+02 -0.50261767403E+02  0.84421010408E+02  0.47000000000E+01 0.  1.
          5    1    3    3  503    0  0.59369487092E+02 -0.14693060419E+02  0.12856357936E+02  0.62673742201E+02  0.47000000000E+01 0. -1.
         -5    1    3    3    0  503 -0.14164306490E+02  0.37389312867E+02 -0.73312569676E+02  0.83638574638E+02  0.47000000000E+01 0.  1.
<mgrwt>
<rscale>  0 0.12672776E+03</rscale>
<asrwt>0</asrwt>
<pdfrwt beam="1">  1        3 0.40788715E-01 0.13323791E+03</pdfrwt>
<pdfrwt beam="2">  1       -3 0.94318641E-02 0.13323791E+03</pdfrwt>
<totfact> 0.11172146E+03</totfact>
</mgrwt>
</event>
<event>
 8    1  0.6396648E-004  0.9984654E+02  0.7546771E-02  0.1285322E+00
         -1   -1    0    0    0  501 -0.00000000000E+00  0.00000000000E+00  0.62971601221E+02  0.62971601221E+02  0.00000000000E+00 0.  1.
          1   -1    0    0  501    0  0.00000000000E+00 -0.00000000000E+00 -0.14640792493E+03  0.14640792493E+03  0.00000000000E+00 0. -1.
         23    2    1    2    0    0  0.37921274575E+02 -0.63862929021E+01 -0.30029800899E+02  0.96147074494E+02  0.82847228012E+02 0.  0.
         23    2    1    2    0    0 -0.37921274575E+02  0.63862929021E+01 -0.53406522807E+02  0.11323245165E+03  0.92144037393E+02 0.  0.
          5    1    3    3  502    0  0.56355534780E+02  0.14595888997E+02 -0.33949303907E+02  0.67554655737E+02  0.47000000000E+01 0. -1.
         -5    1    3    3    0  502 -0.18434260205E+02 -0.20982181899E+02  0.39195030080E+01  0.28592418757E+02  0.47000000000E+01 0.  1.
          5    1    4    4  503    0 -0.45795488215E+02  0.39906514541E+02 -0.49034973621E+02  0.78206619168E+02  0.47000000000E+01 0. -1.
         -5    1    4    4    0  503  0.78742136399E+01 -0.33520221639E+02 -0.43715491860E+01  0.35025832487E+02  0.47000000000E+01 0.  1.
<mgrwt>
<rscale>  0 0.97647606E+02</rscale>
<asrwt>0</asrwt>
<pdfrwt beam="1">  1        1 0.22524296E-01 0.99846539E+02</pdfrwt>
<pdfrwt beam="2">  1       -1 0.96879388E-02 0.99846539E+02</pdfrwt>
<totfact> 0.12751148E+04</totfact>
</mgrwt>
</event>
<event>
 8    1  0.6396648E-004  0.1268904E+03  0.7546771E-02  0.1232363E+00
         -1   -1    0    0    0  501 -0.00000000000E+00  0.00000000000E+00  0.26280611269E+03  0.26280611269E+03  0.00000000000E+00 0.  1.
          1   -1    0    0  501    0  0.00000000000E+00 -0.00000000000E+00 -0.24720350700E+03  0.24720350700E+03  0.00000000000E+00 0. -1.
         23    2    1    2    0    0  0.88711474027E+02 -0.31092926267E+01  0.22912747328E+03  0.26191709051E+03  0.90673976231E+02 0.  0.
         23    2    1    2    0    0 -0.88711474027E+02  0.31092926267E+01 -0.21352486760E+03  0.24809252917E+03  0.89875695404E+02 0.  0.
          5    1    4    4  502    0 -0.76766665148E+02 -0.21587413599E+02 -0.20331612272E+03  0.21844604153E+03  0.47000000000E+01 0. -1.
         -5    1    3    3    0  503  0.43649438305E+02  0.37962098882E+02  0.15683512482E+03  0.16722960502E+03  0.47000000000E+01 0.  1.
          5    1    3    3  503    0  0.45062035722E+02 -0.41071391509E+02  0.72292348460E+02  0.94687485497E+02  0.47000000000E+01 0. -1.
         -5    1    4    4    0  502 -0.11944808879E+02  0.24696706226E+02 -0.10208744882E+02  0.29646487644E+02  0.47000000000E+01 0.  1.
<mgrwt>
<rscale>  0 0.12674782E+03</rscale>
<asrwt>0</asrwt>
<pdfrwt beam="1">  1        1 0.38031309E-01 0.12689036E+03</pdfrwt>
<pdfrwt beam="2">  1       -1 0.40431710E-01 0.12689036E+03</pdfrwt>
<totfact> 0.67830797E+02</totfact>
</mgrwt>
</event>
<event>
 8    1  0.6396648E-004  0.1144644E+03  0.7546771E-02  0.1258325E+00
          3   -1    0    0  501    0  0.00000000000E+00  0.00000000000E+00  0.38475070995E+02  0.38475070995E+02  0.00000000000E+00 0. -1.
         -3   -1    0    0    0  501 -0.00000000000E+00 -0.00000000000E+00 -0.32273623600E+03  0.32273623600E+03  0.00000000000E+00 0.  1.
         23    2    1    2    0    0 -0.22536716258E+02  0.43189298863E+02 -0.19263124982E+03  0.22407339887E+03  0.10358026143E+03 0.  0.
         23    2    1    2    0    0  0.22536716258E+02 -0.43189298863E+02 -0.91629915184E+02  0.13713790812E+03  0.89652358432E+02 0.  0.
          5    1    3    3  502    0  0.38644804252E+02  0.38736349094E+01 -0.46422794294E+02  0.60709074883E+02  0.47000000000E+01 0. -1.
         -5    1    4    4    0  503 -0.21814517010E+02  0.16222825382E+02 -0.21519434928E+02  0.34988988202E+02  0.47000000000E+01 0.  1.
          5    1    4    4  503    0  0.44351233269E+02 -0.59412124245E+02 -0.70110480255E+02  0.10214891992E+03  0.47000000000E+01 0. -1.
         -5    1    3    3    0  502 -0.61181520511E+02  0.39315663954E+02 -0.14620845553E+03  0.16336432399E+03  0.47000000000E+01 0.  1.
<mgrwt>
<rscale>  0 0.11122132E+03</rscale>
<asrwt>0</asrwt>
<pdfrwt beam="1">  1        3 0.59192416E-02 0.11446436E+03</pdfrwt>
<pdfrwt beam="2">  1       -3 0.49651730E-01 0.11446436E+03</pdfrwt>
<totfact> 0.15721784E+03</totfact>
</mgrwt>
</event>
<event>
 8    1  0.6396648E-004  0.1150244E+03  0.7546771E-02  0.1252196E+00
          1   -1    0    0  501    0  0.00000000000E+00  0.00000000000E+00  0.70303039103E+02  0.70303039103E+02  0.00000000000E+00 0. -1.
         -1   -1    0    0    0  501 -0.00000000000E+00 -0.00000000000E+00 -0.27301756184E+03  0.27301756184E+03  0.00000000000E+00 0.  1.
         23    2    1    2    0    0 -0.42099696641E+02  0.55381232100E+02 -0.38586013559E+01  0.11359405563E+03  0.89717642329E+02 0.  0.
         23    2    1    2    0    0  0.42099696641E+02 -0.55381232100E+02 -0.19885592138E+03  0.22972654531E+03  0.91603181306E+02 0.  0.
          5    1    3    3  502    0 -0.46552173954E+01 -0.21825282797E+02  0.12660893087E+02  0.26084520925E+02  0.47000000000E+01 0. -1.
         -5    1    4    4    0  503  0.85846350138E+01 -0.18987956370E+02  0.32432454619E+01  0.21606644500E+02  0.47000000000E+01 0.  1.
          5    1    4    4  503    0  0.33515061627E+02 -0.36393275730E+02 -0.20209916684E+03  0.20811990081E+03  0.47000000000E+01 0. -1.
         -5    1    3    3    0  502 -0.37444479245E+02  0.77206514896E+02 -0.16519494443E+02  0.87509534709E+02  0.47000000000E+01 0.  1.
<mgrwt>
<rscale>  0 0.11464857E+03</rscale>
<asrwt>0</asrwt>
<pdfrwt beam="1">  1        1 0.10815852E-01 0.11502438E+03</pdfrwt>
<pdfrwt beam="2">  1       -1 0.42002702E-01 0.11502438E+03</pdfrwt>
<totfact> 0.31149995E+03</totfact>
</mgrwt>
</event>
<event>
 8    1  0.6396648E-004  0.8752655E+02  0.7546771E-02  0.1309666E+00
         -2   -1    0    0    0  501 -0.00000000000E+00  0.00000000000E+00  0.31907776503E+02  0.31907776503E+02  0.00000000000E+00 0.  1.
          2   -1    0    0  501    0  0.00000000000E+00 -0.00000000000E+00 -0.24393060063E+03  0.24393060063E+03  0.00000000000E+00 0. -1.
         23    2    1    2    0    0 -0.12298066019E+02 -0.11488802107E+02 -0.83468510221E+02  0.12094580885E+03  0.85893314514E+02 0.  0.
         23    2    1    2    0    0  0.12298066019E+02  0.11488802107E+02 -0.12855431391E+03  0.15489256829E+03  0.84748221715E+02 0.  0.
          5    1    3    3  502    0  0.33659930547E-01  0.29775496948E+02 -0.68955258192E+02  0.75256222226E+02  0.47000000000E+01 0. -1.
         -5    1    3    3    0  502 -0.12331725949E+02 -0.41264299055E+02 -0.14513252030E+02  0.45689586624E+02  0.47000000000E+01 0.  1.
          5    1    4    4  503    0 -0.25238288346E+02  0.33631213281E+02 -0.57144120210E+02  0.71102532866E+02  0.47000000000E+01 0. -1.
         -5    1    4    4    0  503  0.37536354364E+02 -0.22142411174E+02 -0.71410193701E+02  0.83790035422E+02  0.47000000000E+01 0.  1.
<mgrwt>
<rscale>  0 0.87244324E+02</rscale>
<asrwt>0</asrwt>
<pdfrwt beam="1">  1        2 0.37527783E-01 0.87526547E+02</pdfrwt>
<pdfrwt beam="2">  1       -2 0.49088889E-02 0.87526547E+02</pdfrwt>
<totfact> 0.24448815E+04</totfact>
</mgrwt>
</event>
<event>
 8    1  0.6396648E-004  0.9621057E+02  0.7546771E-02  0.1289537E+00
         -1   -1    0    0    0  501 -0.00000000000E+00  0.00000000000E+00  0.12313583806E+03  0.12313583806E+03  0.00000000000E+00 0.  1.
          1   -1    0    0  501    0  0.00000000000E+00 -0.00000000000E+00 -0.17081331052E+03  0.17081331052E+03  0.00000000000E+00 0. -1.
         23    2    1    2    0    0  0.58591967229E+01  0.20355201987E+02  0.87085824033E+02  0.12836648210E+03  0.91898577491E+02 0.  0.
         23    2    1    2    0    0 -0.58591967229E+01 -0.20355201987E+02 -0.13476329649E+03  0.16558266649E+03  0.93849927678E+02 0.  0.
          5    1    4    4  502    0  0.15404131326E+02  0.30708828290E+02 -0.81845732179E+02  0.88888319102E+02  0.47000000000E+01 0. -1.
         -5    1    4    4    0  502 -0.21263328049E+02 -0.51064030277E+02 -0.52917564313E+02  0.76694347384E+02  0.47000000000E+01 0.  1.
          5    1    3    3  503    0  0.24042504691E+02 -0.16160485308E+02  0.81873646813E+02  0.86974636300E+02  0.47000000000E+01 0. -1.
         -5    1    3    3    0  503 -0.18183307968E+02  0.36515687295E+02  0.52121772205E+01  0.41391845799E+02  0.47000000000E+01 0.  1.
<mgrwt>
<rscale>  0 0.95731376E+02</rscale>
<asrwt>0</asrwt>
<pdfrwt beam="1">  1        1 0.26278971E-01 0.96210568E+02</pdfrwt>
<pdfrwt beam="2">  1       -1 0.18943975E-01 0.96210568E+02</pdfrwt>
<totfact> 0.37272047E+03</totfact>
</mgrwt>
</event>
<event>
 7    1  0.6396648E-004  0.1500029E+03  0.7546771E-02  0.1217732E+00
          2   -1    0    0  501    0  0.00000000000E+00  0.00000000000E+00  0.33156318543E+03  0.33156318543E+03  0.00000000000E+00 0. -1.
         -2   -1    0    0    0  501 -0.00000000000E+00 -0.00000000000E+00 -0.49473511696E+02  0.49473511696E+02  0.00000000000E+00 0.  1.
         23    2    1    2    0    0 -0.46401473009E+02 -0.13620591511E+02  0.14166901418E+03  0.17556449918E+03  0.91728766393E+02 0.  0.
          5    1    3    3  502    0 -0.16642186444E+02 -0.49600331643E+02  0.49697866136E+02  0.72312676393E+02  0.47000000000E+01 0. -1.
         -5    1    3    3    0  502 -0.29759286564E+02  0.35979740131E+02  0.91971148042E+02  0.10325182279E+03  0.47000000000E+01 0.  1.
          5    1    1    2  503    0  0.28233305905E+02 -0.23709369941E+01  0.16686406928E+03  0.16931759661E+03  0.47000000000E+01 0. -1.
         -5    1    1    2    0  503  0.18168167104E+02  0.15991528505E+02 -0.26443409725E+02  0.36154601336E+02  0.47000000000E+01 0.  1.
<mgrwt>
<rscale>  0 0.13677754E+03</rscale>
<asrwt>0</asrwt>
<pdfrwt beam="1">  1        2 0.51009719E-01 0.15000287E+03</pdfrwt>
<pdfrwt beam="2">  1       -2 0.76113097E-02 0.15000287E+03</pdfrwt>
<totfact> 0.95714791E+03</totfact>
</mgrwt>
</event>
<event>
 7    1  0.6396648E-004  0.1800798E+03  0.7546771E-02  0.1175398E+00
          3   -1    0    0  501    0  0.00000000000E+00  0.00000000000E+00  0.17974914872E+03  0.17974914872E+03  0.00000000000E+00 0. -1.
         -3   -1    0    0    0  501 -0.00000000000E+00 -0.00000000000E+00 -0.15264370649E+03  0.15264370649E+03  0.00000000000E+00 0.  1.
         23    2    1    2    0    0  0.11204401991E+03  0.45807187295E+02  0.14902899058E+02  0.15190007422E+03  0.90550402212E+02 0.  0.
          5    1    1    2  502    0  0.24085274249E+02  0.15645684845E+02  0.10837288583E+02  0.31055188194E+02  0.47000000000E+01 0. -1.
         -5    1    1    2    0  502 -0.13612929416E+03 -0.61452872140E+02  0.13652545851E+01  0.14943759280E+03  0.47000000000E+01 0.  1.
          5    1    3    3  503    0  0.33972495818E+02  0.93833990063E+01  0.47790027165E+02  0.59566394430E+02  0.47000000000E+01 0. -1.
         -5    1    3    3    0  503  0.78071524095E+02  0.36423788289E+02 -0.32887128107E+02  0.92333679787E+02  0.47000000000E+01 0.  1.
<mgrwt>
<rscale>  0 0.17237061E+03</rscale>
<asrwt>0</asrwt>
<pdfrwt beam="1">  1        3 0.27653715E-01 0.18007982E+03</pdfrwt>
<pdfrwt beam="2">  1       -3 0.23483647E-01 0.18007982E+03</pdfrwt>
<totfact> 0.50643554E+02</totfact>
</mgrwt>
</event>
<event>
 8    1  0.6396648E-004  0.9060899E+02  0.7546771E-02  0.1302245E+00
         -2   -1    0    0    0  501 -0.00000000000E+00  0.00000000000E+00  0.53829102323E+02  0.53829102323E+02  0.00000000000E+00 0.  1.
          2   -1    0    0  501    0  0.00000000000E+00 -0.00000000000E+00 -0.15040079222E+03  0.15040079222E+03  0.00000000000E+00 0. -1.
         23    2    1    2    0    0 -0.16289076119E+01 -0.87746590891E+01 -0.52206045244E+02  0.10334233595E+03  0.88738488032E+02 0.  0.
         23    2    1    2    0    0  0.16289076119E+01  0.87746590891E+01 -0.44365644649E+02  0.10088755858E+03  0.90168403945E+02 0.  0.
          5    1    4    4  502    0 -0.12979930218E+02  0.33166259493E+02 -0.58608382404E+02  0.68742358449E+02  0.47000000000E+01 0. -1.
         -5    1    3    3    0  503  0.24021538928E+00 -0.47402290979E+02 -0.40880372629E+02  0.62772046006E+02  0.47000000000E+01 0.  1.
          5    1    3    3  503    0 -0.18691230012E+01  0.38627631890E+02 -0.11325672614E+02  0.40570289947E+02  0.47000000000E+01 0. -1.
         -5    1    4    4    0  502  0.14608837830E+02 -0.24391600404E+02  0.14242737755E+02  0.32145200135E+02  0.47000000000E+01 0.  1.
<mgrwt>
<rscale>  0 0.90251163E+02</rscale>
<asrwt>0</asrwt>
<pdfrwt beam="1">  1        2 0.23138583E-01 0.90608990E+02</pdfrwt>
<pdfrwt beam="2">  1       -2 0.82814005E-02 0.90608990E+02</pdfrwt>
<totfact> 0.18754865E+04</totfact>
</mgrwt>
</event>
<event>
 8    1  0.6396648E-004  0.9019975E+02  0.7546771E-02  0.1303716E+00
          2   -1    0    0  501    0  0.00000000000E+00  0.00000000000E+00  0.10347644214E+03  0.10347644214E+03  0.00000000000E+00 0. -1.
         -2   -1    0    0    0  501 -0.00000000000E+00 -0.00000000000E+00 -0.24410767190E+03  0.24410767190E+03  0.00000000000E+00 0.  1.
         23    2    1    2    0    0 -0.80185568096E+01 -0.10586956190E+02 -0.21395293996E+03  0.23134269039E+03  0.86989648714E+02 0.  0.
         23    2    1    2    0    0  0.80185568096E+01  0.10586956190E+02  0.73321710208E+02  0.11624142365E+03  0.89216671591E+02 0.  0.
          5    1    3    3  502    0 -0.30663185895E+02  0.20078518859E+02 -0.45745422979E+02  0.58805710712E+02  0.47000000000E+01 0. -1.
         -5    1    4    4    0  503  0.79567774584E+01 -0.38027029755E+02  0.20057118152E+02  0.43974348069E+02  0.47000000000E+01 0.  1.
          5    1    4    4  503    0  0.61779351177E-01  0.48613985945E+02  0.53264592057E+02  0.72267075582E+02  0.47000000000E+01 0. -1.
         -5    1    3    3    0  502  0.22644629086E+02 -0.30665475049E+02 -0.16820751698E+03  0.17253697968E+03  0.47000000000E+01 0.  1.
<mgrwt>
<rscale>  0 0.89644104E+02</rscale>
<asrwt>0</asrwt>
<pdfrwt beam="1">  1        2 0.15919453E-01 0.90199753E+02</pdfrwt>
<pdfrwt beam="2">  1       -2 0.37555026E-01 0.90199753E+02</pdfrwt>
<totfact> 0.23070516E+03</totfact>
</mgrwt>
</event>
<event>
 8    1  0.6396648E-004  0.9474510E+02  0.7546771E-02  0.1293093E+00
         -2   -1    0    0    0  501 -0.00000000000E+00  0.00000000000E+00  0.42994969361E+03  0.42994969361E+03  0.00000000000E+00 0. -1.
          2   -1    0    0  501    0  0.00000000000E+00 -0.00000000000E+00 -0.54474745145E+02  0.54474745145E+02  0.00000000000E+00 0.  1.
         23    2    1    2    0    0 -0.25946074962E+02  0.23666605914E+01  0.38027159140E+03  0.39189682056E+03  0.91092452211E+02 0.  0.
         23    2    1    2    0    0  0.25946074962E+02 -0.23666605914E+01 -0.47966429359E+01  0.92527618195E+02  0.88654116978E+02 0.  0.
          5    1    4    4  502    0 -0.39546022799E+01  0.36421261572E+02 -0.18701718136E+02  0.41400379647E+02  0.47000000000E+01 0. -1.
         -5    1    4    4    0  502  0.29900677242E+02 -0.38787922163E+02  0.13905075200E+02  0.51127238548E+02  0.47000000000E+01 0.  1.
          5    1    3    3  503    0 -0.48260490026E+02  0.27158032310E+02  0.29544820188E+03  0.30062994464E+03  0.47000000000E+01 0. -1.
         -5    1    3    3    0  503  0.22314415064E+02 -0.24791371719E+02  0.84823389518E+02  0.91266875922E+02  0.47000000000E+01 0.  1.
<mgrwt>
<rscale>  0 0.94154123E+02</rscale>
<asrwt>0</asrwt>
<pdfrwt beam="1">  1        2 0.83807303E-02 0.94745104E+02</pdfrwt>
<pdfrwt beam="2">  1       -2 0.66146104E-01 0.94745104E+02</pdfrwt>
<totfact> 0.16365760E+03</totfact>
</mgrwt>
</event>
<event>
 8    1  0.6396648E-004  0.1026183E+03  0.7546771E-02  0.1276523E+00
          1   -1    0    0  501    0  0.00000000000E+00  0.00000000000E+00  0.78991233147E+03  0.78991233147E+03  0.00000000000E+00 0. -1.
         -1   -1    0    0    0  501 -0.00000000000E+00 -0.00000000000E+00 -0.13004276001E+02  0.13004276001E+02  0.00000000000E+00 0.  1.
         23    2    1    2    0    0 -0.18503816107E+02 -0.42466255845E+02  0.36265726730E+03  0.37689629699E+03  0.91568286319E+02 0.  0.
         23    2    1    2    0    0  0.18503816107E+02  0.42466255845E+02  0.41425078817E+03  0.42602031049E+03  0.87998950857E+02 0.  0.
          5    1    3    3  502    0 -0.47204188643E+02 -0.28517562416E+02  0.31178938985E+03  0.31666417608E+03  0.47000000000E+01 0. -1.
         -5    1    3    3    0  502  0.28700372536E+02 -0.13948693429E+02  0.50867877456E+02  0.60232120908E+02  0.47000000000E+01 0.  1.
          5    1    4    4  503    0 -0.30075792083E+02 -0.36554041169E+01  0.96579529795E+02  0.10132921999E+03  0.47000000000E+01 0. -1.
         -5    1    4    4    0  503  0.48579608190E+02  0.46121659962E+02  0.31767125838E+03  0.32469109050E+03  0.47000000000E+01 0.  1.
<mgrwt>
<rscale>  0 0.10181600E+03</rscale>
<asrwt>0</asrwt>
<pdfrwt beam="1">  1        1 0.12152494E+00 0.10261835E+03</pdfrwt>
<pdfrwt beam="2">  1       -1 0.20006585E-02 0.10261835E+03</pdfrwt>
<totfact> 0.15020409E+04</totfact>
</mgrwt>
</event>
<event>
 8    1  0.6396648E-004  0.9400400E+02  0.7546771E-02  0.1293535E+00
         -2   -1    0    0    0  501 -0.00000000000E+00  0.00000000000E+00  0.10506349529E+03  0.10506349529E+03  0.00000000000E+00 0. -1.
          2   -1    0    0  501    0  0.00000000000E+00 -0.00000000000E+00 -0.10266266676E+03  0.10266266676E+03  0.00000000000E+00 0.  1.
         23    2    1    2    0    0  0.21720107212E+02 -0.70442877001E+00 -0.43137669791E+02  0.10342925318E+03  0.91457599914E+02 0.  0.
         23    2    1    2    0    0 -0.21720107212E+02  0.70442877001E+00  0.45538498323E+02  0.10429690887E+03  0.91278864439E+02 0.  0.
          5    1    4    4  502    0  0.18182479747E+02  0.31323762824E+02  0.38881114529E+02  0.53344275740E+02  0.47000000000E+01 0. -1.
         -5    1    3    3    0  503 -0.37169086491E+01 -0.42624670341E+02 -0.29941493566E+02  0.52433395546E+02  0.47000000000E+01 0.  1.
          5    1    3    3  503    0  0.25437015861E+02  0.41920241571E+02 -0.13196176226E+02  0.50995857638E+02  0.47000000000E+01 0. -1.
         -5    1    4    4    0  502 -0.39902586959E+02 -0.30619334054E+02  0.66573837938E+01  0.50952633130E+02  0.47000000000E+01 0.  1.
<mgrwt>
<rscale>  0 0.93960498E+02</rscale>
<asrwt>0</asrwt>
<pdfrwt beam="1">  1        2 0.15794256E-01 0.94003999E+02</pdfrwt>
<pdfrwt beam="2">  1       -2 0.16163615E-01 0.94003999E+02</pdfrwt>
<totfact> 0.10062585E+04</totfact>
</mgrwt>
</event>
<event>
 8    1  0.6396648E-004  0.1084446E+03  0.7546771E-02  0.1265716E+00
          1   -1    0    0  501    0  0.00000000000E+00  0.00000000000E+00  0.11711415985E+03  0.11711415985E+03  0.00000000000E+00 0. -1.
         -1   -1    0    0    0  501 -0.00000000000E+00 -0.00000000000E+00 -0.18100907768E+03  0.18100907768E+03  0.00000000000E+00 0.  1.
         23    2    1    2    0    0  0.29628633471E+02  0.48994012175E+02 -0.13361332348E+03  0.16920117980E+03  0.86592435488E+02 0.  0.
         23    2    1    2    0    0 -0.29628633471E+02 -0.48994012175E+02  0.69718405651E+02  0.12892205773E+03  0.92097620667E+02 0.  0.
          5    1    3    3  502    0 -0.27666871258E+02  0.45135749463E+01 -0.56399330203E+02  0.63156967718E+02  0.47000000000E+01 0. -1.
         -5    1    3    3    0  502  0.57295504729E+02  0.44480437228E+02 -0.77213993281E+02  0.10604421208E+03  0.47000000000E+01 0.  1.
          5    1    4    4  503    0 -0.40493282403E+02  0.11159894674E+02  0.47820250830E+02  0.63820964881E+02  0.47000000000E+01 0. -1.
         -5    1    4    4    0  503  0.10864648932E+02 -0.60153906849E+02  0.21898154821E+02  0.65101092849E+02  0.47000000000E+01 0.  1.
<mgrwt>
<rscale>  0 0.10726694E+03</rscale>
<asrwt>0</asrwt>
<pdfrwt beam="1">  1        1 0.18017563E-01 0.10844464E+03</pdfrwt>
<pdfrwt beam="2">  1       -1 0.27847550E-01 0.10844464E+03</pdfrwt>
<totfact> 0.32328904E+03</totfact>
</mgrwt>
</event>
<event>
 8    1  0.6396648E-004  0.1403085E+03  0.7546771E-02  0.1213821E+00
          4   -1    0    0  501    0  0.00000000000E+00  0.00000000000E+00  0.18839217239E+02  0.18839217239E+02  0.00000000000E+00 0. -1.
         -4   -1    0    0    0  501 -0.00000000000E+00 -0.00000000000E+00 -0.10695571505E+04  0.10695571505E+04  0.00000000000E+00 0.  1.
         23    2    1    2    0    0  0.55798358676E+02 -0.90244083648E+02 -0.40963553100E+03  0.43213946753E+03  0.87668692688E+02 0.  0.
         23    2    1    2    0    0 -0.55798358676E+02  0.90244083648E+02 -0.64108240223E+03  0.65625690017E+03  0.91809700546E+02 0.  0.
          5    1    3    3  502    0  0.48003710862E+02 -0.71916170640E+01 -0.21260835121E+03  0.21812949506E+03  0.47000000000E+01 0. -1.
         -5    1    4    4    0  503 -0.24045241918E+02  0.10223382840E+03 -0.51366153951E+03  0.52430925655E+03  0.47000000000E+01 0.  1.
          5    1    4    4  503    0 -0.31753116758E+02 -0.11989744751E+02 -0.12742086272E+03  0.13194764362E+03  0.47000000000E+01 0. -1.
         -5    1    3    3    0  502  0.77946478142E+01 -0.83052466584E+02 -0.19702717979E+03  0.21400997247E+03  0.47000000000E+01 0.  1.
<mgrwt>
<rscale>  0 0.13963516E+03</rscale>
<asrwt>0</asrwt>
<pdfrwt beam="1">  1        4 0.28983408E-02 0.14030849E+03</pdfrwt>
<pdfrwt beam="2">  1       -4 0.16454727E+00 0.14030849E+03</pdfrwt>
<totfact> 0.23964750E+02</totfact>
</mgrwt>
</event>
<event>
 8    1  0.6396648E-004  0.1242184E+03  0.7546771E-02  0.1237553E+00
          1   -1    0    0  501    0  0.00000000000E+00  0.00000000000E+00  0.14105804589E+04  0.14105804589E+04  0.00000000000E+00 0. -1.
         -1   -1    0    0    0  501 -0.00000000000E+00 -0.00000000000E+00 -0.12169804479E+02  0.12169804479E+02  0.00000000000E+00 0.  1.
         23    2    1    2    0    0  0.44300194022E+02  0.69169964661E+02  0.44109521434E+03  0.45740935780E+03  0.88945720979E+02 0.  0.
         23    2    1    2    0    0 -0.44300194022E+02 -0.69169964661E+02  0.95731544003E+03  0.96534090554E+03  0.93183802140E+02 0.  0.
          5    1    4    4  502    0 -0.56470743287E+02 -0.85769498496E+02  0.76707485688E+03  0.77393234703E+03  0.47000000000E+01 0. -1.
         -5    1    4    4    0  502  0.12170549265E+02  0.16599533835E+02  0.19024058315E+03  0.19140855851E+03  0.47000000000E+01 0.  1.
          5    1    3    3  503    0  0.53761206596E+02  0.35291798706E+02  0.38941955622E+03  0.39472200237E+03  0.47000000000E+01 0. -1.
         -5    1    3    3    0  503 -0.94610125743E+01  0.33878165955E+02  0.51675658125E+02  0.62687355424E+02  0.47000000000E+01 0.  1.
<mgrwt>
<rscale>  0 0.12342412E+03</rscale>
<asrwt>0</asrwt>
<pdfrwt beam="1">  1        1 0.21701225E+00 0.12421841E+03</pdfrwt>
<pdfrwt beam="2">  1       -1 0.18722787E-02 0.12421841E+03</pdfrwt>
<totfact> 0.60520631E+03</totfact>
</mgrwt>
</event>
<event>
 8    1  0.6396648E-004  0.1101884E+03  0.7546771E-02  0.1261097E+00
          1   -1    0    0  501    0  0.00000000000E+00  0.00000000000E+00  0.12418525571E+04  0.12418525571E+04  0.00000000000E+00 0. -1.
         -1   -1    0    0    0  501 -0.00000000000E+00 -0.00000000000E+00 -0.97897020045E+01  0.97897020045E+01  0.00000000000E+00 0.  1.
         23    2    1    2    0    0  0.54215302944E+02 -0.30594559723E+02  0.53667271106E+03  0.54786775868E+03  0.90918403261E+02 0.  0.
         23    2    1    2    0    0 -0.54215302944E+02  0.30594559723E+02  0.69539014404E+03  0.70377450043E+03  0.88632775325E+02 0.  0.
          5    1    3    3  502    0 -0.22443135500E+02  0.65287804472E+01  0.15128812406E+03  0.15315516898E+03  0.47000000000E+01 0. -1.
         -5    1    4    4    0  503 -0.36551621010E+02 -0.28413349309E+02  0.30088493635E+03  0.30446210658E+03  0.47000000000E+01 0.  1.
          5    1    4    4  503    0 -0.17663681934E+02  0.59007909031E+02  0.39450520769E+03  0.39931239385E+03  0.47000000000E+01 0. -1.
         -5    1    3    3    0  502  0.76658438445E+02 -0.37123340170E+02  0.38538458700E+03  0.39471258970E+03  0.47000000000E+01 0.  1.
<mgrwt>
<rscale>  0 0.10971581E+03</rscale>
<asrwt>0</asrwt>
<pdfrwt beam="1">  1        1 0.19105411E+00 0.11018839E+03</pdfrwt>
<pdfrwt beam="2">  1       -1 0.15061090E-02 0.11018839E+03</pdfrwt>
<totfact> 0.10625023E+04</totfact>
</mgrwt>
</event>
<event>
 8    1  0.6396648E-004  0.9111940E+02  0.7546771E-02  0.1300788E+00
          2   -1    0    0  501    0  0.00000000000E+00  0.00000000000E+00  0.18432816498E+02  0.18432816498E+02  0.00000000000E+00 0. -1.
         -2   -1    0    0    0  501 -0.00000000000E+00 -0.00000000000E+00 -0.70661610422E+03  0.70661610422E+03  0.00000000000E+00 0.  1.
         23    2    1    2    0    0  0.37089507497E+00  0.37476861277E+01 -0.56579834947E+03  0.57308857781E+03  0.91041545672E+02 0.  0.
         23    2    1    2    0    0 -0.37089507497E+00 -0.37476861277E+01 -0.12238493825E+03  0.15196034291E+03  0.89998277714E+02 0.  0.
          5    1    3    3  502    0  0.43241240733E+02 -0.75115170625E+01 -0.21616570108E+03  0.22062621810E+03  0.47000000000E+01 0. -1.
         -5    1    3    3    0  502 -0.42870345658E+02  0.11259203190E+02 -0.34963264839E+03  0.35246235971E+03  0.47000000000E+01 0.  1.
          5    1    4    4  503    0 -0.12680875654E+02 -0.21331454115E+02  0.22929099888E+01  0.25361052388E+02  0.47000000000E+01 0. -1.
         -5    1    4    4    0  503  0.12309980579E+02  0.17583767987E+02 -0.12467784824E+03  0.12659929052E+03  0.47000000000E+01 0.  1.
<mgrwt>
<rscale>  0 0.90857687E+02</rscale>
<asrwt>0</asrwt>
<pdfrwt beam="1">  1        2 0.28358174E-02 0.91119404E+02</pdfrwt>
<pdfrwt beam="2">  1       -2 0.10871019E+00 0.91119404E+02</pdfrwt>
<totfact> 0.22097370E+03</totfact>
</mgrwt>
</event>
<event>
 8    1  0.6396648E-004  0.1137432E+03  0.7546771E-02  0.1254403E+00
         -3   -1    0    0    0  501 -0.00000000000E+00  0.00000000000E+00  0.99721304237E+02  0.99721304237E+02  0.00000000000E+00 0.  1.
          3   -1    0    0  501    0  0.00000000000E+00 -0.00000000000E+00 -0.16355563418E+03  0.16355563418E+03  0.00000000000E+00 0. -1.
         23    2    1    2    0    0  0.56523402503E+02  0.32246165360E+02 -0.92989999373E+02  0.14585644658E+03  0.91609239784E+02 0.  0.
         23    2    1    2    0    0 -0.56523402503E+02 -0.32246165360E+02  0.29155669425E+02  0.11742049184E+03  0.93288845178E+02 0.  0.
          5    1    3    3  502    0  0.81746913346E+02  0.26421221908E+02 -0.72372384699E+02  0.11242993763E+03  0.47000000000E+01 0. -1.
         -5    1    4    4    0  503 -0.25529670257E+02 -0.24113975617E+02  0.61927269618E+02  0.71346510817E+02  0.47000000000E+01 0.  1.
          5    1    4    4  503    0 -0.30993732245E+02 -0.81321897433E+01 -0.32771600193E+02  0.46073981028E+02  0.47000000000E+01 0. -1.
         -5    1    3    3    0  502 -0.25223510843E+02  0.58249434522E+01 -0.20617614674E+02  0.33426508946E+02  0.47000000000E+01 0.  1.
<mgrwt>
<rscale>  0 0.11339829E+03</rscale>
<asrwt>0</asrwt>
<pdfrwt beam="1">  1        3 0.25162405E-01 0.11374321E+03</pdfrwt>
<pdfrwt beam="2">  1       -3 0.15341739E-01 0.11374321E+03</pdfrwt>
<totfact> 0.11847588E+03</totfact>
</mgrwt>
</event>
<event>
 8    1  0.6396648E-004  0.1618557E+03  0.7546771E-02  0.1186833E+00
          1   -1    0    0  501    0  0.00000000000E+00  0.00000000000E+00  0.26899928662E+03  0.26899928662E+03  0.00000000000E+00 0. -1.
         -1   -1    0    0    0  501 -0.00000000000E+00 -0.00000000000E+00 -0.24016177690E+03  0.24016177690E+03  0.00000000000E+00 0.  1.
         23    2    1    2    0    0  0.24964797765E+02  0.13088072629E+03 -0.18217646802E+03  0.24369149563E+03  0.91892730401E+02 0.  0.
         23    2    1    2    0    0 -0.24964797765E+02 -0.13088072629E+03  0.21101397774E+03  0.26546956789E+03  0.90521748936E+02 0.  0.
          5    1    3    3  502    0  0.42569395623E+02  0.67355630792E+02 -0.45500698143E+02  0.91876754267E+02  0.47000000000E+01 0. -1.
         -5    1    3    3    0  502 -0.17604597858E+02  0.63525095501E+02 -0.13667576988E+03  0.15181474137E+03  0.47000000000E+01 0.  1.
          5    1    4    4  503    0 -0.16492850633E+02 -0.14195090773E+02  0.10560010559E+03  0.10792120748E+03  0.47000000000E+01 0. -1.
         -5    1    4    4    0  503 -0.84719471315E+01 -0.11668563552E+03  0.10541387215E+03  0.15754836041E+03  0.47000000000E+01 0.  1.
<mgrwt>
<rscale>  0 0.16166179E+03</rscale>
<asrwt>0</asrwt>
<pdfrwt beam="1">  1        1 0.41384506E-01 0.16185574E+03</pdfrwt>
<pdfrwt beam="2">  1       -1 0.36947966E-01 0.16185574E+03</pdfrwt>
<totfact> 0.71629432E+02</totfact>
</mgrwt>
</event>
<event>
 8    1  0.6396648E-004  0.1138653E+03  0.7546771E-02  0.1253819E+00
          1   -1    0    0  501    0  0.00000000000E+00  0.00000000000E+00  0.34616134732E+03  0.34616134732E+03  0.00000000000E+00 0. -1.
         -1   -1    0    0    0  501 -0.00000000000E+00 -0.00000000000E+00 -0.72609541893E+02  0.72609541893E+02  0.00000000000E+00 0.  1.
         23    2    1    2    0    0  0.56293631260E+02 -0.37996790953E+02 -0.91230562080E+01  0.11423020895E+03  0.91392458332E+02 0.  0.
         23    2    1    2    0    0 -0.56293631260E+02  0.37996790953E+02  0.28267486163E+03  0.30454068025E+03  0.90704021348E+02 0.  0.
          5    1    3    3  502    0  0.55598212196E+02  0.17926592484E+00  0.26526536053E+02  0.61781392430E+02  0.47000000000E+01 0. -1.
         -5    1    3    3    0  502  0.69541906453E+00 -0.38176056878E+02 -0.35649592261E+02  0.52448816524E+02  0.47000000000E+01 0.  1.
          5    1    4    4  503    0 -0.24851858714E+02  0.66093504250E+02  0.18338410368E+03  0.19656496552E+03  0.47000000000E+01 0. -1.
         -5    1    4    4    0  503 -0.31441772547E+02 -0.28096713297E+02  0.99290757949E+02  0.10797571474E+03  0.47000000000E+01 0.  1.
<mgrwt>
<rscale>  0 0.11372711E+03</rscale>
<asrwt>0</asrwt>
<pdfrwt beam="1">  1        1 0.53255591E-01 0.11386532E+03</pdfrwt>
<pdfrwt beam="2">  1       -1 0.11170699E-01 0.11386532E+03</pdfrwt>
<totfact> 0.35859438E+03</totfact>
</mgrwt>
</event>
<event>
 8    1  0.6396648E-004  0.9088240E+02  0.7546771E-02  0.1301382E+00
          2   -1    0    0  501    0  0.00000000000E+00  0.00000000000E+00  0.42239834390E+03  0.42239834390E+03  0.00000000000E+00 0. -1.
         -2   -1    0    0    0  501 -0.00000000000E+00 -0.00000000000E+00 -0.22905887542E+02  0.22905887542E+02  0.00000000000E+00 0.  1.
         23    2    1    2    0    0 -0.12234437157E+01 -0.15015436520E+02  0.11267776930E+03  0.14476149600E+03  0.89625057221E+02 0.  0.
         23    2    1    2    0    0  0.12234437157E+01  0.15015436520E+02  0.28681468705E+03  0.30054273544E+03  0.88522940337E+02 0.  0.
          5    1    4    4  502    0 -0.31620080717E+02 -0.20010365243E+02  0.84150480913E+02  0.92215170441E+02  0.47000000000E+01 0. -1.
         -5    1    4    4    0  502  0.32843524433E+02  0.35025801763E+02  0.20266420614E+03  0.20832756499E+03  0.47000000000E+01 0.  1.
          5    1    3    3  503    0 -0.34548106530E+02  0.72346054010E+01  0.93578108575E+02  0.10012424074E+03  0.47000000000E+01 0. -1.
         -5    1    3    3    0  503  0.33324662814E+02 -0.22250041921E+02  0.19099660727E+02  0.44637255259E+02  0.47000000000E+01 0.  1.
<mgrwt>
<rscale>  0 0.90609505E+02</rscale>
<asrwt>0</asrwt>
<pdfrwt beam="1">  1        2 0.64984355E-01 0.90882402E+02</pdfrwt>
<pdfrwt beam="2">  1       -2 0.35239830E-02 0.90882402E+02</pdfrwt>
<totfact> 0.22502656E+04</totfact>
</mgrwt>
</event>
<event>
 8    1  0.6396648E-004  0.1086917E+03  0.7546771E-02  0.1263561E+00
         -3   -1    0    0    0  501 -0.00000000000E+00  0.00000000000E+00  0.72878868478E+03  0.72878868478E+03  0.00000000000E+00 0.  1.
          3   -1    0    0  501    0  0.00000000000E+00 -0.00000000000E+00 -0.46647223965E+02  0.46647223965E+02  0.00000000000E+00 0. -1.
         23    2    1    2    0    0 -0.57615314567E+02  0.11986985127E+02  0.65451350876E+03  0.66328782114E+03  0.89997712433E+02 0.  0.
         23    2    1    2    0    0  0.57615314567E+02 -0.11986985127E+02  0.27627952058E+02  0.11214808760E+03  0.91382041634E+02 0.  0.
          5    1    4    4  502    0  0.56280994307E+02 -0.43877982113E+02  0.34116174134E+02  0.79239074780E+02  0.47000000000E+01 0. -1.
         -5    1    4    4    0  502  0.13343202604E+01  0.31890996986E+02 -0.64882220763E+01  0.32909012823E+02  0.47000000000E+01 0.  1.
          5    1    3    3  503    0  0.19758052834E+02 -0.13124864096E+02  0.20796539064E+03  0.20936651216E+03  0.47000000000E+01 0. -1.
         -5    1    3    3    0  503 -0.77373367401E+02  0.25111849224E+02  0.44654811811E+03  0.45392130898E+03  0.47000000000E+01 0.  1.
<mgrwt>
<rscale>  0 0.10840023E+03</rscale>
<asrwt>0</asrwt>
<pdfrwt beam="1">  1        3 0.71764965E-02 0.10869172E+03</pdfrwt>
<pdfrwt beam="2">  1       -3 0.11212133E+00 0.10869172E+03</pdfrwt>
<totfact> 0.20082600E+02</totfact>
</mgrwt>
</event>
<event>
 8    1  0.6396648E-004  0.1073601E+03  0.7546771E-02  0.1266158E+00
          1   -1    0    0  501    0  0.00000000000E+00  0.00000000000E+00  0.18930743226E+03  0.18930743226E+03  0.00000000000E+00 0. -1.
         -1   -1    0    0    0  501 -0.00000000000E+00 -0.00000000000E+00 -0.65356866156E+02  0.65356866156E+02  0.00000000000E+00 0.  1.
         23    2    1    2    0    0  0.54212517919E+02  0.10111505446E+02  0.97542841479E+02  0.14410409234E+03  0.90609844195E+02 0.  0.
         23    2    1    2    0    0 -0.54212517919E+02 -0.10111505446E+02  0.26407724628E+02  0.11056020608E+03  0.92113797044E+02 0.  0.
          5    1    3    3  502    0  0.29199109856E+02 -0.27555386714E+02  0.89136681244E+02  0.97874027691E+02  0.47000000000E+01 0. -1.
         -5    1    4    4    0  503  0.24007155839E+02  0.84016804546E+01  0.12946910975E+02  0.28924803711E+02  0.47000000000E+01 0.  1.
          5    1    4    4  503    0 -0.78219673758E+02 -0.18513185900E+02  0.13460813653E+02  0.81635402364E+02  0.47000000000E+01 0. -1.
         -5    1    3    3    0  502  0.25013408063E+02  0.37666892160E+02  0.84061602346E+01  0.46230064652E+02  0.47000000000E+01 0.  1.
<mgrwt>
<rscale>  0 0.10703675E+03</rscale>
<asrwt>0</asrwt>
<pdfrwt beam="1">  1        1 0.29124220E-01 0.10736010E+03</pdfrwt>
<pdfrwt beam="2">  1       -1 0.10054903E-01 0.10736010E+03</pdfrwt>
<totfact> 0.88142068E+03</totfact>
</mgrwt>
</event>
<event>
 8    1  0.6396648E-004  0.9279501E+02  0.7546771E-02  0.1296469E+00
         -1   -1    0    0    0  501 -0.00000000000E+00  0.00000000000E+00  0.69709111976E+02  0.69709111976E+02  0.00000000000E+00 0.  1.
          1   -1    0    0  501    0  0.00000000000E+00 -0.00000000000E+00 -0.17890158093E+03  0.17890158093E+03  0.00000000000E+00 0. -1.
         23    2    1    2    0    0 -0.89777207132E+01 -0.39401026630E+01  0.15000322825E+02  0.93579199025E+02  0.91847334894E+02 0.  0.
         23    2    1    2    0    0  0.89777207132E+01  0.39401026630E+01 -0.12419279178E+03  0.15503149388E+03  0.92275623469E+02 0.  0.
          5    1    4    4  502    0  0.27436772602E+02  0.41910608718E+02 -0.66840979637E+02  0.83660517407E+02  0.47000000000E+01 0. -1.
         -5    1    4    4    0  502 -0.18459051889E+02 -0.37970506055E+02 -0.57351812138E+02  0.71370976469E+02  0.47000000000E+01 0.  1.
          5    1    3    3  503    0  0.27607946802E+02  0.21757705270E+02 -0.16066728329E+02  0.38933613041E+02  0.47000000000E+01 0. -1.
         -5    1    3    3    0  503 -0.36585667516E+02 -0.25697807933E+02  0.31067051153E+02  0.54645585984E+02  0.47000000000E+01 0.  1.
<mgrwt>
<rscale>  0 0.92688360E+02</rscale>
<asrwt>0</asrwt>
<pdfrwt beam="1">  1        1 0.27523320E-01 0.92795014E+02</pdfrwt>
<pdfrwt beam="2">  1       -1 0.10724479E-01 0.92795014E+02</pdfrwt>
<totfact> 0.84671901E+03</totfact>
</mgrwt>
</event>
<event>
 8    1  0.6396648E-004  0.1304669E+03  0.7546771E-02  0.1227228E+00
         -2   -1    0    0    0  501 -0.00000000000E+00  0.00000000000E+00  0.29694834033E+03  0.29694834033E+03  0.00000000000E+00 0. -1.
          2   -1    0    0  501    0  0.00000000000E+00 -0.00000000000E+00 -0.60563505449E+02  0.60563505449E+02  0.00000000000E+00 0.  1.
         23    2    1    2    0    0  0.88497821116E+02 -0.24078281686E+02  0.16343249053E+03  0.20912144442E+03  0.92789932453E+02 0.  0.
         23    2    1    2    0    0 -0.88497821116E+02  0.24078281686E+02  0.72952344358E+02  0.14839040136E+03  0.91027680837E+02 0.  0.
          5    1    3    3  502    0  0.95902853116E+02  0.80149621750E+01  0.11057179833E+03  0.14666222909E+03  0.47000000000E+01 0. -1.
         -5    1    4    4    0  503 -0.91952055471E+02 -0.95046408505E+01  0.39518082026E+02  0.10064436154E+03  0.47000000000E+01 0.  1.
          5    1    4    4  503    0  0.34542343551E+01  0.33582922537E+02  0.33434262332E+02  0.47746039823E+02  0.47000000000E+01 0. -1.
         -5    1    3    3    0  502 -0.74050320003E+01 -0.32093243861E+02  0.52860692195E+02  0.62459215331E+02  0.47000000000E+01 0.  1.
<mgrwt>
<rscale>  0 0.13015388E+03</rscale>
<asrwt>0</asrwt>
<pdfrwt beam="1">  1        2 0.93174625E-02 0.13046685E+03</pdfrwt>
<pdfrwt beam="2">  1       -2 0.45684359E-01 0.13046685E+03</pdfrwt>
<totfact> 0.30804196E+03</totfact>
</mgrwt>
</event>
<event>
 8    1  0.6396648E-004  0.1341488E+03  0.7546771E-02  0.1225254E+00
          2   -1    0    0  501    0  0.00000000000E+00  0.00000000000E+00  0.15666030564E+04  0.15666030564E+04  0.00000000000E+00 0. -1.
         -2   -1    0    0    0  501 -0.00000000000E+00 -0.00000000000E+00 -0.12311929736E+02  0.12311929736E+02  0.00000000000E+00 0.  1.
         23    2    1    2    0    0 -0.61433594833E+02 -0.58599945834E+02  0.45807449903E+03  0.47452067061E+03  0.90164183296E+02 0.  0.
         23    2    1    2    0    0  0.61433594833E+02  0.58599945834E+02  0.10962166276E+04  0.11043943155E+04  0.10386466789E+03 0.  0.
          5    1    3    3  502    0  0.22774967252E+02 -0.87863158886E+01  0.11968672412E+03  0.12224115678E+03  0.47000000000E+01 0. -1.
         -5    1    3    3    0  502 -0.84208562085E+02 -0.49813629946E+02  0.33838777491E+03  0.35227951383E+03  0.47000000000E+01 0.  1.
          5    1    4    4  503    0  0.60820782361E+02 -0.11211840916E+02  0.61450145752E+03  0.61762367525E+03  0.47000000000E+01 0. -1.
         -5    1    4    4    0  503  0.61281247223E+00  0.69811786750E+02  0.48171517012E+03  0.48677064027E+03  0.47000000000E+01 0.  1.
<mgrwt>
<rscale>  0 0.13149521E+03</rscale>
<asrwt>0</asrwt>
<pdfrwt beam="1">  1        2 0.24101570E+00 0.13414883E+03</pdfrwt>
<pdfrwt beam="2">  1       -2 0.18941443E-02 0.13414883E+03</pdfrwt>
<totfact> 0.10268058E+04</totfact>
</mgrwt>
</event>
<event>
 8    1  0.6396648E-004  0.1163312E+03  0.7546771E-02  0.1249806E+00
         -3   -1    0    0    0  501 -0.00000000000E+00  0.00000000000E+00  0.17259399928E+02  0.17259399928E+02  0.00000000000E+00 0.  1.
          3   -1    0    0  501    0  0.00000000000E+00 -0.00000000000E+00 -0.10562876350E+04  0.10562876350E+04  0.00000000000E+00 0. -1.
         23    2    1    2    0    0 -0.62657257224E+02 -0.31201319340E+02 -0.24495529288E+03  0.27117531812E+03  0.92916647787E+02 0.  0.
         23    2    1    2    0    0  0.62657257224E+02  0.31201319340E+02 -0.79407294221E+03  0.80237171683E+03  0.91373301360E+02 0.  0.
          5    1    4    4  502    0 -0.22986449137E+02  0.13029636136E+02 -0.15385075555E+03  0.15617391986E+03  0.47000000000E+01 0. -1.
         -5    1    3    3    0  503  0.47474725677E+01 -0.46305005980E+02 -0.89182753623E+02  0.10070921318E+03  0.47000000000E+01 0.  1.
          5    1    3    3  503    0 -0.67404729792E+02  0.15103686639E+02 -0.15577253925E+03  0.17046610494E+03  0.47000000000E+01 0. -1.
         -5    1    4    4    0  502  0.85643706362E+02  0.18171683204E+02 -0.64022218667E+03  0.64619779697E+03  0.47000000000E+01 0.  1.
<mgrwt>
<rscale>  0 0.11602278E+03</rscale>
<asrwt>0</asrwt>
<pdfrwt beam="1">  1        3 0.16250586E+00 0.11633124E+03</pdfrwt>
<pdfrwt beam="2">  1       -3 0.26552912E-02 0.11633124E+03</pdfrwt>
<totfact> 0.39429968E+02</totfact>
</mgrwt>
</event>
<event>
 7    1  0.6396648E-004  0.2271717E+03  0.7546771E-02  0.1128646E+00
          3   -1    0    0  501    0  0.00000000000E+00  0.00000000000E+00  0.22453153584E+03  0.22453153584E+03  0.00000000000E+00 0. -1.
         -3   -1    0    0    0  501 -0.00000000000E+00 -0.00000000000E+00 -0.57460748265E+02  0.57460748265E+02  0.00000000000E+00 0.  1.
         23    2    1    2    0    0  0.18196186530E+02  0.74654622353E+01  0.65455131850E+02  0.11363742283E+03  0.90786867177E+02 0.  0.
          5    1    3    3  502    0  0.33622600602E+02 -0.26443121450E+02  0.61851778644E+01  0.43474870540E+02  0.47000000000E+01 0. -1.
         -5    1    1    2    0  503 -0.47520920808E+02 -0.58067591304E+02  0.63279180903E+02  0.98267124767E+02  0.47000000000E+01 0.  1.
          5    1    1    2  503    0  0.29324734278E+02  0.50602129069E+02  0.38336474822E+02  0.70087736506E+02  0.47000000000E+01 0. -1.
         -5    1    3    3    0  502 -0.15426414072E+02  0.33908583685E+02  0.59269953986E+02  0.70162552292E+02  0.47000000000E+01 0.  1.
<mgrwt>
<rscale>  0 0.22717174E+03</rscale>
<asrwt>0</asrwt>
<pdfrwt beam="1">  1        3 0.34543313E-01 0.22717174E+03</pdfrwt>
<pdfrwt beam="2">  1       -3 0.88401153E-02 0.22717174E+03</pdfrwt>
<totfact> 0.18538897E+03</totfact>
</mgrwt>
</event>
<event>
 8    1  0.6396648E-004  0.1017771E+03  0.7546771E-02  0.1277462E+00
          3   -1    0    0  501    0  0.00000000000E+00  0.00000000000E+00  0.13260846720E+03  0.13260846720E+03  0.00000000000E+00 0. -1.
         -3   -1    0    0    0  501 -0.00000000000E+00 -0.00000000000E+00 -0.18617207534E+03  0.18617207534E+03  0.00000000000E+00 0.  1.
         23    2    1    2    0    0  0.14425313991E+02 -0.38369419011E+02 -0.14901280801E+03  0.18045327638E+03  0.93157211235E+02 0.  0.
         23    2    1    2    0    0 -0.14425313991E+02  0.38369419011E+02  0.95449199872E+02  0.13832726615E+03  0.91343203392E+02 0.  0.
          5    1    4    4  502    0  0.31273381731E+02  0.41264293689E+02  0.64569815269E+02  0.82898235099E+02  0.47000000000E+01 0. -1.
         -5    1    3    3    0  503  0.40252438335E+01 -0.61495511631E+02 -0.14016827556E+03  0.15318986916E+03  0.47000000000E+01 0.  1.
          5    1    3    3  503    0  0.10400070157E+02  0.23126092620E+02 -0.88445324545E+01  0.27263407224E+02  0.47000000000E+01 0. -1.
         -5    1    4    4    0  502 -0.45698695722E+02 -0.28948746780E+01  0.30879384603E+02  0.55429031054E+02  0.47000000000E+01 0.  1.
<mgrwt>
<rscale>  0 0.10136007E+03</rscale>
<asrwt>0</asrwt>
<pdfrwt beam="1">  1        3 0.20401303E-01 0.10177705E+03</pdfrwt>
<pdfrwt beam="2">  1       -3 0.28641858E-01 0.10177705E+03</pdfrwt>
<totfact> 0.56160628E+02</totfact>
</mgrwt>
</event>
<event>
 8    1  0.6396648E-004  0.9775145E+02  0.7546771E-02  0.1285624E+00
         -2   -1    0    0    0  501 -0.00000000000E+00  0.00000000000E+00  0.16708616991E+03  0.16708616991E+03  0.00000000000E+00 0.  1.
          2   -1    0    0  501    0  0.00000000000E+00 -0.00000000000E+00 -0.65664295538E+02  0.65664295538E+02  0.00000000000E+00 0. -1.
         23    2    1    2    0    0 -0.31735114480E+02 -0.18680909954E+02  0.93674067845E+02  0.13469244860E+03  0.89504920725E+02 0.  0.
         23    2    1    2    0    0  0.31735114480E+02  0.18680909954E+02  0.77478065311E+01  0.98058016858E+02  0.90549722674E+02 0.  0.
          5    1    4    4  502    0  0.56201381001E+02  0.10670278695E+01 -0.16845327619E+02  0.58869252054E+02  0.47000000000E+01 0. -1.
         -5    1    4    4    0  502 -0.24466266520E+02  0.17613882084E+02  0.24593134150E+02  0.39188764804E+02  0.47000000000E+01 0.  1.
          5    1    3    3  503    0 -0.21077761716E+02 -0.41992287450E+02  0.11660446991E+02  0.48638259305E+02  0.47000000000E+01 0. -1.
         -5    1    3    3    0  503 -0.10657352764E+02  0.23311377496E+02  0.82013620854E+02  0.86054189290E+02  0.47000000000E+01 0.  1.
<mgrwt>
<rscale>  0 0.97508792E+02</rscale>
<asrwt>0</asrwt>
<pdfrwt beam="1">  1        2 0.10102199E-01 0.97751451E+02</pdfrwt>
<pdfrwt beam="2">  1       -2 0.25705565E-01 0.97751451E+02</pdfrwt>
<totfact> 0.78417199E+03</totfact>
</mgrwt>
</event>
<event>
 8    1  0.6396648E-004  0.9742612E+02  0.7546771E-02  0.1286983E+00
         -2   -1    0    0    0  501 -0.00000000000E+00  0.00000000000E+00  0.54470523384E+02  0.54470523384E+02  0.00000000000E+00 0.  1.
          2   -1    0    0  501    0  0.00000000000E+00 -0.00000000000E+00 -0.23852237152E+03  0.23852237152E+03  0.00000000000E+00 0. -1.
         23    2    1    2    0    0  0.20515196967E+02  0.18900162356E+02 -0.14497836595E+02  0.98498911083E+02  0.93347516169E+02 0.  0.
         23    2    1    2    0    0 -0.20515196967E+02 -0.18900162356E+02 -0.16955401154E+03  0.19449398382E+03  0.91111236788E+02 0.  0.
          5    1    3    3  502    0  0.32048476169E+02 -0.31238784101E+02 -0.12894040963E+02  0.46811459594E+02  0.47000000000E+01 0. -1.
         -5    1    3    3    0  502 -0.11533279202E+02  0.50138946457E+02 -0.16037956319E+01  0.51687451489E+02  0.47000000000E+01 0.  1.
          5    1    4    4  503    0 -0.40534291794E+02 -0.45635403150E+02 -0.10130852785E+03  0.11836860499E+03  0.47000000000E+01 0. -1.
         -5    1    4    4    0  503  0.20019094827E+02  0.26735240794E+02 -0.68245483688E+02  0.76125378829E+02  0.47000000000E+01 0.  1.
<mgrwt>
<rscale>  0 0.96886523E+02</rscale>
<asrwt>0</asrwt>
<pdfrwt beam="1">  1        2 0.36695750E-01 0.97426117E+02</pdfrwt>
<pdfrwt beam="2">  1       -2 0.83800805E-02 0.97426117E+02</pdfrwt>
<totfact> 0.11298700E+04</totfact>
</mgrwt>
</event>
<event>
 8    1  0.6396648E-004  0.9744121E+02  0.7546771E-02  0.1288575E+00
          1   -1    0    0  501    0  0.00000000000E+00  0.00000000000E+00  0.32197388167E+03  0.32197388167E+03  0.00000000000E+00 0. -1.
         -1   -1    0    0    0  501 -0.00000000000E+00 -0.00000000000E+00 -0.39817146948E+02  0.39817146948E+02  0.00000000000E+00 0.  1.
         23    2    1    2    0    0 -0.17971783910E+02 -0.62586380156E+01  0.24224686183E+03  0.26110980874E+03  0.95564818769E+02 0.  0.
         23    2    1    2    0    0  0.17971783910E+02  0.62586380156E+01  0.39909872887E+02  0.10068121987E+03  0.90453051440E+02 0.  0.
          5    1    4    4  502    0  0.13932305550E+02 -0.21879959278E+02  0.60013433392E+02  0.65548027761E+02  0.47000000000E+01 0. -1.
         -5    1    4    4    0  502  0.40394783601E+01  0.28138597293E+02 -0.20103560505E+02  0.35133192113E+02  0.47000000000E+01 0.  1.
          5    1    3    3  503    0 -0.11125655527E+02 -0.43681939396E+02  0.19535539489E+03  0.20054354229E+03  0.47000000000E+01 0. -1.
         -5    1    3    3    0  503 -0.68461283825E+01  0.37423301381E+02  0.46891466938E+02  0.60566266449E+02  0.47000000000E+01 0.  1.
<mgrwt>
<rscale>  0 0.96164349E+02</rscale>
<asrwt>0</asrwt>
<pdfrwt beam="1">  1        1 0.49534442E-01 0.97441214E+02</pdfrwt>
<pdfrwt beam="2">  1       -1 0.61257151E-02 0.97441214E+02</pdfrwt>
<totfact> 0.95646590E+03</totfact>
</mgrwt>
</event>
<event>
 8    1  0.6396648E-004  0.1061297E+03  0.7546771E-02  0.1271048E+00
          1   -1    0    0  501    0  0.00000000000E+00  0.00000000000E+00  0.49475843065E+03  0.49475843065E+03  0.00000000000E+00 0. -1.
         -1   -1    0    0    0  501 -0.00000000000E+00 -0.00000000000E+00 -0.22725404624E+02  0.22725404624E+02  0.00000000000E+00 0.  1.
         23    2    1    2    0    0 -0.38993513860E+02  0.32621410394E+01  0.16783807768E+03  0.19530674828E+03  0.91891076362E+02 0.  0.
         23    2    1    2    0    0  0.38993513860E+02 -0.32621410394E+01  0.30419494834E+03  0.32217708699E+03  0.98652790642E+02 0.  0.
          5    1    3    3  502    0  0.13170910106E+01  0.41126892212E+02  0.95774499240E+02  0.10434558302E+03  0.47000000000E+01 0. -1.
         -5    1    3    3    0  502 -0.40310604870E+02 -0.37864751173E+02  0.72063578443E+02  0.90961165254E+02  0.47000000000E+01 0.  1.
          5    1    4    4  503    0  0.60392431539E+02 -0.21770487831E+02  0.12397464175E+03  0.13968894633E+03  0.47000000000E+01 0. -1.
         -5    1    4    4    0  503 -0.21398917679E+02  0.18508346792E+02  0.18022030658E+03  0.18248814067E+03  0.47000000000E+01 0.  1.
<mgrwt>
<rscale>  0 0.10453033E+03</rscale>
<asrwt>0</asrwt>
<pdfrwt beam="1">  1        1 0.76116674E-01 0.10612968E+03</pdfrwt>
<pdfrwt beam="2">  1       -1 0.34962165E-02 0.10612968E+03</pdfrwt>
<totfact> 0.12791830E+04</totfact>
</mgrwt>
</event>
<event>
 8    1  0.6396648E-004  0.1154776E+03  0.7546771E-02  0.1251302E+00
          1   -1    0    0  501    0  0.00000000000E+00  0.00000000000E+00  0.40876292992E+02  0.40876292992E+02  0.00000000000E+00 0. -1.
         -1   -1    0    0    0  501 -0.00000000000E+00 -0.00000000000E+00 -0.40015173634E+03  0.40015173634E+03  0.00000000000E+00 0.  1.
         23    2    1    2    0    0 -0.68558614911E+02 -0.49785158465E+01 -0.27746934617E+03  0.30054005475E+03  0.92790178082E+02 0.  0.
         23    2    1    2    0    0  0.68558614911E+02  0.49785158465E+01 -0.81806097176E+02  0.14048797458E+03  0.91211644908E+02 0.  0.
          5    1    4    4  502    0  0.56959461096E+01  0.33541548266E+02 -0.57802588758E+02  0.67236214418E+02  0.47000000000E+01 0. -1.
         -5    1    3    3    0  503 -0.35236926970E+02 -0.48102052404E+02 -0.16419650491E+03  0.17475133960E+03  0.47000000000E+01 0.  1.
          5    1    3    3  503    0 -0.33321687941E+02  0.43123536558E+02 -0.11327284126E+03  0.12578871515E+03  0.47000000000E+01 0. -1.
         -5    1    4    4    0  502  0.62862668802E+02 -0.28563032420E+02 -0.24003508418E+02  0.73251760158E+02  0.47000000000E+01 0.  1.
<mgrwt>
<rscale>  0 0.11516020E+03</rscale>
<asrwt>0</asrwt>
<pdfrwt beam="1">  1        1 0.62886604E-02 0.11547764E+03</pdfrwt>
<pdfrwt beam="2">  1       -1 0.61561807E-01 0.11547764E+03</pdfrwt>
<totfact> 0.31916748E+03</totfact>
</mgrwt>
</event>
<event>
 8    1  0.6396648E-004  0.9772317E+02  0.7546771E-02  0.1285750E+00
         -1   -1    0    0    0  501 -0.00000000000E+00  0.00000000000E+00  0.50168259831E+02  0.50168259831E+02  0.00000000000E+00 0.  1.
          1   -1    0    0  501    0  0.00000000000E+00 -0.00000000000E+00 -0.27469293201E+03  0.27469293201E+03  0.00000000000E+00 0. -1.
         23    2    1    2    0    0 -0.12364558544E+02 -0.32712320934E+02 -0.20713589781E+02  0.98832931443E+02  0.90088385972E+02 0.  0.
         23    2    1    2    0    0  0.12364558544E+02  0.32712320934E+02 -0.20381108240E+03  0.22602826040E+03  0.91251514735E+02 0.  0.
          5    1    3    3  502    0  0.24174588322E+02  0.18355937895E+02  0.44217090498E+01  0.31032123477E+02  0.47000000000E+01 0. -1.
         -5    1    3    3    0  502 -0.36539146865E+02 -0.51068258830E+02 -0.25135298831E+02  0.67800807966E+02  0.47000000000E+01 0.  1.
          5    1    4    4  503    0 -0.12342408777E+02  0.48153643653E+02 -0.18357563133E+03  0.19024513363E+03  0.47000000000E+01 0. -1.
         -5    1    4    4    0  503  0.24706967320E+02 -0.15441322719E+02 -0.20235451069E+02  0.35783126770E+02  0.47000000000E+01 0.  1.
<mgrwt>
<rscale>  0 0.97450728E+02</rscale>
<asrwt>0</asrwt>
<pdfrwt beam="1">  1        1 0.42260451E-01 0.97723166E+02</pdfrwt>
<pdfrwt beam="2">  1       -1 0.77181939E-02 0.97723166E+02</pdfrwt>
<totfact> 0.82445679E+03</totfact>
</mgrwt>
</event>
<event>
 8    1  0.6396648E-004  0.1057960E+03  0.7546771E-02  0.1272539E+00
         -1   -1    0    0    0  501 -0.00000000000E+00  0.00000000000E+00  0.23138915409E+03  0.23138915409E+03  0.00000000000E+00 0.  1.
          1   -1    0    0  501    0  0.00000000000E+00 -0.00000000000E+00 -0.48735591374E+02  0.48735591374E+02  0.00000000000E+00 0. -1.
         23    2    1    2    0    0  0.25801989901E+02 -0.24190251024E+02  0.12757737982E+03  0.16085117644E+03  0.91357551365E+02 0.  0.
         23    2    1    2    0    0 -0.25801989901E+02  0.24190251024E+02  0.55076182896E+02  0.11927356903E+03  0.99709013732E+02 0.  0.
          5    1    4    4  502    0 -0.18812753232E+02 -0.11794522080E+02 -0.23357927395E+02  0.32568592347E+02  0.47000000000E+01 0. -1.
         -5    1    3    3    0  503  0.11734651516E+02  0.30045624400E+02  0.82759027424E+02  0.88947109070E+02  0.47000000000E+01 0.  1.
          5    1    3    3  503    0  0.14067338385E+02 -0.54235875424E+02  0.44818352400E+02  0.71904067368E+02  0.47000000000E+01 0. -1.
         -5    1    4    4    0  502 -0.69892366690E+01  0.35984773104E+02  0.78434110291E+02  0.86704976683E+02  0.47000000000E+01 0.  1.
<mgrwt>
<rscale>  0 0.10378141E+03</rscale>
<asrwt>0</asrwt>
<pdfrwt beam="1">  1        1 0.74977834E-02 0.10579602E+03</pdfrwt>
<pdfrwt beam="2">  1       -1 0.35598331E-01 0.10579602E+03</pdfrwt>
<totfact> 0.67037785E+03</totfact>
</mgrwt>
</event>
<event>
 8    1  0.6396648E-004  0.9710403E+02  0.7546771E-02  0.1291268E+00
         -1   -1    0    0    0  501 -0.00000000000E+00  0.00000000000E+00  0.39091017285E+02  0.39091017285E+02  0.00000000000E+00 0.  1.
          1   -1    0    0  501    0  0.00000000000E+00 -0.00000000000E+00 -0.27017371406E+03  0.27017371406E+03  0.00000000000E+00 0. -1.
         23    2    1    2    0    0  0.66749313317E+01  0.79866207052E+01 -0.53869272777E+02  0.11104544712E+03  0.96544559438E+02 0.  0.
         23    2    1    2    0    0 -0.66749313317E+01 -0.79866207052E+01 -0.17721342400E+03  0.19821928423E+03  0.88192665093E+02 0.  0.
          5    1    4    4  502    0  0.16029086775E+02  0.31581627070E+02 -0.11819822973E+03  0.12347972426E+03  0.47000000000E+01 0.  1.
         -5    1    4    4    0  502 -0.22704018106E+02 -0.39568247775E+02 -0.59015194268E+02  0.74739559971E+02  0.47000000000E+01 0. -1.
          5    1    3    3  503    0 -0.21742153644E+02 -0.30318336252E+02  0.17277086038E+01  0.37643030367E+02  0.47000000000E+01 0. -1.
         -5    1    3    3    0  503  0.28417084975E+02  0.38304956957E+02 -0.55596981381E+02  0.73402416750E+02  0.47000000000E+01 0.  1.
<mgrwt>
<rscale>  0 0.94959193E+02</rscale>
<asrwt>0</asrwt>
<pdfrwt beam="1">  1        1 0.41565188E-01 0.97104031E+02</pdfrwt>
<pdfrwt beam="2">  1       -1 0.60140025E-02 0.97104031E+02</pdfrwt>
<totfact> 0.12177864E+04</totfact>
</mgrwt>
</event>
<event>
 7    1  0.6396648E-004  0.1910459E+03  0.7546771E-02  0.1164488E+00
          1   -1    0    0  501    0  0.00000000000E+00  0.00000000000E+00  0.23870649119E+03  0.23870649119E+03  0.00000000000E+00 0. -1.
         -1   -1    0    0    0  501 -0.00000000000E+00 -0.00000000000E+00 -0.13553634481E+03  0.13553634481E+03  0.00000000000E+00 0.  1.
         23    2    1    2    0    0  0.12341797811E+03 -0.50244412412E+02  0.82050839049E+02  0.18203313523E+03  0.92990450230E+02 0.  0.
          5    1    1    2  502    0 -0.33597654445E+02  0.78003213632E+02  0.43379750682E+02  0.95484011700E+02  0.47000000000E+01 0. -1.
         -5    1    3    3    0  503  0.87391301777E+02 -0.36887569003E+02  0.41729529374E+01  0.95065429623E+02  0.47000000000E+01 0.  1.
          5    1    3    3  503    0  0.36026676334E+02 -0.13356843409E+02  0.77877886112E+02  0.86967705608E+02  0.47000000000E+01 0. -1.
         -5    1    1    2    0  502 -0.89820323666E+02 -0.27758801220E+02 -0.22260443346E+02  0.96725689072E+02  0.47000000000E+01 0.  1.
<mgrwt>
<rscale>  0 0.18346848E+03</rscale>
<asrwt>0</asrwt>
<pdfrwt beam="1">  1        1 0.36724075E-01 0.19104592E+03</pdfrwt>
<pdfrwt beam="2">  1       -1 0.20851745E-01 0.19104592E+03</pdfrwt>
<totfact> 0.21760006E+03</totfact>
</mgrwt>
</event>
<event>
 8    1  0.6396648E-004  0.1092848E+03  0.7546771E-02  0.1264292E+00
         -1   -1    0    0    0  501 -0.00000000000E+00  0.00000000000E+00  0.13853111038E+03  0.13853111038E+03  0.00000000000E+00 0.  1.
          1   -1    0    0  501    0  0.00000000000E+00 -0.00000000000E+00 -0.15276377241E+03  0.15276377241E+03  0.00000000000E+00 0. -1.
         23    2    1    2    0    0  0.59154796493E+02  0.41457006256E+01  0.91684796360E+02  0.14265090149E+03  0.91797064395E+02 0.  0.
         23    2    1    2    0    0 -0.59154796493E+02 -0.41457006256E+01 -0.10591745839E+03  0.14864398129E+03  0.85790724440E+02 0.  0.
          5    1    3    3  502    0  0.73210968629E+02 -0.23216204914E+02  0.55207592807E+02  0.94703782404E+02  0.47000000000E+01 0. -1.
         -5    1    4    4    0  503  0.20277673129E+02 -0.10426535083E+02 -0.15164743607E+02  0.27784098151E+02  0.47000000000E+01 0.  1.
          5    1    4    4  503    0 -0.79432469622E+02  0.62808344576E+01 -0.90752714782E+02  0.12085988314E+03  0.47000000000E+01 0. -1.
         -5    1    3    3    0  502 -0.14056172136E+02  0.27361905540E+02  0.36477203554E+02  0.47947119089E+02  0.47000000000E+01 0.  1.
<mgrwt>
<rscale>  0 0.10801429E+03</rscale>
<asrwt>0</asrwt>
<pdfrwt beam="1">  1        1 0.23502119E-01 0.10928485E+03</pdfrwt>
<pdfrwt beam="2">  1       -1 0.21312479E-01 0.10928485E+03</pdfrwt>
<totfact> 0.35770812E+03</totfact>
</mgrwt>
</event>
<event>
 8    1  0.6396648E-004  0.1017923E+03  0.7546771E-02  0.1280828E+00
         -4   -1    0    0    0  501 -0.00000000000E+00  0.00000000000E+00  0.50650765895E+03  0.50650765895E+03  0.00000000000E+00 0.  1.
          4   -1    0    0  501    0  0.00000000000E+00 -0.00000000000E+00 -0.19045622052E+02  0.19045622052E+02  0.00000000000E+00 0. -1.
         23    2    1    2    0    0 -0.26334365573E+02 -0.67102235446E+01  0.25740193446E+03  0.27397960519E+03  0.89836196989E+02 0.  0.
         23    2    1    2    0    0  0.26334365573E+02  0.67102235446E+01  0.23006010244E+03  0.25157367581E+03  0.98097592806E+02 0.  0.
          5    1    3    3  502    0 -0.37005240066E+02 -0.41316942653E+02  0.12927458609E+03  0.14074972878E+03  0.47000000000E+01 0. -1.
         -5    1    3    3    0  502  0.10670874493E+02  0.34606719108E+02  0.12812734837E+03  0.13322987641E+03  0.47000000000E+01 0.  1.
          5    1    4    4  503    0 -0.29422198235E+02  0.28282581856E+02  0.10874230789E+03  0.11624349320E+03  0.47000000000E+01 0. -1.
         -5    1    4    4    0  503  0.55756563808E+02 -0.21572358311E+02  0.12131779455E+03  0.13533018261E+03  0.47000000000E+01 0.  1.
<mgrwt>
<rscale>  0 0.99747566E+02</rscale>
<asrwt>0</asrwt>
<pdfrwt beam="1">  1        4 0.29300961E-02 0.10179226E+03</pdfrwt>
<pdfrwt beam="2">  1       -4 0.77924245E-01 0.10179226E+03</pdfrwt>
<totfact> 0.13043315E+03</totfact>
</mgrwt>
</event>
<event>
 8    1  0.6396648E-004  0.1152549E+03  0.7546771E-02  0.1253533E+00
          1   -1    0    0  501    0  0.00000000000E+00  0.00000000000E+00  0.21702803477E+03  0.21702803477E+03  0.00000000000E+00 0. -1.
         -1   -1    0    0    0  501 -0.00000000000E+00 -0.00000000000E+00 -0.99000765368E+02  0.99000765368E+02  0.00000000000E+00 0.  1.
         23    2    1    2    0    0 -0.11400723889E+02 -0.64830976983E+02  0.16103067948E+03  0.19802667499E+03  0.94607886524E+02 0.  0.
         23    2    1    2    0    0  0.11400723889E+02  0.64830976983E+02 -0.43003410071E+02  0.11800212515E+03  0.87989636784E+02 0.  0.
          5    1    3    3  502    0 -0.32524677429E+02 -0.81089228810E+02  0.13170318074E+03  0.15811747370E+03  0.47000000000E+01 0. -1.
         -5    1    3    3    0  502  0.21123953540E+02  0.16258251827E+02  0.29327498731E+02  0.39909201288E+02  0.47000000000E+01 0.  1.
          5    1    4    4  503    0 -0.24104179099E+02 -0.12094055791E+01  0.94869843005E+01  0.26354638738E+02  0.47000000000E+01 0. -1.
         -5    1    4    4    0  503  0.35504902987E+02  0.66040382563E+02 -0.52490394371E+02  0.91647486416E+02  0.47000000000E+01 0.  1.
<mgrwt>
<rscale>  0 0.11388887E+03</rscale>
<asrwt>0</asrwt>
<pdfrwt beam="1">  1        1 0.33388928E-01 0.11525487E+03</pdfrwt>
<pdfrwt beam="2">  1       -1 0.15230887E-01 0.11525487E+03</pdfrwt>
<totfact> 0.39498699E+03</totfact>
</mgrwt>
</event>
<event>
 8    1  0.6396648E-004  0.9508218E+02  0.7546771E-02  0.1293692E+00
          1   -1    0    0  501    0  0.00000000000E+00  0.00000000000E+00  0.68619186940E+03  0.68619186940E+03  0.00000000000E+00 0. -1.
         -1   -1    0    0    0  501 -0.00000000000E+00 -0.00000000000E+00 -0.22529140893E+02  0.22529140893E+02  0.00000000000E+00 0.  1.
         23    2    1    2    0    0 -0.13788077002E+02  0.59276087684E+01  0.57245502183E+03  0.58029765899E+03  0.93890219944E+02 0.  0.
         23    2    1    2    0    0  0.13788077002E+02 -0.59276087684E+01  0.91207706674E+02  0.12842335130E+03  0.89154157437E+02 0.  0.
          5    1    3    3  502    0  0.55436343867E+00  0.44051118440E+02  0.42321014385E+03  0.42552288330E+03  0.47000000000E+01 0. -1.
         -5    1    3    3    0  502 -0.14342440441E+02 -0.38123509671E+02  0.14924487798E+03  0.15477477570E+03  0.47000000000E+01 0.  1.
          5    1    4    4  503    0 -0.33463816670E+02  0.12126617515E+02  0.20451656503E+02  0.41318786674E+02  0.47000000000E+01 0. -1.
         -5    1    4    4    0  503  0.47251893672E+02 -0.18054226284E+02  0.70756050171E+02  0.87104564623E+02  0.47000000000E+01 0.  1.
<mgrwt>
<rscale>  0 0.93891605E+02</rscale>
<asrwt>0</asrwt>
<pdfrwt beam="1">  1        1 0.10556796E+00 0.95082180E+02</pdfrwt>
<pdfrwt beam="2">  1       -1 0.34660222E-02 0.95082180E+02</pdfrwt>
<totfact> 0.82915041E+03</totfact>
</mgrwt>
</event>
<event>
 7    1  0.6396648E-004  0.1813921E+03  0.7546771E-02  0.1173522E+00
          2   -1    0    0  501    0  0.00000000000E+00  0.00000000000E+00  0.33290954813E+03  0.33290954813E+03  0.00000000000E+00 0. -1.
         -2   -1    0    0    0  501 -0.00000000000E+00 -0.00000000000E+00 -0.95698382129E+02  0.95698382129E+02  0.00000000000E+00 0.  1.
         23    2    1    2    0    0  0.68541769857E+02 -0.96030791342E+02  0.18277221541E+03  0.23922290339E+03  0.99508932660E+02 0.  0.
          5    1    1    2  502    0 -0.12239403461E+02 -0.28083257955E+02  0.42353409251E+02  0.52482126955E+02  0.47000000000E+01 0. -1.
         -5    1    1    2    0  502 -0.56302366396E+02  0.12411404930E+03  0.12085541335E+02  0.13690289991E+03  0.47000000000E+01 0.  1.
          5    1    3    3  503    0  0.66165904178E+02 -0.65055521838E+02  0.18572160962E+03  0.20766500446E+03  0.47000000000E+01 0. -1.
         -5    1    3    3    0  503  0.23758656793E+01 -0.30975269504E+02 -0.29493942114E+01  0.31557898928E+02  0.47000000000E+01 0.  1.
<mgrwt>
<rscale>  0 0.17421512E+03</rscale>
<asrwt>0</asrwt>
<pdfrwt beam="1">  1        2 0.51216853E-01 0.18139209E+03</pdfrwt>
<pdfrwt beam="2">  1       -2 0.14722828E-01 0.18139209E+03</pdfrwt>
<totfact> 0.33778121E+03</totfact>
</mgrwt>
</event>
<event>
 8    1  0.6396648E-004  0.1037977E+03  0.7546771E-02  0.1272624E+00
          1   -1    0    0  501    0  0.00000000000E+00  0.00000000000E+00  0.63461431592E+03  0.63461431592E+03  0.00000000000E+00 0. -1.
         -1   -1    0    0    0  501 -0.00000000000E+00 -0.00000000000E+00 -0.44594028270E+02  0.44594028270E+02  0.00000000000E+00 0.  1.
         23    2    1    2    0    0  0.45547126470E+02  0.25754063473E+01  0.27699091553E+02  0.10743000039E+03  0.93235142859E+02 0.  0.
         23    2    1    2    0    0 -0.45547126470E+02 -0.25754063473E+01  0.56232119609E+03  0.57177834379E+03  0.92974046956E+02 0.  0.
          5    1    3    3  502    0 -0.96795644603E+01  0.34652390723E+02  0.23549007810E+02  0.43256536151E+02  0.47000000000E+01 0. -1.
         -5    1    4    4    0  503  0.22261212678E+02 -0.65232114773E+01  0.54559553593E+02  0.59472252068E+02  0.47000000000E+01 0.  1.
          5    1    4    4  503    0 -0.67808339148E+02  0.39478051300E+01  0.50776164250E+03  0.51230609173E+03  0.47000000000E+01 0. -1.
         -5    1    3    3    0  502  0.55226690930E+02 -0.32076984376E+02  0.41500837439E+01  0.64173464242E+02  0.47000000000E+01 0.  1.
<mgrwt>
<rscale>  0 0.10373905E+03</rscale>
<asrwt>0</asrwt>
<pdfrwt beam="1">  1        1 0.97632965E-01 0.10379771E+03</pdfrwt>
<pdfrwt beam="2">  1       -1 0.68606202E-02 0.10379771E+03</pdfrwt>
<totfact> 0.34116629E+03</totfact>
</mgrwt>
</event>
<event>
 8    1  0.6396648E-004  0.1321801E+03  0.7546771E-02  0.1224511E+00
         -2   -1    0    0    0  501 -0.00000000000E+00  0.00000000000E+00  0.67429360451E+02  0.67429360451E+02  0.00000000000E+00 0.  1.
          2   -1    0    0  501    0  0.00000000000E+00 -0.00000000000E+00 -0.31583169355E+03  0.31583169355E+03  0.00000000000E+00 0. -1.
         23    2    1    2    0    0 -0.60377021043E+02  0.71198011191E+02 -0.42284073595E+02  0.13877865227E+03  0.93579003940E+02 0.  0.
         23    2    1    2    0    0  0.60377021043E+02 -0.71198011191E+02 -0.20611825951E+03  0.24448240173E+03  0.92587074629E+02 0.  0.
          5    1    4    4  502    0  0.81160616596E+02 -0.68061256118E+02 -0.19000018185E+03  0.21758110987E+03  0.47000000000E+01 0. -1.
         -5    1    3    3    0  503 -0.56766649673E+02  0.50410087056E+02  0.15020340263E+02  0.77532767355E+02  0.47000000000E+01 0.  1.
          5    1    3    3  503    0 -0.36103713698E+01  0.20787924135E+02 -0.57304413859E+02  0.61245884915E+02  0.47000000000E+01 0. -1.
         -5    1    4    4    0  502 -0.20783595553E+02 -0.31367550734E+01 -0.16118077658E+02  0.26901291863E+02  0.47000000000E+01 0.  1.
<mgrwt>
<rscale>  0 0.13200463E+03</rscale>
<asrwt>0</asrwt>
<pdfrwt beam="1">  1        2 0.48589490E-01 0.13218007E+03</pdfrwt>
<pdfrwt beam="2">  1       -2 0.10373748E-01 0.13218007E+03</pdfrwt>
<totfact> 0.61692575E+03</totfact>
</mgrwt>
</event>
<event>
 8    1  0.6396648E-004  0.1001901E+03  0.7546771E-02  0.1280228E+00
          1   -1    0    0  501    0  0.00000000000E+00  0.00000000000E+00  0.26440754502E+03  0.26440754502E+03  0.00000000000E+00 0. -1.
         -1   -1    0    0    0  501 -0.00000000000E+00 -0.00000000000E+00 -0.46356026668E+02  0.46356026668E+02  0.00000000000E+00 0.  1.
         23    2    1    2    0    0 -0.16675403771E+02 -0.37222229094E+02  0.41704892367E+02  0.10794300339E+03  0.90823072528E+02 0.  0.
         23    2    1    2    0    0  0.16675403771E+02  0.37222229094E+02  0.17634662598E+03  0.20282056830E+03  0.91512223221E+02 0.  0.
          5    1    3    3  502    0  0.54853160881E+01 -0.61447509647E+02  0.41991501776E+02  0.74774737417E+02  0.47000000000E+01 0. -1.
         -5    1    4    4    0  503 -0.10095848346E+02 -0.27671758908E+02  0.51568269620E+02  0.59573725974E+02  0.47000000000E+01 0.  1.
          5    1    4    4  503    0  0.26771252117E+02  0.64893988001E+02  0.12477835636E+03  0.14324684232E+03  0.47000000000E+01 0. -1.
         -5    1    3    3    0  502 -0.22160719859E+02  0.24225280553E+02 -0.28660940942E+00  0.33168265971E+02  0.47000000000E+01 0.  1.
<mgrwt>
<rscale>  0 0.10003243E+03</rscale>
<asrwt>0</asrwt>
<pdfrwt beam="1">  1        1 0.40678083E-01 0.10019007E+03</pdfrwt>
<pdfrwt beam="2">  1       -1 0.71316966E-02 0.10019007E+03</pdfrwt>
<totfact> 0.97381627E+03</totfact>
</mgrwt>
</event>
<event>
 8    1  0.6396648E-004  0.9276617E+02  0.7546771E-02  0.1296387E+00
          4   -1    0    0  501    0  0.00000000000E+00  0.00000000000E+00  0.28567195980E+03  0.28567195980E+03  0.00000000000E+00 0. -1.
         -4   -1    0    0    0  501 -0.00000000000E+00 -0.00000000000E+00 -0.46653757360E+02  0.46653757360E+02  0.00000000000E+00 0.  1.
         23    2    1    2    0    0  0.14685732161E+02 -0.28706155595E+02  0.20507864795E+02  0.95005974072E+02  0.86981886004E+02 0.  0.
         23    2    1    2    0    0 -0.14685732161E+02  0.28706155595E+02  0.21851033764E+03  0.23731974308E+03  0.86799646906E+02 0.  0.
          5    1    3    3  502    0  0.47165670192E+01  0.31030965851E+02  0.35324120236E+01  0.31933286408E+02  0.47000000000E+01 0. -1.
         -5    1    3    3    0  502  0.99691651423E+01 -0.59737121447E+02  0.16975452772E+02  0.63072687664E+02  0.47000000000E+01 0.  1.
          5    1    4    4  503    0 -0.40847166018E+02  0.26510944472E+02  0.19720873881E+03  0.20318636226E+03  0.47000000000E+01 0. -1.
         -5    1    4    4    0  503  0.26161433856E+02  0.21952111229E+01  0.21301598836E+02  0.34133380821E+02  0.47000000000E+01 0.  1.
<mgrwt>
<rscale>  0 0.92723429E+02</rscale>
<asrwt>0</asrwt>
<pdfrwt beam="1">  1        4 0.43949531E-01 0.92766172E+02</pdfrwt>
<pdfrwt beam="2">  1       -4 0.71775013E-02 0.92766172E+02</pdfrwt>
<totfact> 0.10089003E+03</totfact>
</mgrwt>
</event>
<event>
 8    1  0.6396648E-004  0.1350051E+03  0.7546771E-02  0.1220518E+00
          1   -1    0    0  501    0  0.00000000000E+00  0.00000000000E+00  0.30609492399E+03  0.30609492399E+03  0.00000000000E+00 0. -1.
         -1   -1    0    0    0  501 -0.00000000000E+00 -0.00000000000E+00 -0.59687383294E+02  0.59687383294E+02  0.00000000000E+00 0.  1.
         23    2    1    2    0    0 -0.88457544877E+02  0.44149881460E+02  0.10570615281E+03  0.17078677516E+03  0.90666325328E+02 0.  0.
         23    2    1    2    0    0  0.88457544877E+02 -0.44149881460E+02  0.14070138789E+03  0.19499553213E+03  0.91937085647E+02 0.  0.
          5    1    3    3  502    0 -0.29391715479E+02 -0.24493196786E+02  0.54171943284E+02  0.66486683380E+02  0.47000000000E+01 0. -1.
         -5    1    4    4    0  503  0.59565961816E+01  0.21673119796E+02  0.58643545942E+01  0.23699911700E+02  0.47000000000E+01 0.  1.
          5    1    4    4  503    0  0.82500948695E+02 -0.65823001256E+02  0.13483703329E+03  0.17129562043E+03  0.47000000000E+01 0. -1.
         -5    1    3    3    0  502 -0.59065829397E+02  0.68643078246E+02  0.51534209524E+02  0.10430009178E+03  0.47000000000E+01 0.  1.
<mgrwt>
<rscale>  0 0.13478905E+03</rscale>
<asrwt>0</asrwt>
<pdfrwt beam="1">  1        1 0.47091526E-01 0.13500510E+03</pdfrwt>
<pdfrwt beam="2">  1       -1 0.91826745E-02 0.13500510E+03</pdfrwt>
<totfact> 0.56834877E+03</totfact>
</mgrwt>
</event>
<event>
 8    1  0.6396648E-004  0.9604011E+02  0.7546771E-02  0.1292195E+00
         -2   -1    0    0    0  501 -0.00000000000E+00  0.00000000000E+00  0.10029174351E+02  0.10029174351E+02  0.00000000000E+00 0.  1.
          2   -1    0    0  501    0  0.00000000000E+00 -0.00000000000E+00 -0.86549346136E+03  0.86549346136E+03  0.00000000000E+00 0. -1.
         23    2    1    2    0    0  0.12937048054E+02 -0.18005997408E+02 -0.40134770267E+03  0.41136148349E+03  0.87445460182E+02 0.  0.
         23    2    1    2    0    0 -0.12937048054E+02  0.18005997408E+02 -0.45411658433E+03  0.46416115221E+03  0.93445812655E+02 0.  0.
          5    1    3    3  502    0  0.40741954153E+02 -0.28903628843E+02 -0.33116642882E+03  0.33494569734E+03  0.47000000000E+01 0. -1.
         -5    1    4    4    0  503 -0.26436066395E+01 -0.34658564130E+02 -0.27178660481E+03  0.27404060516E+03  0.47000000000E+01 0.  1.
          5    1    4    4  503    0 -0.10293441415E+02  0.52664561537E+02 -0.18232997952E+03  0.19012054705E+03  0.47000000000E+01 0. -1.
         -5    1    3    3    0  502 -0.27804906099E+02  0.10897631435E+02 -0.70181273852E+02  0.76415786154E+02  0.47000000000E+01 0.  1.
<mgrwt>
<rscale>  0 0.94548828E+02</rscale>
<asrwt>0</asrwt>
<pdfrwt beam="1">  1        2 0.13315287E+00 0.96040112E+02</pdfrwt>
<pdfrwt beam="2">  1       -2 0.15429496E-02 0.96040112E+02</pdfrwt>
<totfact> 0.33044439E+04</totfact>
</mgrwt>
</event>
<event>
 8    1  0.6396648E-004  0.9819581E+02  0.7546771E-02  0.1285852E+00
          1   -1    0    0  501    0  0.00000000000E+00  0.00000000000E+00  0.41988302260E+03  0.41988302260E+03  0.00000000000E+00 0. -1.
         -1   -1    0    0    0  501 -0.00000000000E+00 -0.00000000000E+00 -0.50127140755E+02  0.50127140755E+02  0.00000000000E+00 0.  1.
         23    2    1    2    0    0  0.28838563984E+02  0.15813298305E+02  0.35882843220E+03  0.37120820461E+03  0.89196212005E+02 0.  0.
         23    2    1    2    0    0 -0.28838563984E+02 -0.15813298305E+02  0.10927449643E+02  0.98801958747E+02  0.92524022397E+02 0.  0.
          5    1    4    4  502    0 -0.52108883728E+02 -0.38810066393E+02  0.73676056277E+01  0.65558589289E+02  0.47000000000E+01 0. -1.
         -5    1    3    3    0  503  0.57912036862E+02  0.17944496666E+02  0.29010301018E+03  0.29640792076E+03  0.47000000000E+01 0.  1.
          5    1    3    3  503    0 -0.29073472878E+02 -0.21311983603E+01  0.68725422023E+02  0.74800283849E+02  0.47000000000E+01 0. -1.
         -5    1    4    4    0  502  0.23270319745E+02  0.22996768088E+02  0.35598440151E+01  0.33243369458E+02  0.47000000000E+01 0.  1.
<mgrwt>
<rscale>  0 0.97404023E+02</rscale>
<asrwt>0</asrwt>
<pdfrwt beam="1">  1        1 0.64597386E-01 0.98195814E+02</pdfrwt>
<pdfrwt beam="2">  1       -1 0.77118681E-02 0.98195814E+02</pdfrwt>
<totfact> 0.48935020E+03</totfact>
</mgrwt>
</event>
<event>
 8    1  0.6396648E-004  0.1257387E+03  0.7546771E-02  0.1234086E+00
         -2   -1    0    0    0  501 -0.00000000000E+00  0.00000000000E+00  0.45428268616E+02  0.45428268616E+02  0.00000000000E+00 0.  1.
          2   -1    0    0  501    0  0.00000000000E+00 -0.00000000000E+00 -0.34748958047E+03  0.34748958047E+03  0.00000000000E+00 0. -1.
         23    2    1    2    0    0  0.66414851360E+02  0.53933676528E+02 -0.14229259241E+03  0.18960462913E+03  0.91558503629E+02 0.  0.
         23    2    1    2    0    0 -0.66414851360E+02 -0.53933676528E+02 -0.15976871944E+03  0.20331321996E+03  0.92143625673E+02 0.  0.
          5    1    4    4  502    0 -0.52865395317E+02  0.90814600479E+01 -0.39497706475E+02  0.66778602526E+02  0.47000000000E+01 0. -1.
         -5    1    4    4    0  502 -0.13549456043E+02 -0.63015136576E+02 -0.12027101297E+03  0.13653461743E+03  0.47000000000E+01 0.  1.
          5    1    3    3  503    0  0.26370932994E+02  0.26829334520E+02 -0.13531253711E+03  0.14052335036E+03  0.47000000000E+01 0. -1.
         -5    1    3    3    0  503  0.40043918365E+02  0.27104342008E+02 -0.69800553065E+01  0.49081278771E+02  0.47000000000E+01 0.  1.
<mgrwt>
<rscale>  0 0.12563153E+03</rscale>
<asrwt>0</asrwt>
<pdfrwt beam="1">  1        2 0.53459935E-01 0.12573870E+03</pdfrwt>
<pdfrwt beam="2">  1       -2 0.69889645E-02 0.12573870E+03</pdfrwt>
<totfact> 0.10247868E+04</totfact>
</mgrwt>
</event>
<event>
 7    1  0.6396648E-004  0.2291778E+03  0.7546771E-02  0.1137045E+00
         -1   -1    0    0    0  501 -0.00000000000E+00  0.00000000000E+00  0.20338100560E+03  0.20338100560E+03  0.00000000000E+00 0.  1.
          1   -1    0    0  501    0  0.00000000000E+00 -0.00000000000E+00 -0.20857157854E+03  0.20857157854E+03  0.00000000000E+00 0. -1.
         23    2    1    2    0    0 -0.12269544912E+03 -0.10408439338E+03 -0.24925589635E+02  0.18192664645E+03  0.81168254201E+02 0.  0.
          5    1    1    2  502    0  0.86039181463E+02 -0.28010299997E+02  0.20325902147E+02  0.92857686547E+02  0.47000000000E+01 0. -1.
         -5    1    3    3    0  503 -0.97592396874E+02 -0.58698907648E+02  0.16775829841E+02  0.11521005231E+03  0.47000000000E+01 0.  1.
          5    1    3    3  503    0 -0.25103052245E+02 -0.45385485735E+02 -0.41701419475E+02  0.66716594140E+02  0.47000000000E+01 0. -1.
         -5    1    1    2    0  502  0.36656267656E+02  0.13209469338E+03 -0.59088545376E+00  0.13716825115E+03  0.47000000000E+01 0.  1.
<mgrwt>
<rscale>  0 0.21581158E+03</rscale>
<asrwt>0</asrwt>
<pdfrwt beam="1">  1        1 0.32087935E-01 0.22917779E+03</pdfrwt>
<pdfrwt beam="2">  1       -1 0.31289385E-01 0.22917779E+03</pdfrwt>
<totfact> 0.13169992E+03</totfact>
</mgrwt>
</event>
<event>
 8    1  0.6396648E-004  0.1020640E+03  0.7546771E-02  0.1277144E+00
          3   -1    0    0  501    0  0.00000000000E+00  0.00000000000E+00  0.44350939319E+02  0.44350939319E+02  0.00000000000E+00 0. -1.
         -3   -1    0    0    0  501 -0.00000000000E+00 -0.00000000000E+00 -0.39507071806E+03  0.39507071806E+03  0.00000000000E+00 0.  1.
         23    2    1    2    0    0  0.30575508055E+02 -0.31803278842E+02 -0.31632268936E+03  0.33171731517E+03  0.89610396378E+02 0.  0.
         23    2    1    2    0    0 -0.30575508055E+02  0.31803278842E+02 -0.34397089380E+02  0.10770434221E+03  0.92036706459E+02 0.  0.
          5    1    4    4  502    0 -0.56408790239E+02  0.43401856909E+01 -0.39792331224E+02  0.69327544687E+02  0.47000000000E+01 0. -1.
         -5    1    4    4    0  502  0.25833282184E+02  0.27463093151E+02  0.53952418439E+01  0.38376797526E+02  0.47000000000E+01 0.  1.
          5    1    3    3  503    0  0.47354561821E+02 -0.90837379996E+01 -0.78986515869E+02  0.92660285508E+02  0.47000000000E+01 0. -1.
         -5    1    3    3    0  503 -0.16779053766E+02 -0.22719540842E+02 -0.23733617349E+03  0.23905702966E+03  0.47000000000E+01 0.  1.
<mgrwt>
<rscale>  0 0.10151399E+03</rscale>
<asrwt>0</asrwt>
<pdfrwt beam="1">  1        3 0.68232212E-02 0.10206403E+03</pdfrwt>
<pdfrwt beam="2">  1       -3 0.60780112E-01 0.10206403E+03</pdfrwt>
<totfact> 0.81666452E+02</totfact>
</mgrwt>
</event>
<event>
 8    1  0.6396648E-004  0.9271948E+02  0.7546771E-02  0.1300082E+00
          1   -1    0    0  501    0  0.00000000000E+00  0.00000000000E+00  0.62259288724E+03  0.62259288724E+03  0.00000000000E+00 0. -1.
         -1   -1    0    0    0  501 -0.00000000000E+00 -0.00000000000E+00 -0.15821301363E+02  0.15821301363E+02  0.00000000000E+00 0.  1.
         23    2    1    2    0    0 -0.85479328165E+01 -0.12433554591E+02  0.15817831712E+03  0.18033906003E+03  0.85288546295E+02 0.  0.
         23    2    1    2    0    0  0.85479328165E+01  0.12433554591E+02  0.44859326875E+03  0.45807512857E+03  0.91483562521E+02 0.  0.
          5    1    4    4  502    0  0.34499469920E+02  0.31385572960E+02  0.13707690524E+03  0.14487040956E+03  0.47000000000E+01 0. -1.
         -5    1    4    4    0  502 -0.25951537103E+02 -0.18952018369E+02  0.31151636351E+03  0.31320471901E+03  0.47000000000E+01 0.  1.
          5    1    3    3  503    0 -0.22962808362E+02 -0.32071515172E+02  0.14847853378E+03  0.15370048030E+03  0.47000000000E+01 0. -1.
         -5    1    3    3    0  503  0.14414875546E+02  0.19637960581E+02  0.96997833449E+01  0.26638579724E+02  0.47000000000E+01 0.  1.
<mgrwt>
<rscale>  0 0.91153619E+02</rscale>
<asrwt>0</asrwt>
<pdfrwt beam="1">  1        1 0.95783502E-01 0.92719484E+02</pdfrwt>
<pdfrwt beam="2">  1       -1 0.24340468E-02 0.92719484E+02</pdfrwt>
<totfact> 0.15741858E+04</totfact>
</mgrwt>
</event>
<event>
 8    1  0.6396648E-004  0.1079362E+03  0.7546771E-02  0.1264793E+00
          1   -1    0    0  501    0  0.00000000000E+00  0.00000000000E+00  0.17318394207E+03  0.17318394207E+03  0.00000000000E+00 0. -1.
         -1   -1    0    0    0  501 -0.00000000000E+00 -0.00000000000E+00 -0.13697055228E+03  0.13697055228E+03  0.00000000000E+00 0.  1.
         23    2    1    2    0    0  0.36999263471E+02 -0.44034044584E+02 -0.92912433200E+02  0.14185802704E+03  0.90460140465E+02 0.  0.
         23    2    1    2    0    0 -0.36999263471E+02  0.44034044584E+02  0.12912582298E+03  0.16829646731E+03  0.91336083601E+02 0.  0.
          5    1    4    4  502    0 -0.61928058453E+02  0.52361479559E+02  0.97701105544E+02  0.12706063509E+03  0.47000000000E+01 0. -1.
         -5    1    3    3    0  503  0.34878932225E+00 -0.60557192308E+02 -0.77684326671E+02  0.98611560197E+02  0.47000000000E+01 0.  1.
          5    1    3    3  503    0  0.36650474149E+02  0.16523147724E+02 -0.15228106529E+02  0.43246466844E+02  0.47000000000E+01 0. -1.
         -5    1    4    4    0  502  0.24928794982E+02 -0.83274349752E+01  0.31424717439E+02  0.41235832217E+02  0.47000000000E+01 0.  1.
<mgrwt>
<rscale>  0 0.10775067E+03</rscale>
<asrwt>0</asrwt>
<pdfrwt beam="1">  1        1 0.26643683E-01 0.10793620E+03</pdfrwt>
<pdfrwt beam="2">  1       -1 0.21072393E-01 0.10793620E+03</pdfrwt>
<totfact> 0.31130668E+03</totfact>
</mgrwt>
</event>
<event>
 8    1  0.6396648E-004  0.1152088E+03  0.7546771E-02  0.1251698E+00
         -3   -1    0    0    0  501 -0.00000000000E+00  0.00000000000E+00  0.98996116381E+02  0.98996116381E+02  0.00000000000E+00 0.  1.
          3   -1    0    0  501    0  0.00000000000E+00 -0.00000000000E+00 -0.13336634187E+03  0.13336634187E+03  0.00000000000E+00 0. -1.
         23    2    1    2    0    0  0.12362972271E+01  0.69867639066E+02 -0.95442463385E+01  0.11450912745E+03  0.90212151127E+02 0.  0.
         23    2    1    2    0    0 -0.12362972271E+01 -0.69867639066E+02 -0.24825979152E+02  0.11785333080E+03  0.91597286649E+02 0.  0.
          5    1    4    4  502    0  0.71512516668E+01 -0.45764579266E+02 -0.58864632693E+02  0.75051129891E+02  0.47000000000E+01 0. -1.
         -5    1    4    4    0  502 -0.83875488939E+01 -0.24103059801E+02  0.34038653541E+02  0.42802200914E+02  0.47000000000E+01 0.  1.
          5    1    3    3  503    0  0.44271829200E+02  0.22303569093E+02 -0.40511784547E+01  0.49959444571E+02  0.47000000000E+01 0. -1.
         -5    1    3    3    0  503 -0.43035531973E+02  0.47564069973E+02 -0.54930678838E+01  0.64549682876E+02  0.47000000000E+01 0.  1.
<mgrwt>
<rscale>  0 0.11493332E+03</rscale>
<asrwt>0</asrwt>
<pdfrwt beam="1">  1        3 0.20517899E-01 0.11520885E+03</pdfrwt>
<pdfrwt beam="2">  1       -3 0.15230172E-01 0.11520885E+03</pdfrwt>
<totfact> 0.17285951E+03</totfact>
</mgrwt>
</event>
<event>
 8    1  0.6396648E-004  0.1309672E+03  0.7546771E-02  0.1226411E+00
          3   -1    0    0  501    0  0.00000000000E+00  0.00000000000E+00  0.18984735272E+03  0.18984735272E+03  0.00000000000E+00 0. -1.
         -3   -1    0    0    0  501 -0.00000000000E+00 -0.00000000000E+00 -0.11756759468E+03  0.11756759468E+03  0.00000000000E+00 0.  1.
         23    2    1    2    0    0  0.26032812576E+02 -0.87593179823E+02 -0.38674923000E+02  0.13655823566E+03  0.93819665184E+02 0.  0.
         23    2    1    2    0    0 -0.26032812576E+02  0.87593179823E+02  0.11095468104E+03  0.17085671174E+03  0.92362342010E+02 0.  0.
          5    1    4    4  502    0  0.11431703542E+01  0.90183657125E+02  0.11107228811E+03  0.14315565667E+03  0.47000000000E+01 0. -1.
         -5    1    4    4    0  502 -0.27175982930E+02 -0.25904773021E+01 -0.11760706831E+00  0.27701055076E+02  0.47000000000E+01 0.  1.
          5    1    3    3  503    0  0.52213031190E+02 -0.42815872754E+02  0.59847224384E+01  0.67950765179E+02  0.47000000000E+01 0. -1.
         -5    1    3    3    0  503 -0.26180218614E+02 -0.44777307068E+02 -0.44659645439E+02  0.68607470480E+02  0.47000000000E+01 0.  1.
<mgrwt>
<rscale>  0 0.13070640E+03</rscale>
<asrwt>0</asrwt>
<pdfrwt beam="1">  1        3 0.29207285E-01 0.13096718E+03</pdfrwt>
<pdfrwt beam="2">  1       -3 0.18087322E-01 0.13096718E+03</pdfrwt>
<totfact> 0.69586961E+02</totfact>
</mgrwt>
</event>
<event>
 8    1  0.6396648E-004  0.1926911E+03  0.7546771E-02  0.1156085E+00
         -1   -1    0    0    0  501 -0.00000000000E+00  0.00000000000E+00  0.36181396327E+03  0.36181396327E+03  0.00000000000E+00 0.  1.
          1   -1    0    0  501    0  0.00000000000E+00 -0.00000000000E+00 -0.10265050038E+03  0.10265050038E+03  0.00000000000E+00 0. -1.
         23    2    1    2    0    0 -0.16799239333E+03  0.21061122974E+02  0.12238445327E+03  0.22816308513E+03  0.91735619563E+02 0.  0.
         23    2    1    2    0    0  0.16799239333E+03 -0.21061122974E+02  0.13677900962E+03  0.23630137852E+03  0.92004504783E+02 0.  0.
          5    1    3    3  502    0 -0.11116267991E+03 -0.30452941900E+02  0.66556496942E+02  0.13317800254E+03  0.47000000000E+01 0. -1.
         -5    1    3    3    0  502 -0.56829713420E+02  0.51514064874E+02  0.55827956330E+02  0.94985082593E+02  0.47000000000E+01 0.  1.
          5    1    4    4  503    0  0.45853577295E+02  0.44751633916E+01  0.93156497494E+02  0.10403269036E+03  0.47000000000E+01 0. -1.
         -5    1    4    4    0  503  0.12213881603E+03 -0.25536286365E+02  0.43622512127E+02  0.13226868816E+03  0.47000000000E+01 0.  1.
<mgrwt>
<rscale>  0 0.19265899E+03</rscale>
<asrwt>0</asrwt>
<pdfrwt beam="1">  1        1 0.15792385E-01 0.19269106E+03</pdfrwt>
<pdfrwt beam="2">  1       -1 0.55663686E-01 0.19269106E+03</pdfrwt>
<totfact> 0.11603035E+03</totfact>
</mgrwt>
</event>
<event>
 8    1  0.6396648E-004  0.9283386E+02  0.7546771E-02  0.1296337E+00
         -2   -1    0    0    0  501 -0.00000000000E+00  0.00000000000E+00  0.16073053503E+02  0.16073053503E+02  0.00000000000E+00 0.  1.
          2   -1    0    0  501    0  0.00000000000E+00 -0.00000000000E+00 -0.69107200184E+03  0.69107200184E+03  0.00000000000E+00 0. -1.
         23    2    1    2    0    0 -0.87893632266E+01  0.84259368066E+01 -0.16950971548E+03  0.19326580135E+03  0.92031934736E+02 0.  0.
         23    2    1    2    0    0  0.87893632266E+01 -0.84259368066E+01 -0.50548923286E+03  0.51387925400E+03  0.91674826617E+02 0.  0.
          5    1    3    3  502    0  0.59174674911E+00  0.48390251199E+02 -0.11507818635E+03  0.12492816155E+03  0.47000000000E+01 0. -1.
         -5    1    3    3    0  502 -0.93811099757E+01 -0.39964314393E+02 -0.54431529129E+02  0.68337639793E+02  0.47000000000E+01 0.  1.
          5    1    4    4  503    0  0.19258688352E+02  0.38866665000E+02 -0.25520958151E+03  0.25891221528E+03  0.47000000000E+01 0. -1.
         -5    1    4    4    0  503 -0.10469325125E+02 -0.47292601807E+02 -0.25027965135E+03  0.25496703872E+03  0.47000000000E+01 0.  1.
<mgrwt>
<rscale>  0 0.92745234E+02</rscale>
<asrwt>0</asrwt>
<pdfrwt beam="1">  1        2 0.10631877E+00 0.92833864E+02</pdfrwt>
<pdfrwt beam="2">  1       -2 0.24727775E-02 0.92833864E+02</pdfrwt>
<totfact> 0.21955990E+04</totfact>
</mgrwt>
</event>
<event>
 8    1  0.6396648E-004  0.9373596E+02  0.7546771E-02  0.1294228E+00
          1   -1    0    0  501    0  0.00000000000E+00  0.00000000000E+00  0.18694989818E+03  0.18694989818E+03  0.00000000000E+00 0. -1.
         -1   -1    0    0    0  501 -0.00000000000E+00 -0.00000000000E+00 -0.86297371443E+02  0.86297371443E+02  0.00000000000E+00 0.  1.
         23    2    1    2    0    0  0.20993277357E+02  0.82401814484E+01  0.14275225269E+03  0.17077656452E+03  0.90982476642E+02 0.  0.
         23    2    1    2    0    0 -0.20993277357E+02 -0.82401814484E+01 -0.42099725949E+02  0.10247070511E+03  0.90660025347E+02 0.  0.
          5    1    3    3  502    0 -0.27926206994E+02  0.27099770369E+02  0.44418011296E+02  0.59239516529E+02  0.47000000000E+01 0. -1.
         -5    1    4    4    0  503 -0.20805024940E+02 -0.33111876424E+02 -0.59784157508E+02  0.71592464073E+02  0.47000000000E+01 0.  1.
          5    1    4    4  503    0 -0.18825241728E+00  0.24871694975E+02  0.17684431559E+02  0.30878241036E+02  0.47000000000E+01 0. -1.
         -5    1    3    3    0  502  0.48919484352E+02 -0.18859588921E+02  0.98334241391E+02  0.11153704799E+03  0.47000000000E+01 0.  1.
<mgrwt>
<rscale>  0 0.93657621E+02</rscale>
<asrwt>0</asrwt>
<pdfrwt beam="1">  1        1 0.28761523E-01 0.93735955E+02</pdfrwt>
<pdfrwt beam="2">  1       -1 0.13276519E-01 0.93735955E+02</pdfrwt>
<totfact> 0.57937550E+03</totfact>
</mgrwt>
</event>
<event>
 8    1  0.6396648E-004  0.1014757E+03  0.7546771E-02  0.1281595E+00
         -2   -1    0    0    0  501 -0.00000000000E+00  0.00000000000E+00  0.75077421767E+01  0.75077421767E+01  0.00000000000E+00 0.  1.
          2   -1    0    0  501    0  0.00000000000E+00 -0.00000000000E+00 -0.12748337886E+04  0.12748337886E+04  0.00000000000E+00 0. -1.
         23    2    1    2    0    0 -0.92738387268E+01  0.14372442625E+02 -0.54886391673E+03  0.55674856924E+03  0.91786704226E+02 0.  0.
         23    2    1    2    0    0  0.92738387268E+01 -0.14372442625E+02 -0.71846212970E+03  0.72559296154E+03  0.10002371136E+03 0.  0.
          5    1    4    4  502    0 -0.48168863483E+00  0.41256537928E+02 -0.39776146410E+03  0.39992325047E+03  0.47000000000E+01 0. -1.
         -5    1    4    4    0  502  0.97555273617E+01 -0.55628980553E+02 -0.32070066560E+03  0.32566971107E+03  0.47000000000E+01 0.  1.
          5    1    3    3  503    0  0.22303463357E+02 -0.30063573098E+02 -0.18657667100E+03  0.19035284885E+03  0.47000000000E+01 0. -1.
         -5    1    3    3    0  503 -0.31577302084E+02  0.44436015722E+02 -0.36228724574E+03  0.36639572039E+03  0.47000000000E+01 0.  1.
<mgrwt>
<rscale>  0 0.99384732E+02</rscale>
<asrwt>0</asrwt>
<pdfrwt beam="1">  1        2 0.19612817E+00 0.10147568E+03</pdfrwt>
<pdfrwt beam="2">  1       -2 0.11550379E-02 0.10147568E+03</pdfrwt>
<totfact> 0.29189754E+04</totfact>
</mgrwt>
</event>
<event>
 8    1  0.6396648E-004  0.9809049E+02  0.7546771E-02  0.1284862E+00
          1   -1    0    0  501    0  0.00000000000E+00  0.00000000000E+00  0.50503896081E+03  0.50503896081E+03  0.00000000000E+00 0. -1.
         -1   -1    0    0    0  501 -0.00000000000E+00 -0.00000000000E+00 -0.21731963598E+02  0.21731963598E+02  0.00000000000E+00 0.  1.
         23    2    1    2    0    0 -0.80709427162E+01  0.26135348023E+02  0.33816737822E+03  0.35210640314E+03  0.94199505908E+02 0.  0.
         23    2    1    2    0    0  0.80709427162E+01 -0.26135348023E+02  0.14513961900E+03  0.17466452126E+03  0.93241565052E+02 0.  0.
          5    1    3    3  502    0 -0.42020328857E+02  0.13831917022E+02  0.27977579792E+03  0.28329069358E+03  0.47000000000E+01 0. -1.
         -5    1    3    3    0  502  0.33949386141E+02  0.12303431001E+02  0.58391580294E+02  0.68815709565E+02  0.47000000000E+01 0.  1.
          5    1    4    4  503    0 -0.12058381182E+02 -0.57868092729E+02  0.89091878580E+02  0.10702136956E+03  0.47000000000E+01 0. -1.
         -5    1    4    4    0  503  0.20129323898E+02  0.31732744706E+02  0.56047740418E+02  0.67643151709E+02  0.47000000000E+01 0.  1.
<mgrwt>
<rscale>  0 0.97859780E+02</rscale>
<asrwt>0</asrwt>
<pdfrwt beam="1">  1        1 0.77698293E-01 0.98090486E+02</pdfrwt>
<pdfrwt beam="2">  1       -1 0.33433794E-02 0.98090486E+02</pdfrwt>
<totfact> 0.13201879E+04</totfact>
</mgrwt>
</event>
<event>
 8    1  0.6396648E-004  0.1066185E+03  0.7546771E-02  0.1268166E+00
         -1   -1    0    0    0  501 -0.00000000000E+00  0.00000000000E+00  0.57813567283E+02  0.57813567283E+02  0.00000000000E+00 0.  1.
          1   -1    0    0  501    0  0.00000000000E+00 -0.00000000000E+00 -0.19623078198E+03  0.19623078198E+03  0.00000000000E+00 0. -1.
         23    2    1    2    0    0  0.56537127112E+02  0.10063574586E+02 -0.88403766041E+02  0.13850172928E+03  0.89831959167E+02 0.  0.
         23    2    1    2    0    0 -0.56537127112E+02 -0.10063574586E+02 -0.50013448657E+02  0.11554261998E+03  0.86896661103E+02 0.  0.
          5    1    4    4  502    0 -0.48821777627E+02 -0.45883511676E+02 -0.34007076306E+02  0.75282360837E+02  0.47000000000E+01 0. -1.
         -5    1    4    4    0  502 -0.77153494854E+01  0.35819937090E+02 -0.16006372351E+02  0.40260259148E+02  0.47000000000E+01 0.  1.
          5    1    3    3  503    0  0.23139127972E+02 -0.34310608830E+02 -0.66807728319E+02  0.78727375701E+02  0.47000000000E+01 0. -1.
         -5    1    3    3    0  503  0.33397999140E+02  0.44374183416E+02 -0.21596037721E+02  0.59774353578E+02  0.47000000000E+01 0.  1.
<mgrwt>
<rscale>  0 0.10599781E+03</rscale>
<asrwt>0</asrwt>
<pdfrwt beam="1">  1        1 0.30189351E-01 0.10661849E+03</pdfrwt>
<pdfrwt beam="2">  1       -1 0.88943950E-02 0.10661849E+03</pdfrwt>
<totfact> 0.10143624E+04</totfact>
</mgrwt>
</event>
<event>
 8    1  0.6396648E-004  0.1185143E+03  0.7546771E-02  0.1245605E+00
          2   -1    0    0  501    0  0.00000000000E+00  0.00000000000E+00  0.36303925134E+03  0.36303925134E+03  0.00000000000E+00 0. -1.
         -2   -1    0    0    0  501 -0.00000000000E+00 -0.00000000000E+00 -0.44612404905E+02  0.44612404905E+02  0.00000000000E+00 0.  1.
         23    2    1    2    0    0 -0.64470766343E+02 -0.43139716944E+02  0.84714599286E+02  0.14560766507E+03  0.89484713243E+02 0.  0.
         23    2    1    2    0    0  0.64470766343E+02  0.43139716944E+02  0.23371224715E+03  0.26204399118E+03  0.89599798841E+02 0.  0.
          5    1    3    3  502    0  0.20049864184E+02  0.45433285032E+01  0.18281190130E+02  0.27909331777E+02  0.47000000000E+01 0. -1.
         -5    1    4    4    0  503  0.28326034163E+02  0.31498890638E+02  0.24091054740E+02  0.48959301887E+02  0.47000000000E+01 0.  1.
          5    1    4    4  503    0  0.36144732180E+02  0.11640826306E+02  0.20962119241E+03  0.21308468929E+03  0.47000000000E+01 0. -1.
         -5    1    3    3    0  502 -0.84520630528E+02 -0.47683045447E+02  0.66433409157E+02  0.11769833329E+03  0.47000000000E+01 0.  1.
<mgrwt>
<rscale>  0 0.11849255E+03</rscale>
<asrwt>0</asrwt>
<pdfrwt beam="1">  1        2 0.55852191E-01 0.11851430E+03</pdfrwt>
<pdfrwt beam="2">  1       -2 0.68634471E-02 0.11851430E+03</pdfrwt>
<totfact> 0.10012462E+04</totfact>
</mgrwt>
</event>
<event>
 8    1  0.6396648E-004  0.1294627E+03  0.7546771E-02  0.1228617E+00
          3   -1    0    0  501    0  0.00000000000E+00  0.00000000000E+00  0.16826396627E+03  0.16826396627E+03  0.00000000000E+00 0. -1.
         -3   -1    0    0    0  501 -0.00000000000E+00 -0.00000000000E+00 -0.10807441549E+03  0.10807441549E+03  0.00000000000E+00 0.  1.
         23    2    1    2    0    0  0.81003554139E+02  0.40592927636E+02 -0.10335404442E+02  0.12891263597E+03  0.91116878620E+02 0.  0.
         23    2    1    2    0    0 -0.81003554139E+02 -0.40592927636E+02  0.70524955227E+02  0.14742574579E+03  0.92472804953E+02 0.  0.
          5    1    4    4  502    0 -0.30692223958E+01 -0.37695067114E+02 -0.53881793082E+01  0.38489747819E+02  0.47000000000E+01 0. -1.
         -5    1    4    4    0  502 -0.77934331744E+02 -0.28978605217E+01  0.75913134535E+02  0.10893599798E+03  0.47000000000E+01 0.  1.
          5    1    3    3  503    0  0.92728515071E+02  0.18226787716E+02  0.11347647129E+02  0.95297704029E+02  0.47000000000E+01 0. -1.
         -5    1    3    3    0  503 -0.11724960932E+02  0.22366139920E+02 -0.21683051571E+02  0.33614931938E+02  0.47000000000E+01 0.  1.
<mgrwt>
<rscale>  0 0.12922073E+03</rscale>
<asrwt>0</asrwt>
<pdfrwt beam="1">  1        3 0.25886764E-01 0.12946266E+03</pdfrwt>
<pdfrwt beam="2">  1       -3 0.16626833E-01 0.12946266E+03</pdfrwt>
<totfact> 0.10018647E+03</totfact>
</mgrwt>
</event>
<event>
 8    1  0.6396648E-004  0.1067156E+03  0.7546771E-02  0.1271894E+00
         -1   -1    0    0    0  501 -0.00000000000E+00  0.00000000000E+00  0.72291530723E+02  0.72291530723E+02  0.00000000000E+00 0.  1.
          1   -1    0    0  501    0  0.00000000000E+00 -0.00000000000E+00 -0.15028445191E+03  0.15028445191E+03  0.00000000000E+00 0. -1.
         23    2    1    2    0    0  0.34935673672E+02 -0.14619079332E+02 -0.61595969371E+02  0.11460804373E+03  0.88919747350E+02 0.  0.
         23    2    1    2    0    0 -0.34935673672E+02  0.14619079332E+02 -0.16396951820E+02  0.10796793891E+03  0.99769719995E+02 0.  0.
          5    1    3    3  502    0  0.29912254898E+02 -0.36468590442E+02 -0.74511798177E+02  0.88310809924E+02  0.47000000000E+01 0. -1.
         -5    1    4    4    0  503 -0.63484956099E+02  0.32732696587E+02 -0.17947802158E+02  0.73796901554E+02  0.47000000000E+01 0.  1.
          5    1    4    4  503    0  0.28549282427E+02 -0.18113617255E+02  0.15508503381E+01  0.34171037355E+02  0.47000000000E+01 0. -1.
         -5    1    3    3    0  502  0.50234187741E+01  0.21849511110E+02  0.12915828806E+02  0.26297233803E+02  0.47000000000E+01 0.  1.
<mgrwt>
<rscale>  0 0.10410455E+03</rscale>
<asrwt>0</asrwt>
<pdfrwt beam="1">  1        1 0.23120685E-01 0.10671558E+03</pdfrwt>
<pdfrwt beam="2">  1       -1 0.11121774E-01 0.10671558E+03</pdfrwt>
<totfact> 0.10069142E+04</totfact>
</mgrwt>
</event>
<event>
 8    1  0.6396648E-004  0.1023912E+03  0.7546771E-02  0.1280699E+00
          1   -1    0    0  501    0  0.00000000000E+00  0.00000000000E+00  0.34512174617E+03  0.34512174617E+03  0.00000000000E+00 0. -1.
         -1   -1    0    0    0  501 -0.00000000000E+00 -0.00000000000E+00 -0.37113683684E+02  0.37113683684E+02  0.00000000000E+00 0.  1.
         23    2    1    2    0    0 -0.12499213958E+02  0.12276470054E+02  0.24536265418E+03  0.26220042075E+03  0.90770515660E+02 0.  0.
         23    2    1    2    0    0  0.12499213958E+02 -0.12276470054E+02  0.62645408306E+02  0.12003500909E+03  0.10088118834E+03 0.  0.
          5    1    4    4  502    0  0.26872907430E+02  0.36059225749E+02  0.50826184009E+02  0.68028022875E+02  0.47000000000E+01 0. -1.
         -5    1    4    4    0  502 -0.14373693471E+02 -0.48335695802E+02  0.11819224297E+02  0.52006986220E+02  0.47000000000E+01 0.  1.
          5    1    3    3  503    0  0.30179758786E+02  0.67137541137E+01  0.32979870953E+02  0.45449468894E+02  0.47000000000E+01 0. -1.
         -5    1    3    3    0  503 -0.42678972744E+02  0.55627159399E+01  0.21238278322E+03  0.21675095186E+03  0.47000000000E+01 0.  1.
<mgrwt>
<rscale>  0 0.99808784E+02</rscale>
<asrwt>0</asrwt>
<pdfrwt beam="1">  1        1 0.53095651E-01 0.10239119E+03</pdfrwt>
<pdfrwt beam="2">  1       -1 0.57097977E-02 0.10239119E+03</pdfrwt>
<totfact> 0.97817535E+03</totfact>
</mgrwt>
</event>
<event>
 8    1  0.6396648E-004  0.1095539E+03  0.7546771E-02  0.1262026E+00
         -1   -1    0    0    0  501 -0.00000000000E+00  0.00000000000E+00  0.32510074227E+03  0.32510074227E+03  0.00000000000E+00 0.  1.
          1   -1    0    0  501    0  0.00000000000E+00 -0.00000000000E+00 -0.36793975039E+02  0.36793975039E+02  0.00000000000E+00 0. -1.
         23    2    1    2    0    0 -0.49296748710E+02 -0.34668249765E+02  0.12623060097E+03  0.16626562971E+03  0.89877906218E+02 0.  0.
         23    2    1    2    0    0  0.49296748710E+02  0.34668249765E+02  0.16207616626E+03  0.19562908760E+03  0.91487700105E+02 0.  0.
          5    1    3    3  502    0 -0.28637179846E+02  0.15838606353E+02  0.52645300106E+01  0.33477676099E+02  0.47000000000E+01 0. -1.
         -5    1    4    4    0  503  0.73138497032E+02  0.18179122655E+02  0.88069884778E+02  0.11600911539E+03  0.47000000000E+01 0.  1.
          5    1    4    4  503    0 -0.23841748323E+02  0.16489127110E+02  0.74006281483E+02  0.79619972211E+02  0.47000000000E+01 0. -1.
         -5    1    3    3    0  502 -0.20659568864E+02 -0.50506856118E+02  0.12096607096E+03  0.13278795361E+03  0.47000000000E+01 0.  1.
<mgrwt>
<rscale>  0 0.10921717E+03</rscale>
<asrwt>0</asrwt>
<pdfrwt beam="1">  1        1 0.56606118E-02 0.10955390E+03</pdfrwt>
<pdfrwt beam="2">  1       -1 0.50015497E-01 0.10955390E+03</pdfrwt>
<totfact> 0.53921003E+03</totfact>
</mgrwt>
</event>
<event>
 8    1  0.6396648E-004  0.1086267E+03  0.7546771E-02  0.1264790E+00
          1   -1    0    0  501    0  0.00000000000E+00  0.00000000000E+00  0.99860321214E+02  0.99860321214E+02  0.00000000000E+00 0. -1.
         -1   -1    0    0    0  501 -0.00000000000E+00 -0.00000000000E+00 -0.12893168204E+03  0.12893168204E+03  0.00000000000E+00 0.  1.
         23    2    1    2    0    0 -0.20179359866E+02  0.56525981587E+02 -0.52682683511E+02  0.11762885569E+03  0.86363704122E+02 0.  0.
         23    2    1    2    0    0  0.20179359866E+02 -0.56525981587E+02  0.23611322687E+02  0.11116314756E+03  0.90539260314E+02 0.  0.
          5    1    4    4  502    0  0.29115751695E+02 -0.29703491852E+02 -0.29227211641E+02  0.51052368459E+02  0.47000000000E+01 0. -1.
         -5    1    3    3    0  503 -0.39444630626E+02  0.40840809656E+02 -0.67494681295E+02  0.88325945349E+02  0.47000000000E+01 0.  1.
          5    1    3    3  503    0  0.19265270761E+02  0.15685171931E+02  0.14811997785E+02  0.29302910339E+02  0.47000000000E+01 0. -1.
         -5    1    4    4    0  502 -0.89363918290E+01 -0.26822489735E+02  0.52838534328E+02  0.60110779104E+02  0.47000000000E+01 0.  1.
<mgrwt>
<rscale>  0 0.10775242E+03</rscale>
<asrwt>0</asrwt>
<pdfrwt beam="1">  1        1 0.15363126E-01 0.10862666E+03</pdfrwt>
<pdfrwt beam="2">  1       -1 0.19835644E-01 0.10862666E+03</pdfrwt>
<totfact> 0.68737006E+03</totfact>
</mgrwt>
</event>
<event>
 8    1  0.6396648E-004  0.1150453E+03  0.7546771E-02  0.1251842E+00
          2   -1    0    0  501    0  0.00000000000E+00  0.00000000000E+00  0.10195559987E+04  0.10195559987E+04  0.00000000000E+00 0. -1.
         -2   -1    0    0    0  501 -0.00000000000E+00 -0.00000000000E+00 -0.18558416568E+02  0.18558416568E+02  0.00000000000E+00 0.  1.
         23    2    1    2    0    0  0.19089945026E+02 -0.67110659769E+02  0.21491746919E+03  0.24377229526E+03  0.91472108942E+02 0.  0.
         23    2    1    2    0    0 -0.19089945026E+02  0.67110659769E+02  0.78608011293E+03  0.79434212001E+03  0.90494160103E+02 0.  0.
          5    1    4    4  502    0 -0.49633416086E+02  0.29040800092E+02  0.56233330122E+03  0.56528548161E+03  0.47000000000E+01 0. -1.
         -5    1    4    4    0  502  0.30543471060E+02  0.38069859678E+02  0.22374681171E+03  0.22905663839E+03  0.47000000000E+01 0.  1.
          5    1    3    3  503    0 -0.22953893427E+02 -0.66493754733E+02  0.15645396590E+03  0.17160487781E+03  0.47000000000E+01 0. -1.
         -5    1    3    3    0  503  0.42043838453E+02 -0.61690503656E+00  0.58463503290E+02  0.72167417444E+02  0.47000000000E+01 0.  1.
<mgrwt>
<rscale>  0 0.11485077E+03</rscale>
<asrwt>0</asrwt>
<pdfrwt beam="1">  1        2 0.15685473E+00 0.11504527E+03</pdfrwt>
<pdfrwt beam="2">  1       -2 0.28551418E-02 0.11504527E+03</pdfrwt>
<totfact> 0.11106208E+04</totfact>
</mgrwt>
</event>
<event>
 8    1  0.6396648E-004  0.1139192E+03  0.7546771E-02  0.1254376E+00
          4   -1    0    0  501    0  0.00000000000E+00  0.00000000000E+00  0.20480465982E+03  0.20480465982E+03  0.00000000000E+00 0. -1.
         -4   -1    0    0    0  501 -0.00000000000E+00 -0.00000000000E+00 -0.71454496532E+02  0.71454496532E+02  0.00000000000E+00 0.  1.
         23    2    1    2    0    0  0.64243226351E+02  0.16423999600E+02  0.17626851354E+02  0.11527486075E+03  0.92631785780E+02 0.  0.
         23    2    1    2    0    0 -0.64243226351E+02 -0.16423999600E+02  0.11572331193E+03  0.16098429560E+03  0.90150533060E+02 0.  0.
          5    1    4    4  502    0 -0.36258013926E+02 -0.47324628467E+02  0.33178755865E+02  0.68389939860E+02  0.47000000000E+01 0. -1.
         -5    1    4    4    0  502 -0.27985212425E+02  0.30900628867E+02  0.82544556065E+02  0.92594355739E+02  0.47000000000E+01 0.  1.
          5    1    3    3  503    0  0.43782530500E+02 -0.26268249897E+02  0.37696617278E+02  0.63640049370E+02  0.47000000000E+01 0. -1.
         -5    1    3    3    0  503  0.20460695851E+02  0.42692249496E+02 -0.20069765924E+02  0.51634811378E+02  0.47000000000E+01 0.  1.
<mgrwt>
<rscale>  0 0.11341379E+03</rscale>
<asrwt>0</asrwt>
<pdfrwt beam="1">  1        4 0.31508409E-01 0.11391922E+03</pdfrwt>
<pdfrwt beam="2">  1       -4 0.10993000E-01 0.11391922E+03</pdfrwt>
<totfact> 0.99363024E+02</totfact>
</mgrwt>
</event>
<event>
 8    1  0.6396648E-004  0.1104692E+03  0.7546771E-02  0.1261460E+00
         -1   -1    0    0    0  501 -0.00000000000E+00  0.00000000000E+00  0.35636197312E+02  0.35636197312E+02  0.00000000000E+00 0.  1.
          1   -1    0    0  501    0  0.00000000000E+00 -0.00000000000E+00 -0.38020260081E+03  0.38020260081E+03  0.00000000000E+00 0. -1.
         23    2    1    2    0    0  0.42214292437E+02 -0.19107833769E+02 -0.10003052742E+03  0.14902869326E+03  0.10028105105E+03 0.  0.
         23    2    1    2    0    0 -0.42214292437E+02  0.19107833769E+02 -0.24453587607E+03  0.26681010486E+03  0.96138866084E+02 0.  0.
          5    1    4    4  502    0 -0.68218589764E+02  0.31393180028E+02 -0.19897788661E+03  0.21272892869E+03  0.47000000000E+01 0. -1.
         -5    1    4    4    0  502  0.26004297327E+02 -0.12285346259E+02 -0.45557989458E+02  0.54081176167E+02  0.47000000000E+01 0.  1.
          5    1    3    3  503    0 -0.10582841611E+02  0.33518923769E+02 -0.37538436905E+02  0.51640478623E+02  0.47000000000E+01 0. -1.
         -5    1    3    3    0  503  0.52797134048E+02 -0.52626757537E+02 -0.62492090520E+02  0.97388214637E+02  0.47000000000E+01 0.  1.
<mgrwt>
<rscale>  0 0.10952055E+03</rscale>
<asrwt>0</asrwt>
<pdfrwt beam="1">  1        1 0.58492703E-01 0.11046920E+03</pdfrwt>
<pdfrwt beam="2">  1       -1 0.54824923E-02 0.11046920E+03</pdfrwt>
<totfact> 0.92675660E+03</totfact>
</mgrwt>
</event>
<event>
 8    1  0.6396648E-004  0.9703634E+02  0.7546771E-02  0.1287180E+00
         -1   -1    0    0    0  501 -0.00000000000E+00  0.00000000000E+00  0.11247785752E+03  0.11247785752E+03  0.00000000000E+00 0.  1.
          1   -1    0    0  501    0  0.00000000000E+00 -0.00000000000E+00 -0.28625811085E+03  0.28625811085E+03  0.00000000000E+00 0. -1.
         23    2    1    2    0    0  0.14253286874E+02  0.18557128448E+02 -0.25505482771E+03  0.27289011880E+03  0.94172865512E+02 0.  0.
         23    2    1    2    0    0 -0.14253286874E+02 -0.18557128448E+02  0.81274574387E+02  0.12584584957E+03  0.93188508996E+02 0.  0.
          5    1    3    3  502    0  0.41191833180E+02  0.25882782901E+02 -0.22984056841E+03  0.23497970648E+03  0.47000000000E+01 0. -1.
         -5    1    3    3    0  502 -0.26938546306E+02 -0.73256544522E+01 -0.25214259301E+02  0.37910412321E+02  0.47000000000E+01 0.  1.
          5    1    4    4  503    0 -0.99092081218E+01 -0.55571461390E+02  0.36427690894E+02  0.67345722882E+02  0.47000000000E+01 0. -1.
         -5    1    4    4    0  503 -0.43440787522E+01  0.37014332942E+02  0.44846883493E+02  0.58500126687E+02  0.47000000000E+01 0.  1.
<mgrwt>
<rscale>  0 0.96796703E+02</rscale>
<asrwt>0</asrwt>
<pdfrwt beam="1">  1        1 0.44039709E-01 0.97036343E+02</pdfrwt>
<pdfrwt beam="2">  1       -1 0.17304286E-01 0.97036343E+02</pdfrwt>
<totfact> 0.22824989E+03</totfact>
</mgrwt>
</event>
<event>
 8    1  0.6396648E-004  0.1118449E+03  0.7546771E-02  0.1259484E+00
          2   -1    0    0  501    0  0.00000000000E+00  0.00000000000E+00  0.19261610969E+02  0.19261610969E+02  0.00000000000E+00 0. -1.
         -2   -1    0    0    0  501 -0.00000000000E+00 -0.00000000000E+00 -0.11376080497E+04  0.11376080497E+04  0.00000000000E+00 0.  1.
         23    2    1    2    0    0  0.62455193806E+02 -0.14619011202E+02 -0.17635123666E+03  0.20882777129E+03  0.91623756034E+02 0.  0.
         23    2    1    2    0    0 -0.62455193806E+02  0.14619011202E+02 -0.94199520203E+03  0.94804188934E+03  0.85522491575E+02 0.  0.
          5    1    3    3  502    0 -0.52371222123E+01 -0.38982589894E+02 -0.57677934656E+02  0.69970736098E+02  0.47000000000E+01 0. -1.
         -5    1    4    4    0  503 -0.80791016229E+02  0.25004368563E+02 -0.78831819953E+03  0.79285564919E+03  0.47000000000E+01 0.  1.
          5    1    4    4  503    0  0.18335822423E+02 -0.10385357361E+02 -0.15367700251E+03  0.15518624015E+03  0.47000000000E+01 0. -1.
         -5    1    3    3    0  502  0.67692316018E+02  0.24363578692E+02 -0.11867330200E+03  0.13885703520E+03  0.47000000000E+01 0.  1.
<mgrwt>
<rscale>  0 0.11058866E+03</rscale>
<asrwt>0</asrwt>
<pdfrwt beam="1">  1        2 0.29633245E-02 0.11184489E+03</pdfrwt>
<pdfrwt beam="2">  1       -2 0.17501664E+00 0.11184489E+03</pdfrwt>
<totfact> 0.64685390E+02</totfact>
</mgrwt>
</event>
<event>
 8    1  0.6396648E-004  0.9027626E+02  0.7546771E-02  0.1307101E+00
         -1   -1    0    0    0  501 -0.00000000000E+00  0.00000000000E+00  0.17662211404E+02  0.17662211404E+02  0.00000000000E+00 0.  1.
          1   -1    0    0  501    0  0.00000000000E+00 -0.00000000000E+00 -0.42498850921E+03  0.42498850921E+03  0.00000000000E+00 0. -1.
         23    2    1    2    0    0  0.66457407442E+01  0.82764138928E+00 -0.17786976405E+03  0.19607394888E+03  0.82234357832E+02 0.  0.
         23    2    1    2    0    0 -0.66457407442E+01 -0.82764138928E+00 -0.22945653376E+03  0.24657677174E+03  0.90027510310E+02 0.  0.
          5    1    4    4  502    0  0.37933056222E+02 -0.18029814185E+02 -0.10685695599E+03  0.11491079147E+03  0.47000000000E+01 0. -1.
         -5    1    4    4    0  502 -0.44578796966E+02  0.17202172796E+02 -0.12259957777E+03  0.13166598026E+03  0.47000000000E+01 0.  1.
          5    1    3    3  503    0  0.17796491491E+02 -0.37570559657E+02 -0.10038167915E+03  0.10875124630E+03  0.47000000000E+01 0. -1.
         -5    1    3    3    0  503 -0.11150750747E+02  0.38398201046E+02 -0.77488084897E+02  0.87322702585E+02  0.47000000000E+01 0.  1.
<mgrwt>
<rscale>  0 0.88267812E+02</rscale>
<asrwt>0</asrwt>
<pdfrwt beam="1">  1        1 0.65382844E-01 0.90276262E+02</pdfrwt>
<pdfrwt beam="2">  1       -1 0.27172634E-02 0.90276262E+02</pdfrwt>
<totfact> 0.21988954E+04</totfact>
</mgrwt>
</event>
<event>
 8    1  0.6396648E-004  0.9700857E+02  0.7546771E-02  0.1286765E+00
         -1   -1    0    0    0  501 -0.00000000000E+00  0.00000000000E+00  0.42771526469E+02  0.42771526469E+02  0.00000000000E+00 0.  1.
          1   -1    0    0  501    0  0.00000000000E+00 -0.00000000000E+00 -0.50327743735E+03  0.50327743735E+03  0.00000000000E+00 0. -1.
         23    2    1    2    0    0 -0.19836146817E+02 -0.11530927717E+01 -0.25398752677E+02  0.10027841029E+03  0.94951885659E+02 0.  0.
         23    2    1    2    0    0  0.19836146817E+02  0.11530927717E+01 -0.43510715821E+03  0.44577055352E+03  0.94859606392E+02 0.  0.
          5    1    3    3  502    0  0.33649950346E+02 -0.14628084949E+02 -0.25485528640E+02  0.44921066301E+02  0.47000000000E+01 0. -1.
         -5    1    4    4    0  503 -0.20047832888E+02  0.10194767893E+02 -0.26412551227E+02  0.35008024198E+02  0.47000000000E+01 0.  1.
          5    1    4    4  503    0  0.39883979705E+02 -0.90416751211E+01 -0.40869460698E+03  0.41076252933E+03  0.47000000000E+01 0. -1.
         -5    1    3    3    0  502 -0.53486097164E+02  0.13474992177E+02  0.86775962702E-01  0.55357343994E+02  0.47000000000E+01 0.  1.
<mgrwt>
<rscale>  0 0.96985983E+02</rscale>
<asrwt>0</asrwt>
<pdfrwt beam="1">  1        1 0.77427296E-01 0.97008571E+02</pdfrwt>
<pdfrwt beam="2">  1       -1 0.65802351E-02 0.97008571E+02</pdfrwt>
<totfact> 0.49191281E+03</totfact>
</mgrwt>
</event>
<event>
 8    1  0.6396648E-004  0.1136980E+03  0.7546771E-02  0.1258834E+00
         -2   -1    0    0    0  501 -0.00000000000E+00  0.00000000000E+00  0.53452323322E+02  0.53452323322E+02  0.00000000000E+00 0.  1.
          2   -1    0    0  501    0  0.00000000000E+00 -0.00000000000E+00 -0.35470869956E+03  0.35470869956E+03  0.00000000000E+00 0. -1.
         23    2    1    2    0    0 -0.30382089049E+02 -0.56057142200E+02 -0.28098394346E+03  0.30311584882E+03  0.94136957660E+02 0.  0.
         23    2    1    2    0    0  0.30382089049E+02  0.56057142200E+02 -0.20272432783E+02  0.10504517407E+03  0.80981741996E+02 0.  0.
          5    1    3    3  502    0 -0.62185554693E+02 -0.50897543739E+02 -0.21396560099E+03  0.22860658691E+03  0.47000000000E+01 0. -1.
         -5    1    4    4    0  503  0.52086469122E+02  0.24746102412E+02  0.65338537012E+01  0.58225004031E+02  0.47000000000E+01 0.  1.
          5    1    4    4  503    0 -0.21704380073E+02  0.31311039788E+02 -0.26806286484E+02  0.46820170034E+02  0.47000000000E+01 0. -1.
         -5    1    3    3    0  502  0.31803465644E+02 -0.51595984619E+01 -0.67018342464E+02  0.74509261907E+02  0.47000000000E+01 0.  1.
<mgrwt>
<rscale>  0 0.11094257E+03</rscale>
<asrwt>0</asrwt>
<pdfrwt beam="1">  1        2 0.54570571E-01 0.11369803E+03</pdfrwt>
<pdfrwt beam="2">  1       -2 0.82234341E-02 0.11369803E+03</pdfrwt>
<totfact> 0.77560063E+03</totfact>
</mgrwt>
</event>
<event>
 8    1  0.6396648E-004  0.1061001E+03  0.7546771E-02  0.1276905E+00
         -2   -1    0    0    0  501 -0.00000000000E+00  0.00000000000E+00  0.17186616037E+02  0.17186616037E+02  0.00000000000E+00 0.  1.
          2   -1    0    0  501    0  0.00000000000E+00 -0.00000000000E+00 -0.56599496123E+03  0.56599496123E+03  0.00000000000E+00 0. -1.
         23    2    1    2    0    0 -0.37162613829E+02 -0.63056060197E+01 -0.29085195080E+03  0.30425735076E+03  0.80974426059E+02 0.  0.
         23    2    1    2    0    0  0.37162613829E+02  0.63056060197E+01 -0.25795639440E+03  0.27892422651E+03  0.99178637762E+02 0.  0.
          5    1    3    3  502    0  0.18532277222E+02 -0.15078947220E+02 -0.15792108877E+03  0.15978729682E+03  0.47000000000E+01 0.  1.
         -5    1    4    4    0  503  0.57756951100E+02 -0.26995278489E+02 -0.12735947145E+03  0.14250310674E+03  0.47000000000E+01 0.  1.
          5    1    4    4  503    0 -0.20594337271E+02  0.33300884509E+02 -0.13059692294E+03  0.13642111977E+03  0.47000000000E+01 0. -1.
         -5    1    3    3    0  502 -0.55694891051E+02  0.87733412005E+01 -0.13293086203E+03  0.14447005394E+03  0.47000000000E+01 0. -1.
<mgrwt>
<rscale>  0 0.10162985E+03</rscale>
<asrwt>0</asrwt>
<pdfrwt beam="1">  1        2 0.87076140E-01 0.10610006E+03</pdfrwt>
<pdfrwt beam="2">  1       -2 0.26440950E-02 0.10610006E+03</pdfrwt>
<totfact> 0.25320429E+04</totfact>
</mgrwt>
</event>
<event>
 8    1  0.6396648E-004  0.1894922E+03  0.7546771E-02  0.1159244E+00
          2   -1    0    0  501    0  0.00000000000E+00  0.00000000000E+00  0.42807439539E+03  0.42807439539E+03  0.00000000000E+00 0. -1.
         -2   -1    0    0    0  501 -0.00000000000E+00 -0.00000000000E+00 -0.89285782821E+02  0.89285782821E+02  0.00000000000E+00 0.  1.
         23    2    1    2    0    0 -0.13886877488E+03 -0.87261811656E+02  0.10155336229E+03  0.21373563847E+03  0.92036282803E+02 0.  0.
         23    2    1    2    0    0  0.13886877488E+03  0.87261811656E+02  0.23723525027E+03  0.30362453973E+03  0.94911204541E+02 0.  0.
          5    1    4    4  502    0  0.12329784955E+03  0.10720657924E+03  0.19881697551E+03  0.25738276960E+03  0.47000000000E+01 0. -1.
         -5    1    4    4    0  502  0.15570925328E+02 -0.19944767583E+02  0.38418274759E+02  0.46241770132E+02  0.47000000000E+01 0.  1.
          5    1    3    3  503    0 -0.12659415275E+03 -0.49514946463E+02  0.10744629222E+03  0.17333379689E+03  0.47000000000E+01 0. -1.
         -5    1    3    3    0  503 -0.12274622126E+02 -0.37746865193E+02 -0.58929299240E+01  0.40401841584E+02  0.47000000000E+01 0.  1.
<mgrwt>
<rscale>  0 0.18913533E+03</rscale>
<asrwt>0</asrwt>
<pdfrwt beam="1">  1        2 0.65857598E-01 0.18949221E+03</pdfrwt>
<pdfrwt beam="2">  1       -2 0.13736275E-01 0.18949221E+03</pdfrwt>
<totfact> 0.28906014E+03</totfact>
</mgrwt>
</event>
<event>
 8    1  0.6396648E-004  0.1004709E+03  0.7546771E-02  0.1281523E+00
         -2   -1    0    0    0  501 -0.00000000000E+00  0.00000000000E+00  0.18727172117E+02  0.18727172117E+02  0.00000000000E+00 0.  1.
          2   -1    0    0  501    0  0.00000000000E+00 -0.00000000000E+00 -0.52260158851E+03  0.52260158851E+03  0.00000000000E+00 0. -1.
         23    2    1    2    0    0 -0.15267233919E+02 -0.27343051810E+02 -0.27463339316E+03  0.29103723509E+03  0.91095777389E+02 0.  0.
         23    2    1    2    0    0  0.15267233919E+02  0.27343051810E+02 -0.22924102324E+03  0.25029152554E+03  0.95465544086E+02 0.  0.
          5    1    4    4  502    0  0.23490524950E+02  0.56764057176E+02 -0.10041910006E+03  0.11781361809E+03  0.47000000000E+01 0. -1.
         -5    1    4    4    0  502 -0.82232910315E+01 -0.29421005365E+02 -0.12882192318E+03  0.13247790746E+03  0.47000000000E+01 0.  1.
          5    1    3    3  503    0 -0.34986770709E+02 -0.78317011883E+01 -0.25293366589E+03  0.25550526220E+03  0.47000000000E+01 0. -1.
         -5    1    3    3    0  503  0.19719536790E+02 -0.19511350622E+02 -0.21699727262E+02  0.35531972892E+02  0.47000000000E+01 0.  1.
<mgrwt>
<rscale>  0 0.99418878E+02</rscale>
<asrwt>0</asrwt>
<pdfrwt beam="1">  1        2 0.80400227E-01 0.10047090E+03</pdfrwt>
<pdfrwt beam="2">  1       -2 0.28811040E-02 0.10047090E+03</pdfrwt>
<totfact> 0.24268015E+04</totfact>
</mgrwt>
</event>
<event>
 8    1  0.6396648E-004  0.9887888E+02  0.7546771E-02  0.1282911E+00
          1   -1    0    0  501    0  0.00000000000E+00  0.00000000000E+00  0.30603747093E+03  0.30603747093E+03  0.00000000000E+00 0. -1.
         -1   -1    0    0    0  501 -0.00000000000E+00 -0.00000000000E+00 -0.45881422426E+02  0.45881422426E+02  0.00000000000E+00 0.  1.
         23    2    1    2    0    0 -0.38272646231E+02  0.12715420297E+02  0.22775444231E+03  0.24829240548E+03  0.90280425697E+02 0.  0.
         23    2    1    2    0    0  0.38272646231E+02 -0.12715420297E+02  0.32401606192E+02  0.10362648787E+03  0.89789239570E+02 0.  0.
          5    1    3    3  502    0 -0.54795032914E+02  0.59311985897E+00  0.69413186447E+02  0.88561435603E+02  0.47000000000E+01 0. -1.
         -5    1    3    3    0  502  0.16522386684E+02  0.12122300438E+02  0.15834125586E+03  0.15973096988E+03  0.47000000000E+01 0.  1.
          5    1    4    4  503    0  0.78830008219E+01 -0.28936300576E+02  0.54533095053E+02  0.62413136830E+02  0.47000000000E+01 0. -1.
         -5    1    4    4    0  503  0.30389645409E+02  0.16220880279E+02 -0.22131488861E+02  0.41213351044E+02  0.47000000000E+01 0.  1.
<mgrwt>
<rscale>  0 0.98766620E+02</rscale>
<asrwt>0</asrwt>
<pdfrwt beam="1">  1        1 0.47082687E-01 0.98878879E+02</pdfrwt>
<pdfrwt beam="2">  1       -1 0.70586806E-02 0.98878879E+02</pdfrwt>
<totfact> 0.82594989E+03</totfact>
</mgrwt>
</event>
<event>
 8    1  0.6396648E-004  0.1198523E+03  0.7546771E-02  0.1243707E+00
          4   -1    0    0  501    0  0.00000000000E+00  0.00000000000E+00  0.36995383202E+03  0.36995383202E+03  0.00000000000E+00 0. -1.
         -4   -1    0    0    0  501 -0.00000000000E+00 -0.00000000000E+00 -0.55211008533E+02  0.55211008533E+02  0.00000000000E+00 0.  1.
         23    2    1    2    0    0 -0.10014253972E+02  0.76716702705E+02  0.40972340524E+02  0.12666214191E+03  0.91535936930E+02 0.  0.
         23    2    1    2    0    0  0.10014253972E+02 -0.76716702705E+02  0.27377048296E+03  0.29850269863E+03  0.90376136208E+02 0.  0.
          5    1    4    4  502    0  0.12991341206E+02 -0.52047404509E+02  0.26692639870E+03  0.27230405723E+03  0.47000000000E+01 0. -1.
         -5    1    3    3    0  503 -0.40430222455E+02  0.47434547000E+02 -0.66370733206E+01  0.62855229529E+02  0.47000000000E+01 0.  1.
          5    1    3    3  503    0  0.30415968483E+02  0.29282155705E+02  0.47609413845E+02  0.63806912385E+02  0.47000000000E+01 0. -1.
         -5    1    4    4    0  502 -0.29770872341E+01 -0.24669298196E+02  0.68440842572E+01  0.26198641400E+02  0.47000000000E+01 0.  1.
<mgrwt>
<rscale>  0 0.11963079E+03</rscale>
<asrwt>0</asrwt>
<pdfrwt beam="1">  1        4 0.56915973E-01 0.11985227E+03</pdfrwt>
<pdfrwt beam="2">  1       -4 0.84940015E-02 0.11985227E+03</pdfrwt>
<totfact> 0.47961444E+02</totfact>
</mgrwt>
</event>
<event>
 8    1  0.6396648E-004  0.9821819E+02  0.7546771E-02  0.1285190E+00
          2   -1    0    0  501    0  0.00000000000E+00  0.00000000000E+00  0.14941748244E+02  0.14941748244E+02  0.00000000000E+00 0. -1.
         -2   -1    0    0    0  501 -0.00000000000E+00 -0.00000000000E+00 -0.64112162941E+03  0.64112162941E+03  0.00000000000E+00 0.  1.
         23    2    1    2    0    0 -0.77705631370E+01  0.25007356652E+02 -0.34814641493E+03  0.36119150523E+03  0.92561480529E+02 0.  0.
         23    2    1    2    0    0  0.77705631370E+01 -0.25007356652E+02 -0.27803346624E+03  0.29487187243E+03  0.94662892760E+02 0.  0.
          5    1    4    4  502    0  0.32627844415E+02  0.16806799045E+02 -0.53292055525E+02  0.64878177436E+02  0.47000000000E+01 0. -1.
         -5    1    3    3    0  503  0.10407483236E+02 -0.29540371247E+02 -0.65969420567E+02  0.73177890723E+02  0.47000000000E+01 0.  1.
          5    1    3    3  503    0 -0.18178046373E+02  0.54547727900E+02 -0.28217699437E+03  0.28801361450E+03  0.47000000000E+01 0. -1.
         -5    1    4    4    0  502 -0.24857281278E+02 -0.41814155697E+02 -0.22474141071E+03  0.22999369499E+03  0.47000000000E+01 0.  1.
<mgrwt>
<rscale>  0 0.97708305E+02</rscale>
<asrwt>0</asrwt>
<pdfrwt beam="1">  1        2 0.22987308E-02 0.98218190E+02</pdfrwt>
<pdfrwt beam="2">  1       -2 0.98634086E-01 0.98218190E+02</pdfrwt>
<totfact> 0.36879125E+03</totfact>
</mgrwt>
</event>
<event>
 8    1  0.6396648E-004  0.1043040E+03  0.7546771E-02  0.1274832E+00
         -3   -1    0    0    0  501 -0.00000000000E+00  0.00000000000E+00  0.92672208595E+02  0.92672208595E+02  0.00000000000E+00 0.  1.
          3   -1    0    0  501    0  0.00000000000E+00 -0.00000000000E+00 -0.14281338197E+03  0.14281338197E+03  0.00000000000E+00 0. -1.
         23    2    1    2    0    0  0.28064287277E+02 -0.10796331246E+02 -0.81923805050E+02  0.13263042290E+03  0.99875694018E+02 0.  0.
         23    2    1    2    0    0 -0.28064287277E+02  0.10796331246E+02  0.31782631674E+02  0.10285516767E+03  0.93085363248E+02 0.  0.
          5    1    3    3  502    0  0.63296675480E+02  0.31480355883E+01 -0.36478656803E+02  0.73274563507E+02  0.47000000000E+01 0. -1.
         -5    1    3    3    0  502 -0.35232388204E+02 -0.13944366834E+02 -0.45445148247E+02  0.59355859392E+02  0.47000000000E+01 0.  1.
          5    1    4    4  503    0 -0.46095506280E+02 -0.42479186371E+01 -0.16166979381E+02  0.49257504345E+02  0.47000000000E+01 0. -1.
         -5    1    4    4    0  503  0.18031219004E+02  0.15044249883E+02  0.47949611055E+02  0.53597663323E+02  0.47000000000E+01 0.  1.
<mgrwt>
<rscale>  0 0.10264416E+03</rscale>
<asrwt>0</asrwt>
<pdfrwt beam="1">  1        3 0.21971289E-01 0.10430398E+03</pdfrwt>
<pdfrwt beam="2">  1       -3 0.14257263E-01 0.10430398E+03</pdfrwt>
<totfact> 0.16827596E+03</totfact>
</mgrwt>
</event>
<event>
 8    1  0.6396648E-004  0.1840067E+03  0.7546771E-02  0.1164333E+00
         -1   -1    0    0    0  501 -0.00000000000E+00  0.00000000000E+00  0.87159006059E+02  0.87159006059E+02  0.00000000000E+00 0.  1.
          1   -1    0    0  501    0  0.00000000000E+00 -0.00000000000E+00 -0.38660307576E+03  0.38660307576E+03  0.00000000000E+00 0. -1.
         23    2    1    2    0    0 -0.15697334992E+03  0.20827000123E+02 -0.16275375692E+03  0.24454013930E+03  0.90756254978E+02 0.  0.
         23    2    1    2    0    0  0.15697334992E+03 -0.20827000123E+02 -0.13669031278E+03  0.22922194252E+03  0.93723320490E+02 0.  0.
          5    1    3    3  502    0 -0.75114394513E+01  0.23589953620E+02 -0.54089133941E+02  0.59671031874E+02  0.47000000000E+01 0. -1.
         -5    1    4    4    0  503  0.11676015041E+03 -0.55154862261E+02 -0.11054710216E+03  0.17005217832E+03  0.47000000000E+01 0.  1.
          5    1    4    4  503    0  0.40213199512E+02  0.34327862138E+02 -0.26143210621E+02  0.59169764200E+02  0.47000000000E+01 0. -1.
         -5    1    3    3    0  502 -0.14946191047E+03 -0.27629534966E+01 -0.10866462298E+03  0.18486910742E+03  0.47000000000E+01 0.  1.
<mgrwt>
<rscale>  0 0.18363218E+03</rscale>
<asrwt>0</asrwt>
<pdfrwt beam="1">  1        1 0.59477396E-01 0.18400668E+03</pdfrwt>
<pdfrwt beam="2">  1       -1 0.13409078E-01 0.18400668E+03</pdfrwt>
<totfact> 0.23999600E+03</totfact>
</mgrwt>
</event>
<event>
 8    1  0.6396648E-004  0.1268293E+03  0.7546771E-02  0.1232683E+00
          1   -1    0    0  501    0  0.00000000000E+00  0.00000000000E+00  0.34391434682E+03  0.34391434682E+03  0.00000000000E+00 0. -1.
         -1   -1    0    0    0  501 -0.00000000000E+00 -0.00000000000E+00 -0.46400465124E+02  0.46400465124E+02  0.00000000000E+00 0.  1.
         23    2    1    2    0    0 -0.75670127126E+02 -0.43352199600E+02  0.14144436939E+03  0.18920946779E+03  0.90489401145E+02 0.  0.
         23    2    1    2    0    0  0.75670127126E+02  0.43352199600E+02  0.15606951231E+03  0.20110534416E+03  0.92088465220E+02 0.  0.
          5    1    3    3  502    0  0.20531787530E+02 -0.97871466985E+01  0.32782888238E+02  0.40176489405E+02  0.47000000000E+01 0. -1.
         -5    1    4    4    0  503  0.47287966375E+02  0.58895401890E+02  0.51487818108E+02  0.91530899380E+02  0.47000000000E+01 0.  1.
          5    1    4    4  503    0  0.28382160751E+02 -0.15543202290E+02  0.10458169420E+03  0.10957444478E+03  0.47000000000E+01 0. -1.
         -5    1    3    3    0  502 -0.96201914657E+02 -0.33565052902E+02  0.10866148115E+03  0.14903297838E+03  0.47000000000E+01 0.  1.
<mgrwt>
<rscale>  0 0.12653923E+03</rscale>
<asrwt>0</asrwt>
<pdfrwt beam="1">  1        1 0.52909898E-01 0.12682928E+03</pdfrwt>
<pdfrwt beam="2">  1       -1 0.71385333E-02 0.12682928E+03</pdfrwt>
<totfact> 0.71619795E+03</totfact>
</mgrwt>
</event>
<event>
 8    1  0.6396648E-004  0.1718442E+03  0.7546771E-02  0.1177026E+00
         -1   -1    0    0    0  501 -0.00000000000E+00  0.00000000000E+00  0.45273971665E+02  0.45273971665E+02  0.00000000000E+00 0.  1.
          1   -1    0    0  501    0  0.00000000000E+00 -0.00000000000E+00 -0.10665819841E+04  0.10665819841E+04  0.00000000000E+00 0. -1.
         23    2    1    2    0    0 -0.11625662307E+03 -0.75771621111E+02 -0.16140290393E+03  0.23575694065E+03  0.10135825912E+03 0.  0.
         23    2    1    2    0    0  0.11625662307E+03  0.75771621111E+02 -0.85990510846E+03  0.87609901508E+03  0.94104982281E+02 0.  0.
          5    1    3    3  502    0 -0.39867604361E+02 -0.50465663515E+01  0.35815007142E+01  0.40617863764E+02  0.47000000000E+01 0. -1.
         -5    1    4    4    0  503  0.10865440029E+02  0.36402034319E+02 -0.87190764584E+02  0.95223344397E+02  0.47000000000E+01 0.  1.
          5    1    4    4  503    0  0.10539118304E+03  0.39369586792E+02 -0.77271434387E+03  0.78087567068E+03  0.47000000000E+01 0. -1.
         -5    1    3    3    0  502 -0.76389018707E+02 -0.70725054759E+02 -0.16498440465E+03  0.19513907688E+03  0.47000000000E+01 0.  1.
<mgrwt>
<rscale>  0 0.17079062E+03</rscale>
<asrwt>0</asrwt>
<pdfrwt beam="1">  1        1 0.16408954E+00 0.17184422E+03</pdfrwt>
<pdfrwt beam="2">  1       -1 0.69652262E-02 0.17184422E+03</pdfrwt>
<totfact> 0.15186296E+03</totfact>
</mgrwt>
</event>
<event>
 8    1  0.6396648E-004  0.1066845E+03  0.7546771E-02  0.1268981E+00
         -1   -1    0    0    0  501 -0.00000000000E+00  0.00000000000E+00  0.16774340164E+03  0.16774340164E+03  0.00000000000E+00 0.  1.
          1   -1    0    0  501    0  0.00000000000E+00 -0.00000000000E+00 -0.46207367429E+03  0.46207367429E+03  0.00000000000E+00 0. -1.
         23    2    1    2    0    0  0.49595473601E+02 -0.18961320462E+02 -0.43946653970E+03  0.45223050779E+03  0.92532967008E+02 0.  0.
         23    2    1    2    0    0 -0.49595473601E+02  0.18961320462E+02  0.14513626705E+03  0.17758656814E+03  0.87482629688E+02 0.  0.
          5    1    4    4  502    0 -0.16821279306E+02 -0.27163858638E+02  0.15009018969E+02  0.35611673704E+02  0.47000000000E+01 0. -1.
         -5    1    4    4    0  502 -0.32774194295E+02  0.46125179099E+02  0.13012724808E+03  0.14197489444E+03  0.47000000000E+01 0.  1.
          5    1    3    3  503    0 -0.80031915530E+01  0.18404225886E+02 -0.26516001172E+02  0.33585040176E+02  0.47000000000E+01 0.  1.
         -5    1    3    3    0  503  0.57598665154E+02 -0.37365546348E+02 -0.41295053853E+03  0.41864546761E+03  0.47000000000E+01 0. -1.
<mgrwt>
<rscale>  0 0.10558013E+03</rscale>
<asrwt>0</asrwt>
<pdfrwt beam="1">  1        1 0.71088257E-01 0.10668455E+03</pdfrwt>
<pdfrwt beam="2">  1       -1 0.25806677E-01 0.10668455E+03</pdfrwt>
<totfact> 0.66540531E+02</totfact>
</mgrwt>
</event>
<event>
 8    1  0.6396648E-004  0.1140938E+03  0.7546771E-02  0.1255207E+00
          1   -1    0    0  501    0  0.00000000000E+00  0.00000000000E+00  0.55888502210E+03  0.55888502210E+03  0.00000000000E+00 0. -1.
         -1   -1    0    0    0  501 -0.00000000000E+00 -0.00000000000E+00 -0.98604670765E+02  0.98604670765E+02  0.00000000000E+00 0.  1.
         23    2    1    2    0    0  0.50943229492E+01  0.67323054492E+02 -0.57834145466E+02  0.12791479528E+03  0.91973151932E+02 0.  0.
         23    2    1    2    0    0 -0.50943229492E+01 -0.67323054492E+02  0.51811449680E+03  0.52957489759E+03  0.86305240681E+02 0.  0.
          5    1    3    3  502    0 -0.13817245323E+02  0.18707724846E+02  0.22050341796E+02  0.32391400256E+02  0.47000000000E+01 0. -1.
         -5    1    4    4    0  503  0.30585181301E+02  0.62086800953E+00  0.10951606830E+03  0.11380552714E+03  0.47000000000E+01 0.  1.
          5    1    4    4  503    0 -0.35679504250E+02 -0.67943922501E+02  0.40859842850E+03  0.41576937045E+03  0.47000000000E+01 0. -1.
         -5    1    3    3    0  502  0.18911568273E+02  0.48615329646E+02 -0.79884487261E+02  0.95523395020E+02  0.47000000000E+01 0.  1.
<mgrwt>
<rscale>  0 0.11294726E+03</rscale>
<asrwt>0</asrwt>
<pdfrwt beam="1">  1        1 0.85982309E-01 0.11409385E+03</pdfrwt>
<pdfrwt beam="2">  1       -1 0.15169950E-01 0.11409385E+03</pdfrwt>
<totfact> 0.12147866E+03</totfact>
</mgrwt>
</event>
<event>
 8    1  0.6396648E-004  0.9724960E+02  0.7546771E-02  0.1293869E+00
          2   -1    0    0  501    0  0.00000000000E+00  0.00000000000E+00  0.53512309763E+03  0.53512309763E+03  0.00000000000E+00 0. -1.
         -2   -1    0    0    0  501 -0.00000000000E+00 -0.00000000000E+00 -0.18430042576E+02  0.18430042576E+02  0.00000000000E+00 0.  1.
         23    2    1    2    0    0  0.19003093939E+02  0.14279072500E+02  0.16156925063E+03  0.18857918055E+03  0.94299920976E+02 0.  0.
         23    2    1    2    0    0 -0.19003093939E+02 -0.14279072500E+02  0.35512380442E+03  0.36497395966E+03  0.80796443417E+02 0.  0.
          5    1    4    4  502    0 -0.21135387839E+02  0.30456870885E+02  0.19931932490E+03  0.20279203358E+03  0.47000000000E+01 0. -1.
         -5    1    3    3    0  503 -0.18829004051E+02 -0.28395517524E+02  0.93659158625E+02  0.99774569923E+02  0.47000000000E+01 0.  1.
          5    1    3    3  503    0  0.37832097989E+02  0.42674590024E+02  0.67910092003E+02  0.88804610623E+02  0.47000000000E+01 0. -1.
         -5    1    4    4    0  502  0.21322939002E+01 -0.44735943386E+02  0.15580447952E+03  0.16218192608E+03  0.47000000000E+01 0.  1.
<mgrwt>
<rscale>  0 0.93814546E+02</rscale>
<asrwt>0</asrwt>
<pdfrwt beam="1">  1        2 0.82326619E-01 0.97249599E+02</pdfrwt>
<pdfrwt beam="2">  1       -2 0.28353916E-02 0.97249599E+02</pdfrwt>
<totfact> 0.24124550E+04</totfact>
</mgrwt>
</event>
<event>
 8    1  0.6396648E-004  0.1096057E+03  0.7546771E-02  0.1262019E+00
          1   -1    0    0  501    0  0.00000000000E+00  0.00000000000E+00  0.16167944384E+03  0.16167944384E+03  0.00000000000E+00 0. -1.
         -1   -1    0    0    0  501 -0.00000000000E+00 -0.00000000000E+00 -0.80178006839E+02  0.80178006839E+02  0.00000000000E+00 0.  1.
         23    2    1    2    0    0  0.56902786640E+02 -0.18834856075E+02  0.55192837615E+01  0.10974455825E+03  0.91764517340E+02 0.  0.
         23    2    1    2    0    0 -0.56902786640E+02  0.18834856075E+02  0.75982153235E+02  0.13211289242E+03  0.89932473570E+02 0.  0.
          5    1    4    4  502    0 -0.48977442751E+02  0.52274024808E+02  0.61487373834E+02  0.94520636419E+02  0.47000000000E+01 0. -1.
         -5    1    4    4    0  502 -0.79253438880E+01 -0.33439168733E+02  0.14494779400E+02  0.37592256000E+02  0.47000000000E+01 0.  1.
          5    1    3    3  503    0  0.42162115420E+02  0.31130139234E+02 -0.13096638513E+02  0.54224915728E+02  0.47000000000E+01 0. -1.
         -5    1    3    3    0  503  0.14740671219E+02 -0.49964995308E+02  0.18615922274E+02  0.55519642526E+02  0.47000000000E+01 0.  1.
<mgrwt>
<rscale>  0 0.10922137E+03</rscale>
<asrwt>0</asrwt>
<pdfrwt beam="1">  1        1 0.24873761E-01 0.10960568E+03</pdfrwt>
<pdfrwt beam="2">  1       -1 0.12335078E-01 0.10960568E+03</pdfrwt>
<totfact> 0.78607479E+03</totfact>
</mgrwt>
</event>
<event>
 8    1  0.6396648E-004  0.1234507E+03  0.7546771E-02  0.1248136E+00
          3   -1    0    0  501    0  0.00000000000E+00  0.00000000000E+00  0.10255642628E+03  0.10255642628E+03  0.00000000000E+00 0. -1.
         -3   -1    0    0    0  501 -0.00000000000E+00 -0.00000000000E+00 -0.14624029722E+03  0.14624029722E+03  0.00000000000E+00 0.  1.
         23    2    1    2    0    0  0.37866605589E+02 -0.16258729312E+02 -0.71067687737E+02  0.12234540075E+03  0.90661760108E+02 0.  0.
         23    2    1    2    0    0 -0.37866605589E+02  0.16258729312E+02  0.27383816800E+02  0.12645132275E+03  0.11636940107E+03 0.  0.
          5    1    3    3  502    0 -0.58664004862E+01 -0.38772178843E+02 -0.49485953623E+01  0.39802953445E+02  0.47000000000E+01 0. -1.
         -5    1    3    3    0  502  0.43733006075E+02  0.22513449531E+02 -0.66119092374E+02  0.82542447302E+02  0.47000000000E+01 0.  1.
          5    1    4    4  503    0 -0.48452755305E+02 -0.10491814791E+02  0.63078325690E+02  0.80366117525E+02  0.47000000000E+01 0. -1.
         -5    1    4    4    0  503  0.10586149717E+02  0.26750544102E+02 -0.35694508889E+02  0.46085205223E+02  0.47000000000E+01 0.  1.
<mgrwt>
<rscale>  0 0.11699623E+03</rscale>
<asrwt>0</asrwt>
<pdfrwt beam="1">  1        3 0.15777912E-01 0.12345065E+03</pdfrwt>
<pdfrwt beam="2">  1       -3 0.22498507E-01 0.12345065E+03</pdfrwt>
<totfact> 0.13991782E+03</totfact>
</mgrwt>
</event>
<event>
 8    1  0.6396648E-004  0.9713587E+02  0.7546771E-02  0.1286742E+00
         -3   -1    0    0    0  501 -0.00000000000E+00  0.00000000000E+00  0.65063015657E+02  0.65063015657E+02  0.00000000000E+00 0.  1.
          3   -1    0    0  501    0  0.00000000000E+00 -0.00000000000E+00 -0.15307986457E+03  0.15307986457E+03  0.00000000000E+00 0. -1.
         23    2    1    2    0    0 -0.27237944002E+01 -0.32984275523E+02 -0.70174054358E+02  0.11938184460E+03  0.90731722279E+02 0.  0.
         23    2    1    2    0    0  0.27237944002E+01  0.32984275523E+02 -0.17842794555E+02  0.98761035627E+02  0.91323575011E+02 0.  0.
          5    1    3    3  502    0 -0.19526105417E+02  0.86950832011E+01 -0.70891050955E+02  0.74192347113E+02  0.47000000000E+01 0. -1.
         -5    1    3    3    0  502  0.16802311016E+02 -0.41679358724E+02  0.71699659701E+00  0.45189497488E+02  0.47000000000E+01 0.  1.
          5    1    4    4  503    0  0.42773988539E+02  0.26902634450E+02  0.66613693638E+01  0.51184271781E+02  0.47000000000E+01 0. -1.
         -5    1    4    4    0  503 -0.40050194139E+02  0.60816410728E+01 -0.24504163919E+02  0.47576763846E+02  0.47000000000E+01 0.  1.
<mgrwt>
<rscale>  0 0.96996511E+02</rscale>
<asrwt>0</asrwt>
<pdfrwt beam="1">  1        3 0.23550748E-01 0.97135868E+02</pdfrwt>
<pdfrwt beam="2">  1       -3 0.10009695E-01 0.97135868E+02</pdfrwt>
<totfact> 0.26438283E+03</totfact>
</mgrwt>
</event>
<event>
 8    1  0.6396648E-004  0.1723737E+03  0.7546771E-02  0.1175505E+00
          2   -1    0    0  501    0  0.00000000000E+00  0.00000000000E+00  0.37051694538E+02  0.37051694538E+02  0.00000000000E+00 0.  1.
         -2   -1    0    0    0  501 -0.00000000000E+00 -0.00000000000E+00 -0.85854265599E+03  0.85854265599E+03  0.00000000000E+00 0. -1.
         23    2    1    2    0    0  0.94123173153E+02  0.11186519723E+03 -0.29325787724E+03  0.33994797880E+03  0.90506638733E+02 0.  0.
         23    2    1    2    0    0 -0.94123173153E+02 -0.11186519723E+03 -0.52823308421E+03  0.55564637172E+03  0.91321985708E+02 0.  0.
          5    1    3    3  502    0  0.86272039095E+02  0.32948458239E+02 -0.16081738029E+03  0.18550683393E+03  0.47000000000E+01 0. -1.
         -5    1    3    3    0  502  0.78511340579E+01  0.78916738995E+02 -0.13244049695E+03  0.15444114488E+03  0.47000000000E+01 0.  1.
          5    1    4    4  503    0  0.10233692731E+02 -0.36286461707E+02 -0.18801517350E+03  0.19181561781E+03  0.47000000000E+01 0. -1.
         -5    1    4    4    0  503 -0.10435686588E+03 -0.75578735527E+02 -0.34021791071E+03  0.36383075391E+03  0.47000000000E+01 0.  1.
<mgrwt>
<rscale>  0 0.17226598E+03</rscale>
<asrwt>0</asrwt>
<pdfrwt beam="1">  1        2 0.57002612E-02 0.17237372E+03</pdfrwt>
<pdfrwt beam="2">  1       -2 0.13208347E+00 0.17237372E+03</pdfrwt>
<totfact> 0.57163969E+02</totfact>
</mgrwt>
</event>
<event>
 8    1  0.6396648E-004  0.2211383E+03  0.7546771E-02  0.1133081E+00
         -1   -1    0    0    0  501 -0.00000000000E+00  0.00000000000E+00  0.17575109003E+04  0.17575109003E+04  0.00000000000E+00 0.  1.
          1   -1    0    0  501    0  0.00000000000E+00 -0.00000000000E+00 -0.49198937630E+02  0.49198937630E+02  0.00000000000E+00 0. -1.
         23    2    1    2    0    0 -0.17733211609E+03 -0.94227208606E+02  0.14502550495E+04  0.14670180191E+04  0.92610548296E+02 0.  0.
         23    2    1    2    0    0  0.17733211609E+03  0.94227208606E+02  0.25805691322E+03  0.33969181883E+03  0.92041920260E+02 0.  0.
          5    1    4    4  502    0  0.11988621538E+03  0.12479856953E+02  0.13298251808E+03  0.17954077972E+03  0.47000000000E+01 0. -1.
         -5    1    4    4    0  502  0.57445900712E+02  0.81747351653E+02  0.12507439513E+03  0.16015103911E+03  0.47000000000E+01 0.  1.
          5    1    3    3  503    0 -0.48027356006E+02 -0.20232284008E+00  0.16696788726E+03  0.17380170665E+03  0.47000000000E+01 0. -1.
         -5    1    3    3    0  503 -0.12930476008E+03 -0.94024885766E+02  0.12832871622E+04  0.12932163125E+04  0.47000000000E+01 0.  1.
<mgrwt>
<rscale>  0 0.22107892E+03</rscale>
<asrwt>0</asrwt>
<pdfrwt beam="1">  1        1 0.75690687E-02 0.22113833E+03</pdfrwt>
<pdfrwt beam="2">  1       -1 0.27038624E+00 0.22113833E+03</pdfrwt>
<totfact> 0.56040104E+01</totfact>
</mgrwt>
</event>
<event>
 8    1  0.6396648E-004  0.9845464E+02  0.7546771E-02  0.1285118E+00
         -1   -1    0    0    0  501 -0.00000000000E+00  0.00000000000E+00  0.57082137830E+02  0.57082137830E+02  0.00000000000E+00 0.  1.
          1   -1    0    0  501    0  0.00000000000E+00 -0.00000000000E+00 -0.17754483445E+03  0.17754483445E+03  0.00000000000E+00 0. -1.
         23    2    1    2    0    0 -0.29845071268E+02 -0.74328616887E+01 -0.29843640535E+02  0.10287836745E+03  0.93527214741E+02 0.  0.
         23    2    1    2    0    0  0.29845071268E+02  0.74328616887E+01 -0.90619056081E+02  0.13174860482E+03  0.90553331447E+02 0.  0.
          5    1    4    4  502    0  0.45707589098E+02  0.33340991267E+02 -0.82160630061E+02  0.99866233192E+02  0.47000000000E+01 0. -1.
         -5    1    3    3    0  503 -0.49598883761E+02 -0.14618972331E+02  0.14218565893E+02  0.53833272596E+02  0.47000000000E+01 0.  1.
          5    1    3    3  503    0  0.19753812493E+02  0.71861106418E+01 -0.44062206428E+02  0.49045094856E+02  0.47000000000E+01 0. -1.
         -5    1    4    4    0  502 -0.15862517830E+02 -0.25908129578E+02 -0.84584260196E+01  0.31882371632E+02  0.47000000000E+01 0.  1.
<mgrwt>
<rscale>  0 0.97741799E+02</rscale>
<asrwt>0</asrwt>
<pdfrwt beam="1">  1        1 0.27314590E-01 0.98454637E+02</pdfrwt>
<pdfrwt beam="2">  1       -1 0.87818673E-02 0.98454637E+02</pdfrwt>
<totfact> 0.11616929E+04</totfact>
</mgrwt>
</event>
<event>
 8    1  0.6396648E-004  0.9464510E+02  0.7546771E-02  0.1295701E+00
         -1   -1    0    0    0  501 -0.00000000000E+00  0.00000000000E+00  0.19686308341E+03  0.19686308341E+03  0.00000000000E+00 0.  1.
          1   -1    0    0  501    0  0.00000000000E+00 -0.00000000000E+00 -0.44722887893E+02  0.44722887893E+02  0.00000000000E+00 0. -1.
         23    2    1    2    0    0 -0.94488051163E+01 -0.21502941742E+02  0.51695767803E+02  0.10784316502E+03  0.91684455663E+02 0.  0.
         23    2    1    2    0    0  0.94488051163E+01  0.21502941742E+02  0.10044442771E+03  0.13374280629E+03  0.85125781951E+02 0.  0.
          5    1    3    3  502    0  0.28858493535E+02 -0.16798705347E+00  0.56365099496E+02  0.63497679564E+02  0.47000000000E+01 0. -1.
         -5    1    4    4    0  503  0.25936602628E+02 -0.26471925516E+02  0.41940242054E+02  0.56165328273E+02  0.47000000000E+01 0.  1.
          5    1    4    4  503    0 -0.16487797512E+02  0.47974867258E+02  0.58504185659E+02  0.77577478013E+02  0.47000000000E+01 0. -1.
         -5    1    3    3    0  502 -0.38307298652E+02 -0.21334954688E+02 -0.46693316933E+01  0.44345485452E+02  0.47000000000E+01 0.  1.
<mgrwt>
<rscale>  0 0.93019051E+02</rscale>
<asrwt>0</asrwt>
<pdfrwt beam="1">  1        1 0.68804444E-02 0.94645105E+02</pdfrwt>
<pdfrwt beam="2">  1       -1 0.30286628E-01 0.94645105E+02</pdfrwt>
<totfact> 0.97780540E+03</totfact>
</mgrwt>
</event>
<event>
 8    1  0.6396648E-004  0.1495798E+03  0.7546771E-02  0.1201681E+00
         -1   -1    0    0    0  501 -0.00000000000E+00  0.00000000000E+00  0.30727145544E+02  0.30727145544E+02  0.00000000000E+00 0.  1.
          1   -1    0    0  501    0  0.00000000000E+00 -0.00000000000E+00 -0.73288935003E+03  0.73288935003E+03  0.00000000000E+00 0. -1.
         23    2    1    2    0    0 -0.80845530223E+02 -0.85305841656E+02 -0.29297240218E+03  0.32794411640E+03  0.88889980682E+02 0.  0.
         23    2    1    2    0    0  0.80845530223E+02  0.85305841656E+02 -0.40918980230E+03  0.43567237917E+03  0.92525895215E+02 0.  0.
          5    1    4    4  502    0 -0.19248311391E+02  0.25978853726E+02 -0.76250056220E+02  0.82955165034E+02  0.47000000000E+01 0. -1.
         -5    1    4    4    0  502  0.10009384161E+03  0.59326987930E+02 -0.33293974608E+03  0.35271721414E+03  0.47000000000E+01 0.  1.
          5    1    3    3  503    0 -0.92072718193E+02 -0.49046604255E+02 -0.24682673759E+03  0.26800836407E+03  0.47000000000E+01 0. -1.
         -5    1    3    3    0  503  0.11227187970E+02 -0.36259237400E+02 -0.46145664588E+02  0.59935752325E+02  0.47000000000E+01 0.  1.
<mgrwt>
<rscale>  0 0.14902137E+03</rscale>
<asrwt>0</asrwt>
<pdfrwt beam="1">  1        1 0.11275220E+00 0.14957984E+03</pdfrwt>
<pdfrwt beam="2">  1       -1 0.47272534E-02 0.14957984E+03</pdfrwt>
<totfact> 0.49152297E+03</totfact>
</mgrwt>
</event>
<event>
 8    1  0.6396648E-004  0.9640307E+02  0.7546771E-02  0.1290115E+00
         -2   -1    0    0    0  501 -0.00000000000E+00  0.00000000000E+00  0.35148428345E+02  0.35148428345E+02  0.00000000000E+00 0.  1.
          2   -1    0    0  501    0  0.00000000000E+00 -0.00000000000E+00 -0.40359912038E+03  0.40359912038E+03  0.00000000000E+00 0. -1.
         23    2    1    2    0    0 -0.28191025384E+02 -0.16090961855E+01 -0.48626387261E+02  0.10470992078E+03  0.88330735699E+02 0.  0.
         23    2    1    2    0    0  0.28191025384E+02  0.16090961855E+01 -0.31982430477E+03  0.33403762794E+03  0.92174984977E+02 0.  0.
          5    1    3    3  502    0 -0.23529561832E+02  0.41225428388E+02 -0.15491563698E+02  0.50152315715E+02  0.47000000000E+01 0. -1.
         -5    1    3    3    0  502 -0.46614635524E+01 -0.42834524574E+02 -0.33134823563E+02  0.54557605066E+02  0.47000000000E+01 0.  1.
          5    1    4    4  503    0  0.20884488321E+02 -0.22911088991E+02 -0.29920421319E+03  0.30084270150E+03  0.47000000000E+01 0. -1.
         -5    1    4    4    0  503  0.73065370631E+01  0.24520185176E+02 -0.20620091576E+02  0.33194926443E+02  0.47000000000E+01 0.  1.
<mgrwt>
<rscale>  0 0.95472474E+02</rscale>
<asrwt>0</asrwt>
<pdfrwt beam="1">  1        2 0.62092171E-01 0.96403065E+02</pdfrwt>
<pdfrwt beam="2">  1       -2 0.54074506E-02 0.96403065E+02</pdfrwt>
<totfact> 0.12612268E+04</totfact>
</mgrwt>
</event>
<event>
 8    1  0.6396648E-004  0.1094503E+03  0.7546771E-02  0.1263937E+00
          1   -1    0    0  501    0  0.00000000000E+00  0.00000000000E+00  0.89519658784E+03  0.89519658784E+03  0.00000000000E+00 0. -1.
         -1   -1    0    0    0  501 -0.00000000000E+00 -0.00000000000E+00 -0.12798302390E+02  0.12798302390E+02  0.00000000000E+00 0.  1.
         23    2    1    2    0    0 -0.52981256139E+02 -0.13195234501E+02  0.43857897696E+03  0.45202974168E+03  0.94859056605E+02 0.  0.
         23    2    1    2    0    0  0.52981256139E+02  0.13195234501E+02  0.44381930850E+03  0.45596514855E+03  0.89148810338E+02 0.  0.
          5    1    3    3  502    0  0.21958813912E+02  0.12398532062E+02  0.60423272320E+02  0.65642782875E+02  0.47000000000E+01 0. -1.
         -5    1    4    4    0  503  0.61400100398E+02 -0.18564481099E+02  0.20506381290E+03  0.21491363300E+03  0.47000000000E+01 0.  1.
          5    1    4    4  503    0 -0.84188442585E+01  0.31759715599E+02  0.23875549560E+03  0.24105151556E+03  0.47000000000E+01 0. -1.
         -5    1    3    3    0  502 -0.74940070051E+02 -0.25593766563E+02  0.37815570464E+03  0.38638695881E+03  0.47000000000E+01 0.  1.
<mgrwt>
<rscale>  0 0.10820155E+03</rscale>
<asrwt>0</asrwt>
<pdfrwt beam="1">  1        1 0.13772250E+00 0.10945030E+03</pdfrwt>
<pdfrwt beam="2">  1       -1 0.19689703E-02 0.10945030E+03</pdfrwt>
<totfact> 0.12759528E+04</totfact>
</mgrwt>
</event>
<event>
 8    1  0.6396648E-004  0.1172721E+03  0.7546771E-02  0.1248869E+00
         -1   -1    0    0    0  501 -0.00000000000E+00  0.00000000000E+00  0.27724829813E+03  0.27724829813E+03  0.00000000000E+00 0.  1.
          1   -1    0    0  501    0  0.00000000000E+00 -0.00000000000E+00 -0.11225847652E+03  0.11225847652E+03  0.00000000000E+00 0. -1.
         23    2    1    2    0    0  0.65500255200E+02 -0.26147029910E+02  0.22891426325E+03  0.25594378173E+03  0.90174990348E+02 0.  0.
         23    2    1    2    0    0 -0.65500255200E+02  0.26147029910E+02 -0.63924441644E+02  0.13356299292E+03  0.93695187889E+02 0.  0.
          5    1    4    4  502    0 -0.55566742521E+02  0.55686495307E+02 -0.64807751850E+02  0.10203324622E+03  0.47000000000E+01 0. -1.
         -5    1    3    3    0  503  0.60788292144E+02  0.13017219270E+02  0.19142619112E+03  0.20132248038E+03  0.47000000000E+01 0.  1.
          5    1    3    3  503    0  0.47119630558E+01 -0.39164249180E+02  0.37488072134E+02  0.54621301357E+02  0.47000000000E+01 0. -1.
         -5    1    4    4    0  502 -0.99335126786E+01 -0.29539465397E+02  0.88331020601E+00  0.31529746700E+02  0.47000000000E+01 0.  1.
<mgrwt>
<rscale>  0 0.11656752E+03</rscale>
<asrwt>0</asrwt>
<pdfrwt beam="1">  1        1 0.17270535E-01 0.11727207E+03</pdfrwt>
<pdfrwt beam="2">  1       -1 0.42653584E-01 0.11727207E+03</pdfrwt>
<totfact> 0.16547313E+03</totfact>
</mgrwt>
</event>
<event>
 8    1  0.6396648E-004  0.1235536E+03  0.7546771E-02  0.1237864E+00
         -3   -1    0    0    0  501 -0.00000000000E+00  0.00000000000E+00  0.11468989366E+03  0.11468989366E+03  0.00000000000E+00 0.  1.
          3   -1    0    0  501    0  0.00000000000E+00 -0.00000000000E+00 -0.13715226680E+03  0.13715226680E+03  0.00000000000E+00 0. -1.
         23    2    1    2    0    0 -0.41581268727E+02  0.71571119625E+02 -0.36369573089E+02  0.12879530826E+03  0.91728177288E+02 0.  0.
         23    2    1    2    0    0  0.41581268727E+02 -0.71571119625E+02  0.13907199949E+02  0.12304685221E+03  0.89976055454E+02 0.  0.
          5    1    3    3  502    0 -0.31450492548E+02  0.32134592938E+01 -0.48888413496E+02  0.58409132645E+02  0.47000000000E+01 0. -1.
         -5    1    4    4    0  503  0.24062276173E+02 -0.91841115747E+02  0.10667103371E+02  0.95653859151E+02  0.47000000000E+01 0.  1.
          5    1    4    4  503    0  0.17518992554E+02  0.20269996122E+02  0.32400965780E+01  0.27392993058E+02  0.47000000000E+01 0. -1.
         -5    1    3    3    0  502 -0.10130776179E+02  0.68357660331E+02  0.12518840407E+02  0.70386175611E+02  0.47000000000E+01 0.  1.
<mgrwt>
<rscale>  0 0.12322850E+03</rscale>
<asrwt>0</asrwt>
<pdfrwt beam="1">  1        3 0.21100349E-01 0.12355357E+03</pdfrwt>
<pdfrwt beam="2">  1       -3 0.17644599E-01 0.12355357E+03</pdfrwt>
<totfact> 0.12931686E+03</totfact>
</mgrwt>
</event>
<event>
 8    1  0.6396648E-004  0.9510612E+02  0.7546771E-02  0.1295006E+00
         -1   -1    0    0    0  501 -0.00000000000E+00  0.00000000000E+00  0.26752126509E+03  0.26752126509E+03  0.00000000000E+00 0.  1.
          1   -1    0    0  501    0  0.00000000000E+00 -0.00000000000E+00 -0.40042858813E+02  0.40042858813E+02  0.00000000000E+00 0. -1.
         23    2    1    2    0    0 -0.19842690763E+02 -0.57958201037E+01  0.18182107141E+03  0.20206641838E+03  0.85700708978E+02 0.  0.
         23    2    1    2    0    0  0.19842690763E+02  0.57958201037E+01  0.45657334867E+02  0.10549770553E+03  0.92832374400E+02 0.  0.
          5    1    4    4  502    0  0.42150639942E+02  0.25768893078E+02 -0.12589223687E+01  0.49642594448E+02  0.47000000000E+01 0. -1.
         -5    1    3    3    0  503 -0.51736669386E+02 -0.15790555200E+02  0.10716665385E+03  0.12013661511E+03  0.47000000000E+01 0.  1.
          5    1    3    3  503    0  0.31893978622E+02  0.99947350968E+01  0.74654417557E+02  0.81929803263E+02  0.47000000000E+01 0. -1.
         -5    1    4    4    0  502 -0.22307949178E+02 -0.19973072974E+02  0.46916257235E+02  0.55855111078E+02  0.47000000000E+01 0.  1.
<mgrwt>
<rscale>  0 0.93319518E+02</rscale>
<asrwt>0</asrwt>
<pdfrwt beam="1">  1        1 0.61604400E-02 0.95106118E+02</pdfrwt>
<pdfrwt beam="2">  1       -1 0.41157117E-01 0.95106118E+02</pdfrwt>
<totfact> 0.67277071E+03</totfact>
</mgrwt>
</event>
<event>
 8    1  0.6396648E-004  0.1372098E+03  0.7546771E-02  0.1219203E+00
         -2   -1    0    0    0  501 -0.00000000000E+00  0.00000000000E+00  0.16194139476E+02  0.16194139476E+02  0.00000000000E+00 0.  1.
          2   -1    0    0  501    0  0.00000000000E+00 -0.00000000000E+00 -0.11912091341E+04  0.11912091341E+04  0.00000000000E+00 0. -1.
         23    2    1    2    0    0  0.94808197564E+01 -0.95088530335E+02 -0.44531535084E+03  0.46597455656E+03  0.98462231972E+02 0.  0.
         23    2    1    2    0    0 -0.94808197564E+01  0.95088530335E+02 -0.72969964375E+03  0.74142871698E+03  0.90129116996E+02 0.  0.
          5    1    4    4  502    0  0.15038606534E+02  0.10331883437E+03 -0.55379475848E+03  0.56357046210E+03  0.47000000000E+01 0. -1.
         -5    1    4    4    0  502 -0.24519426290E+02 -0.82303040390E+01 -0.17590488527E+03  0.17785825489E+03  0.47000000000E+01 0.  1.
          5    1    3    3  503    0  0.35666046957E+02 -0.29201291177E+02 -0.30698436281E+03  0.31046138459E+03  0.47000000000E+01 0. -1.
         -5    1    3    3    0  503 -0.26185227201E+02 -0.65887239157E+02 -0.13833098803E+03  0.15551317197E+03  0.47000000000E+01 0.  1.
<mgrwt>
<rscale>  0 0.13572289E+03</rscale>
<asrwt>0</asrwt>
<pdfrwt beam="1">  1        2 0.18326300E+00 0.13720979E+03</pdfrwt>
<pdfrwt beam="2">  1       -2 0.24914053E-02 0.13720979E+03</pdfrwt>
<totfact> 0.10928333E+04</totfact>
</mgrwt>
</event>
<event>
 7    1  0.1377788E-003  0.4066537E+03  0.7546771E-02  0.1081139E+00
          2   -1    0    0  501    0  0.00000000000E+00  0.00000000000E+00  0.22623843034E+03  0.22623843034E+03  0.00000000000E+00 0. -1.
         -2   -1    0    0    0  501 -0.00000000000E+00 -0.00000000000E+00 -0.32528269167E+03  0.32528269167E+03  0.00000000000E+00 0.  1.
         23    2    1    2    0    0  0.98085598686E+02  0.26444229563E+02 -0.72178651860E+01  0.13462865894E+03  0.88049396842E+02 0.  0.
          5    1    1    2  502    0 -0.19335861818E+03  0.12092867086E+03 -0.26761791894E+02  0.22967277193E+03  0.47000000000E+01 0. -1.
         -5    1    3    3    0  503  0.58436216596E+02 -0.11285714998E+01  0.36707043781E+02  0.69177757602E+02  0.47000000000E+01 0.  1.
          5    1    3    3  503    0  0.39649382090E+02  0.27572801063E+02 -0.43924908967E+02  0.65450901341E+02  0.47000000000E+01 0. -1.
         -5    1    1    2    0  502  0.95273019494E+02 -0.14737290043E+03 -0.65064604250E+02  0.18721969114E+03  0.47000000000E+01 0.  1.
<mgrwt>
<rscale>  0 0.30835193E+03</rscale>
<asrwt>0</asrwt>
<pdfrwt beam="1">  1        2 0.34805912E-01 0.40665371E+03</pdfrwt>
<pdfrwt beam="2">  1       -2 0.50043491E-01 0.40665371E+03</pdfrwt>
<totfact> 0.57298276E+02</totfact>
</mgrwt>
</event>
<event>
 8    1  0.6396648E-004  0.1634470E+03  0.7546771E-02  0.1184959E+00
         -2   -1    0    0    0  501 -0.00000000000E+00  0.00000000000E+00  0.17507024014E+03  0.17507024014E+03  0.00000000000E+00 0.  1.
          2   -1    0    0  501    0  0.00000000000E+00 -0.00000000000E+00 -0.17452484711E+03  0.17452484711E+03  0.00000000000E+00 0. -1.
         23    2    1    2    0    0 -0.10244561224E+03 -0.87008028288E+02 -0.62166096128E+02  0.17453040049E+03  0.92361987489E+02 0.  0.
         23    2    1    2    0    0  0.10244561224E+03  0.87008028288E+02  0.62711489161E+02  0.17506468676E+03  0.93002221601E+02 0.  0.
          5    1    3    3  502    0 -0.21379863994E+02 -0.73597071717E+02 -0.49250358135E+02  0.91221243832E+02  0.47000000000E+01 0. -1.
         -5    1    3    3    0  502 -0.81065748246E+02 -0.13410956571E+02 -0.12915737992E+02  0.83309156656E+02  0.47000000000E+01 0.  1.
          5    1    4    4  503    0  0.31802958129E+02  0.85751610761E+02  0.25455353963E+02  0.95051732963E+02  0.47000000000E+01 0.  1.
         -5    1    4    4    0  503  0.70642654112E+02  0.12564175267E+01  0.37256135199E+02  0.80012953794E+02  0.47000000000E+01 0. -1.
<mgrwt>
<rscale>  0 0.16335604E+03</rscale>
<asrwt>0</asrwt>
<pdfrwt beam="1">  1        2 0.26849976E-01 0.16344698E+03</pdfrwt>
<pdfrwt beam="2">  1       -2 0.26933883E-01 0.16344698E+03</pdfrwt>
<totfact> 0.24134423E+03</totfact>
</mgrwt>
</event>
<event>
 8    1  0.6396648E-004  0.9428172E+02  0.7546771E-02  0.1295303E+00
         -1   -1    0    0    0  501 -0.00000000000E+00  0.00000000000E+00  0.86815864659E+02  0.86815864659E+02  0.00000000000E+00 0.  1.
          1   -1    0    0  501    0  0.00000000000E+00 -0.00000000000E+00 -0.97823591957E+02  0.97823591957E+02  0.00000000000E+00 0. -1.
         23    2    1    2    0    0 -0.23778411172E+02 -0.93516327748E+01 -0.35911834999E+01  0.90066484824E+02  0.86291420293E+02 0.  0.
         23    2    1    2    0    0  0.23778411172E+02  0.93516327748E+01 -0.74165437988E+01  0.94572971792E+02  0.90753380093E+02 0.  0.
          5    1    4    4  502    0  0.58309080431E+02  0.26814439682E+01 -0.13414517056E+01  0.58574981819E+02  0.47000000000E+01 0. -1.
         -5    1    4    4    0  502 -0.34530669258E+02  0.66701888066E+01 -0.60750920932E+01  0.35997989973E+02  0.47000000000E+01 0.  1.
          5    1    3    3  503    0  0.40975842534E+01  0.25145765257E+02 -0.28878073191E+02  0.38796041271E+02  0.47000000000E+01 0. -1.
         -5    1    3    3    0  503 -0.27875995426E+02 -0.34497398032E+02  0.25286889691E+02  0.51270443553E+02  0.47000000000E+01 0.  1.
<mgrwt>
<rscale>  0 0.93191228E+02</rscale>
<asrwt>0</asrwt>
<pdfrwt beam="1">  1        1 0.15049783E-01 0.94281715E+02</pdfrwt>
<pdfrwt beam="2">  1       -1 0.13356287E-01 0.94281715E+02</pdfrwt>
<totfact> 0.12943835E+04</totfact>
</mgrwt>
</event>
<event>
 8    1  0.6396648E-004  0.1958890E+03  0.7546771E-02  0.1153419E+00
          3   -1    0    0  501    0  0.00000000000E+00  0.00000000000E+00  0.52297517382E+03  0.52297517382E+03  0.00000000000E+00 0. -1.
         -3   -1    0    0    0  501 -0.00000000000E+00 -0.00000000000E+00 -0.10180222313E+03  0.10180222313E+03  0.00000000000E+00 0.  1.
         23    2    1    2    0    0  0.16975102128E+03  0.35617156023E+02  0.37619582328E+03  0.42379117573E+03  0.89396152864E+02 0.  0.
         23    2    1    2    0    0 -0.16975102128E+03 -0.35617156023E+02  0.44977127406E+02  0.20098622122E+03  0.91041353804E+02 0.  0.
          5    1    3    3  502    0  0.68836055880E+02  0.11055071536E+02  0.25357761092E+03  0.26302910857E+03  0.47000000000E+01 0. -1.
         -5    1    3    3    0  502  0.10091496540E+03  0.24562084487E+02  0.12261821236E+03  0.16076206717E+03  0.47000000000E+01 0.  1.
          5    1    4    4  503    0 -0.24133572448E+02  0.22092118575E+02 -0.10606210399E+02  0.34714157361E+02  0.47000000000E+01 0. -1.
         -5    1    4    4    0  503 -0.14561744883E+03 -0.57709274598E+02  0.55583337805E+02  0.16627206386E+03  0.47000000000E+01 0.  1.
<mgrwt>
<rscale>  0 0.19569898E+03</rscale>
<asrwt>0</asrwt>
<pdfrwt beam="1">  1        3 0.80457718E-01 0.19588905E+03</pdfrwt>
<pdfrwt beam="2">  1       -3 0.15661881E-01 0.19588905E+03</pdfrwt>
<totfact> 0.12380997E+02</totfact>
</mgrwt>
</event>
<event>
 8    1  0.6396648E-004  0.1000029E+03  0.7546771E-02  0.1280777E+00
          2   -1    0    0  501    0  0.00000000000E+00  0.00000000000E+00  0.66708849061E+03  0.66708849061E+03  0.00000000000E+00 0. -1.
         -2   -1    0    0    0  501 -0.00000000000E+00 -0.00000000000E+00 -0.15986960310E+02  0.15986960310E+02  0.00000000000E+00 0.  1.
         23    2    1    2    0    0  0.38577382397E+02  0.40640835592E+01  0.41508656068E+03  0.42674823785E+03  0.91172772473E+02 0.  0.
         23    2    1    2    0    0 -0.38577382397E+02 -0.40640835592E+01  0.23601496962E+03  0.25632721307E+03  0.92172897692E+02 0.  0.
          5    1    3    3  502    0 -0.23460507737E+02 -0.90511778349E+01  0.49977466993E+02  0.56144068703E+02  0.47000000000E+01 0. -1.
         -5    1    4    4    0  503  0.16279891399E+02 -0.28717626167E+02  0.13140345347E+03  0.13556804380E+03  0.47000000000E+01 0.  1.
          5    1    4    4  503    0 -0.54857273797E+02  0.24653542607E+02  0.10461151615E+03  0.12075916927E+03  0.47000000000E+01 0. -1.
         -5    1    3    3    0  502  0.62037890134E+02  0.13115261394E+02  0.36510909369E+03  0.37060416915E+03  0.47000000000E+01 0.  1.
<mgrwt>
<rscale>  0 0.99771807E+02</rscale>
<asrwt>0</asrwt>
<pdfrwt beam="1">  1        2 0.10262898E+00 0.10000287E+03</pdfrwt>
<pdfrwt beam="2">  1       -2 0.24595329E-02 0.10000287E+03</pdfrwt>
<totfact> 0.23215187E+04</totfact>
</mgrwt>
</event>
<event>
 8    1  0.6396648E-004  0.1291446E+03  0.7546771E-02  0.1230109E+00
         -2   -1    0    0    0  501 -0.00000000000E+00  0.00000000000E+00  0.16748411894E+03  0.16748411894E+03  0.00000000000E+00 0.  1.
          2   -1    0    0  501    0  0.00000000000E+00 -0.00000000000E+00 -0.16325123652E+03  0.16325123652E+03  0.00000000000E+00 0. -1.
         23    2    1    2    0    0  0.12001692634E+02  0.85182920214E+02  0.10759425340E+03  0.16532100455E+03  0.91402082349E+02 0.  0.
         23    2    1    2    0    0 -0.12001692634E+02 -0.85182920214E+02 -0.10336137098E+03  0.16541435091E+03  0.96323226451E+02 0.  0.
          5    1    3    3  502    0  0.45745983890E+02  0.48133102162E+02  0.30438361491E+02  0.73198868953E+02  0.47000000000E+01 0. -1.
         -5    1    3    3    0  502 -0.33744291256E+02  0.37049818053E+02  0.77155891912E+02  0.92122135596E+02  0.47000000000E+01 0.  1.
          5    1    4    4  503    0  0.39015775695E+02 -0.49123272818E+02 -0.71133916986E+02  0.94960259221E+02  0.47000000000E+01 0. -1.
         -5    1    4    4    0  503 -0.51017468328E+02 -0.36059647396E+02 -0.32227453996E+02  0.70454091691E+02  0.47000000000E+01 0.  1.
<mgrwt>
<rscale>  0 0.12822800E+03</rscale>
<asrwt>0</asrwt>
<pdfrwt beam="1">  1        2 0.25115575E-01 0.12914463E+03</pdfrwt>
<pdfrwt beam="2">  1       -2 0.25766787E-01 0.12914463E+03</pdfrwt>
<totfact> 0.27782321E+03</totfact>
</mgrwt>
</event>
<event>
 8    1  0.6396648E-004  0.9177654E+02  0.7546771E-02  0.1299086E+00
          2   -1    0    0  501    0  0.00000000000E+00  0.00000000000E+00  0.22145669918E+02  0.22145669918E+02  0.00000000000E+00 0. -1.
         -2   -1    0    0    0  501 -0.00000000000E+00 -0.00000000000E+00 -0.39215242128E+03  0.39215242128E+03  0.00000000000E+00 0.  1.
         23    2    1    2    0    0 -0.17040879322E+02 -0.67001090646E+01 -0.22652106785E+03  0.24440689033E+03  0.89931367335E+02 0.  0.
         23    2    1    2    0    0  0.17040879322E+02  0.67001090646E+01 -0.14348568351E+03  0.16989120086E+03  0.89104409149E+02 0.  0.
          5    1    4    4  502    0  0.37423522171E+02 -0.30339531428E+02 -0.78269708882E+02  0.92028498344E+02  0.47000000000E+01 0. -1.
         -5    1    3    3    0  503 -0.61394183781E+01  0.20810498962E+02 -0.20800119974E+03  0.20918259588E+03  0.47000000000E+01 0.  1.
          5    1    3    3  503    0 -0.10901460944E+02 -0.27510608026E+02 -0.18519868108E+02  0.35224294449E+02  0.47000000000E+01 0. -1.
         -5    1    4    4    0  502 -0.20382642849E+02  0.37039640493E+02 -0.65215974625E+02  0.77862702520E+02  0.47000000000E+01 0.  1.
<mgrwt>
<rscale>  0 0.91573323E+02</rscale>
<asrwt>0</asrwt>
<pdfrwt beam="1">  1        2 0.34070264E-02 0.91776543E+02</pdfrwt>
<pdfrwt beam="2">  1       -2 0.60331137E-01 0.91776543E+02</pdfrwt>
<totfact> 0.62590554E+03</totfact>
</mgrwt>
</event>
<event>
 8    1  0.6396648E-004  0.9513160E+02  0.7546771E-02  0.1291623E+00
         -1   -1    0    0    0  501 -0.00000000000E+00  0.00000000000E+00  0.87616154578E+02  0.87616154578E+02  0.00000000000E+00 0.  1.
          1   -1    0    0  501    0  0.00000000000E+00 -0.00000000000E+00 -0.15510715688E+03  0.15510715688E+03  0.00000000000E+00 0. -1.
         23    2    1    2    0    0 -0.28110050413E+02 -0.66849981024E+01  0.37506944304E+02  0.10103848764E+03  0.89258842590E+02 0.  0.
         23    2    1    2    0    0  0.28110050413E+02  0.66849981024E+01 -0.10499794660E+03  0.14168482381E+03  0.90637499820E+02 0.  0.
          5    1    3    3  502    0  0.28458852493E+02 -0.28166842371E+01 -0.57749436620E+01  0.29551310793E+02  0.47000000000E+01 0. -1.
         -5    1    4    4    0  503 -0.30464084911E+02 -0.97772829277E+01 -0.49926835626E+02  0.59484742972E+02  0.47000000000E+01 0.  1.
          5    1    4    4  503    0  0.58574135324E+02  0.16462281030E+02 -0.55071110978E+02  0.82200080839E+02  0.47000000000E+01 0. -1.
         -5    1    3    3    0  502 -0.56568902906E+02 -0.38683138654E+01  0.43281887966E+02  0.71487176850E+02  0.47000000000E+01 0.  1.
<mgrwt>
<rscale>  0 0.94801736E+02</rscale>
<asrwt>0</asrwt>
<pdfrwt beam="1">  1        1 0.23862639E-01 0.95131596E+02</pdfrwt>
<pdfrwt beam="2">  1       -1 0.13479409E-01 0.95131596E+02</pdfrwt>
<totfact> 0.71399997E+03</totfact>
</mgrwt>
</event>
<event>
 8    1  0.6396648E-004  0.1039525E+03  0.7546771E-02  0.1272634E+00
         -1   -1    0    0    0  501 -0.00000000000E+00  0.00000000000E+00  0.19787489524E+03  0.19787489524E+03  0.00000000000E+00 0.  1.
          1   -1    0    0  501    0  0.00000000000E+00 -0.00000000000E+00 -0.81680919064E+02  0.81680919064E+02  0.00000000000E+00 0. -1.
         23    2    1    2    0    0 -0.23539875350E+02 -0.43465144687E+02 -0.22884014387E+02  0.10644153832E+03  0.91448228149E+02 0.  0.
         23    2    1    2    0    0  0.23539875350E+02  0.43465144687E+02  0.13907799057E+03  0.17311427598E+03  0.90457285808E+02 0.  0.
          5    1    3    3  502    0 -0.56208186665E+02 -0.11391607487E+02 -0.17267311629E+02  0.60078107662E+02  0.47000000000E+01 0. -1.
         -5    1    3    3    0  502  0.32668311315E+02 -0.32073537200E+02 -0.56167027574E+01  0.46363430660E+02  0.47000000000E+01 0.  1.
          5    1    4    4  503    0 -0.19898240464E+02  0.35396666513E+02  0.18994640543E+02  0.45074941411E+02  0.47000000000E+01 0. -1.
         -5    1    4    4    0  503  0.43438115815E+02  0.80684781738E+01  0.12008335002E+03  0.12803933457E+03  0.47000000000E+01 0.  1.
<mgrwt>
<rscale>  0 0.10373415E+03</rscale>
<asrwt>0</asrwt>
<pdfrwt beam="1">  1        1 0.12566295E-01 0.10395250E+03</pdfrwt>
<pdfrwt beam="2">  1       -1 0.30442291E-01 0.10395250E+03</pdfrwt>
<totfact> 0.44167850E+03</totfact>
</mgrwt>
</event>
<event>
 8    1  0.6396648E-004  0.1047609E+03  0.7546771E-02  0.1275412E+00
          1   -1    0    0  501    0  0.00000000000E+00  0.00000000000E+00  0.23269350327E+03  0.23269350327E+03  0.00000000000E+00 0. -1.
         -1   -1    0    0    0  501 -0.00000000000E+00 -0.00000000000E+00 -0.48160303601E+02  0.48160303601E+02  0.00000000000E+00 0.  1.
         23    2    1    2    0    0 -0.36969379132E+01  0.26391150677E+02  0.13401531010E+03  0.16454861624E+03  0.91684151202E+02 0.  0.
         23    2    1    2    0    0  0.36969379132E+01 -0.26391150677E+02  0.50517889569E+02  0.11630519063E+03  0.10131475715E+03 0.  0.
          5    1    4    4  502    0  0.58279024044E+01  0.38431265063E+02  0.24974511252E+02  0.46440744966E+02  0.47000000000E+01 0. -1.
         -5    1    4    4    0  502 -0.21309644912E+01 -0.64822415740E+02  0.25543378318E+02  0.69864445664E+02  0.47000000000E+01 0.  1.
          5    1    3    3  503    0 -0.45111717185E+02  0.20507892828E+02  0.94526570839E+02  0.10683165865E+03  0.47000000000E+01 0. -1.
         -5    1    3    3    0  503  0.41414779272E+02  0.58832578488E+01  0.39488739265E+02  0.57716957593E+02  0.47000000000E+01 0.  1.
<mgrwt>
<rscale>  0 0.10235893E+03</rscale>
<asrwt>0</asrwt>
<pdfrwt beam="1">  1        1 0.35799000E-01 0.10476087E+03</pdfrwt>
<pdfrwt beam="2">  1       -1 0.74092777E-02 0.10476087E+03</pdfrwt>
<totfact> 0.10800082E+04</totfact>
</mgrwt>
</event>
<event>
 8    1  0.6396648E-004  0.1402281E+03  0.7546771E-02  0.1213208E+00
         -2   -1    0    0    0  501 -0.00000000000E+00  0.00000000000E+00  0.43085289387E+02  0.43085289387E+02  0.00000000000E+00 0.  1.
          2   -1    0    0  501    0  0.00000000000E+00 -0.00000000000E+00 -0.56705596543E+03  0.56705596543E+03  0.00000000000E+00 0. -1.
         23    2    1    2    0    0  0.79133020036E+02 -0.69860776621E+02 -0.39742514301E+03  0.42125589230E+03  0.91472506951E+02 0.  0.
         23    2    1    2    0    0 -0.79133020036E+02  0.69860776621E+02 -0.12654553303E+03  0.18888536252E+03  0.92311132989E+02 0.  0.
          5    1    3    3  502    0  0.59471368432E+02 -0.10560847521E+01 -0.25384343876E+03  0.26076146260E+03  0.47000000000E+01 0. -1.
         -5    1    4    4    0  503 -0.45275940216E+02 -0.18961115972E+01 -0.91101692256E+02  0.10185830518E+03  0.47000000000E+01 0.  1.
          5    1    4    4  503    0 -0.33857079820E+02  0.71756888218E+02 -0.35443840774E+02  0.87027057342E+02  0.47000000000E+01 0. -1.
         -5    1    3    3    0  502  0.19661651604E+02 -0.68804691869E+02 -0.14358170426E+03  0.16049442970E+03  0.47000000000E+01 0.  1.
<mgrwt>
<rscale>  0 0.14009020E+03</rscale>
<asrwt>0</asrwt>
<pdfrwt beam="1">  1        2 0.87239380E-01 0.14022806E+03</pdfrwt>
<pdfrwt beam="2">  1       -2 0.66285060E-02 0.14022806E+03</pdfrwt>
<totfact> 0.65835560E+03</totfact>
</mgrwt>
</event>
<event>
 8    1  0.6396648E-004  0.1037582E+03  0.7546771E-02  0.1272865E+00
          1   -1    0    0  501    0  0.00000000000E+00  0.00000000000E+00  0.14558765176E+03  0.14558765176E+03  0.00000000000E+00 0. -1.
         -1   -1    0    0    0  501 -0.00000000000E+00 -0.00000000000E+00 -0.85788642840E+02  0.85788642840E+02  0.00000000000E+00 0.  1.
         23    2    1    2    0    0  0.25019271139E+02  0.41441638000E+02 -0.13862727053E+02  0.10412926063E+03  0.91144689526E+02 0.  0.
         23    2    1    2    0    0 -0.25019271139E+02 -0.41441638000E+02  0.73661735970E+02  0.12724703397E+03  0.91773542046E+02 0.  0.
          5    1    4    4  502    0 -0.49474269960E+01 -0.64301316959E+02  0.71479895671E+02  0.96387768320E+02  0.47000000000E+01 0. -1.
         -5    1    4    4    0  502 -0.20071844143E+02  0.22859678959E+02  0.21818402981E+01  0.30859265650E+02  0.47000000000E+01 0.  1.
          5    1    3    3  503    0 -0.28702190422E+02 -0.60312466146E+00  0.11381771491E+02  0.31238025172E+02  0.47000000000E+01 0. -1.
         -5    1    3    3    0  503  0.53721461560E+02  0.42044762661E+02 -0.25244498543E+02  0.72891235455E+02  0.47000000000E+01 0.  1.
<mgrwt>
<rscale>  0 0.10361893E+03</rscale>
<asrwt>0</asrwt>
<pdfrwt beam="1">  1        1 0.22398100E-01 0.10375816E+03</pdfrwt>
<pdfrwt beam="2">  1       -1 0.13198253E-01 0.10375816E+03</pdfrwt>
<totfact> 0.80389944E+03</totfact>
</mgrwt>
</event>
<event>
 8    1  0.6396648E-004  0.9677413E+02  0.7546771E-02  0.1287884E+00
          2   -1    0    0  501    0  0.00000000000E+00  0.00000000000E+00  0.41533667266E+03  0.41533667266E+03  0.00000000000E+00 0. -1.
         -2   -1    0    0    0  501 -0.00000000000E+00 -0.00000000000E+00 -0.24732399308E+02  0.24732399308E+02  0.00000000000E+00 0.  1.
         23    2    1    2    0    0  0.27449385072E+02 -0.13117066515E+02  0.12484318530E+03  0.15723663509E+03  0.90620154069E+02 0.  0.
         23    2    1    2    0    0 -0.27449385072E+02  0.13117066515E+02  0.26576108805E+03  0.28283243688E+03  0.91867868446E+02 0.  0.
          5    1    3    3  502    0  0.11340494745E+02  0.18432589146E+02  0.11898074139E+03  0.12102427023E+03  0.47000000000E+01 0. -1.
         -5    1    3    3    0  502  0.16108890327E+02 -0.31549655661E+02  0.58624439103E+01  0.36212364857E+02  0.47000000000E+01 0.  1.
          5    1    4    4  503    0 -0.37674835147E+02 -0.30359467769E+02  0.10146819989E+03  0.11251211524E+03  0.47000000000E+01 0. -1.
         -5    1    4    4    0  503  0.10225450075E+02  0.43476534284E+02  0.16429288816E+03  0.17032032164E+03  0.47000000000E+01 0.  1.
<mgrwt>
<rscale>  0 0.96476846E+02</rscale>
<asrwt>0</asrwt>
<pdfrwt beam="1">  1        2 0.63897944E-01 0.96774126E+02</pdfrwt>
<pdfrwt beam="2">  1       -2 0.38049848E-02 0.96774126E+02</pdfrwt>
<totfact> 0.20601377E+04</totfact>
</mgrwt>
</event>
<event>
 8    1  0.6396648E-004  0.9893503E+02  0.7546771E-02  0.1283102E+00
         -2   -1    0    0    0  501 -0.00000000000E+00  0.00000000000E+00  0.65381412451E+02  0.65381412451E+02  0.00000000000E+00 0.  1.
          2   -1    0    0  501    0  0.00000000000E+00 -0.00000000000E+00 -0.21037175559E+03  0.21037175559E+03  0.00000000000E+00 0. -1.
         23    2    1    2    0    0  0.39035179256E+02  0.10965493307E+02  0.22168049060E+01  0.98959858473E+02  0.90244956103E+02 0.  0.
         23    2    1    2    0    0 -0.39035179256E+02 -0.10965493307E+02 -0.14720714805E+03  0.17679330957E+03  0.89117577444E+02 0.  0.
          5    1    3    3  502    0  0.34149671162E+02 -0.15042712134E+02 -0.36115914166E+02  0.52143383903E+02  0.47000000000E+01 0. -1.
         -5    1    4    4    0  503  0.89710989314E+01 -0.40097822897E+02 -0.67937727171E+02  0.79535783081E+02  0.47000000000E+01 0.  1.
          5    1    4    4  503    0 -0.48006278188E+02  0.29132329590E+02 -0.79269420877E+02  0.97257526490E+02  0.47000000000E+01 0. -1.
         -5    1    3    3    0  502  0.48855080940E+01  0.26008205442E+02  0.38332719072E+02  0.46816474569E+02  0.47000000000E+01 0.  1.
<mgrwt>
<rscale>  0 0.98677204E+02</rscale>
<asrwt>0</asrwt>
<pdfrwt beam="1">  1        2 0.32364886E-01 0.98935026E+02</pdfrwt>
<pdfrwt beam="2">  1       -2 0.10058679E-01 0.98935026E+02</pdfrwt>
<totfact> 0.97445725E+03</totfact>
</mgrwt>
</event>
<event>
 8    1  0.6396648E-004  0.8998522E+02  0.7546771E-02  0.1303296E+00
          2   -1    0    0  501    0  0.00000000000E+00  0.00000000000E+00  0.89533781670E+03  0.89533781670E+03  0.00000000000E+00 0. -1.
         -2   -1    0    0    0  501 -0.00000000000E+00 -0.00000000000E+00 -0.89856211652E+01  0.89856211652E+01  0.00000000000E+00 0.  1.
         23    2    1    2    0    0  0.35162819681E+01 -0.41244845192E+01  0.42704153384E+03  0.43628110606E+03  0.89147945941E+02 0.  0.
         23    2    1    2    0    0 -0.35162819681E+01  0.41244845192E+01  0.45931066169E+03  0.46804233181E+03  0.89821850391E+02 0.  0.
          5    1    3    3  502    0  0.13261131467E+01  0.39860455322E+02  0.27511670097E+03  0.27803219890E+03  0.47000000000E+01 0. -1.
         -5    1    3    3    0  502  0.21901688213E+01 -0.43984939841E+02  0.15192483287E+03  0.15824890716E+03  0.47000000000E+01 0.  1.
          5    1    4    4  503    0 -0.12237754202E+02  0.45126201525E+02  0.21050248721E+03  0.21568385153E+03  0.47000000000E+01 0. -1.
         -5    1    4    4    0  503  0.87214722336E+01 -0.41001717005E+02  0.24880817449E+03  0.25235848027E+03  0.47000000000E+01 0.  1.
<mgrwt>
<rscale>  0 0.89816582E+02</rscale>
<asrwt>0</asrwt>
<pdfrwt beam="1">  1        2 0.13774421E+00 0.89985223E+02</pdfrwt>
<pdfrwt beam="2">  1       -2 0.13824040E-02 0.89985223E+02</pdfrwt>
<totfact> 0.36774838E+04</totfact>
</mgrwt>
</event>
<event>
 8    1  0.6396648E-004  0.9925533E+02  0.7546771E-02  0.1287430E+00
          2   -1    0    0  501    0  0.00000000000E+00  0.00000000000E+00  0.49663944394E+03  0.49663944394E+03  0.00000000000E+00 0. -1.
         -2   -1    0    0    0  501 -0.00000000000E+00 -0.00000000000E+00 -0.18030790801E+02  0.18030790801E+02  0.00000000000E+00 0.  1.
         23    2    1    2    0    0 -0.28793056352E+02  0.31372282430E+02  0.23056947973E+03  0.25102570666E+03  0.89656902814E+02 0.  0.
         23    2    1    2    0    0  0.28793056352E+02 -0.31372282430E+02  0.24803917341E+03  0.26364452808E+03  0.78560457248E+02 0.  0.
          5    1    4    4  502    0 -0.24452032593E+02 -0.68763838229E+01  0.41356133783E+02  0.48760705018E+02  0.47000000000E+01 0.  1.
         -5    1    4    4    0  502  0.53245088945E+02 -0.24495898607E+02  0.20668303962E+03  0.21488382306E+03  0.47000000000E+01 0. -1.
          5    1    3    3  503    0 -0.10323906653E+02 -0.23455572266E+02  0.14690290315E+03  0.14919550889E+03  0.47000000000E+01 0. -1.
         -5    1    3    3    0  503 -0.18469149700E+02  0.54827854696E+02  0.83666576576E+02  0.10183019777E+03  0.47000000000E+01 0.  1.
<mgrwt>
<rscale>  0 0.96682925E+02</rscale>
<asrwt>0</asrwt>
<pdfrwt beam="1">  1        2 0.76406058E-01 0.99255329E+02</pdfrwt>
<pdfrwt beam="2">  1       -2 0.27739682E-02 0.99255329E+02</pdfrwt>
<totfact> 0.27071822E+04</totfact>
</mgrwt>
</event>
<event>
 8    1  0.6396648E-004  0.1154452E+03  0.7546771E-02  0.1251167E+00
         -1   -1    0    0    0  501 -0.00000000000E+00  0.00000000000E+00  0.10611903148E+03  0.10611903148E+03  0.00000000000E+00 0.  1.
          1   -1    0    0  501    0  0.00000000000E+00 -0.00000000000E+00 -0.14818729429E+03  0.14818729429E+03  0.00000000000E+00 0. -1.
         23    2    1    2    0    0  0.70108578742E+01  0.70575566806E+02  0.29531795437E+02  0.11916258138E+03  0.91090784937E+02 0.  0.
         23    2    1    2    0    0 -0.70108578742E+01 -0.70575566806E+02 -0.71600058248E+02  0.13514374439E+03  0.90039994163E+02 0.  0.
          5    1    4    4  502    0  0.25438466499E+02 -0.76040873522E+02 -0.42022607969E+02  0.90649432455E+02  0.47000000000E+01 0. -1.
         -5    1    3    3    0  503  0.31944344066E+02  0.51963045370E+02  0.52167278918E+02  0.80399715122E+02  0.47000000000E+01 0.  1.
          5    1    3    3  503    0 -0.24933486192E+02  0.18612521436E+02 -0.22635483481E+02  0.38762866255E+02  0.47000000000E+01 0. -1.
         -5    1    4    4    0  502 -0.32449324373E+02  0.54653067155E+01 -0.29577450279E+02  0.44494311937E+02  0.47000000000E+01 0.  1.
<mgrwt>
<rscale>  0 0.11523782E+03</rscale>
<asrwt>0</asrwt>
<pdfrwt beam="1">  1        1 0.22798045E-01 0.11544520E+03</pdfrwt>
<pdfrwt beam="2">  1       -1 0.16326005E-01 0.11544520E+03</pdfrwt>
<totfact> 0.56932907E+03</totfact>
</mgrwt>
</event>
<event>
 8    1  0.6396648E-004  0.9227977E+02  0.7546771E-02  0.1299550E+00
         -1   -1    0    0    0  501 -0.00000000000E+00  0.00000000000E+00  0.36300969234E+03  0.36300969234E+03  0.00000000000E+00 0.  1.
          1   -1    0    0  501    0  0.00000000000E+00 -0.00000000000E+00 -0.23239722587E+02  0.23239722587E+02  0.00000000000E+00 0. -1.
         23    2    1    2    0    0 -0.36487500875E+01  0.14762028808E+02  0.14017445736E+03  0.16782263013E+03  0.91018271870E+02 0.  0.
         23    2    1    2    0    0  0.36487500875E+01 -0.14762028808E+02  0.19959551239E+03  0.21842678480E+03  0.87410873921E+02 0.  0.
          5    1    3    3  502    0 -0.26043703308E+02 -0.30547080365E+02  0.49467787736E+02  0.63879187725E+02  0.47000000000E+01 0. -1.
         -5    1    4    4    0  503  0.18859886962E+01  0.33556456305E+02  0.12406664269E+03  0.12862431552E+03  0.47000000000E+01 0.  1.
          5    1    4    4  503    0  0.17627613913E+01 -0.48318485113E+02  0.75528869698E+02  0.89802469282E+02  0.47000000000E+01 0. -1.
         -5    1    3    3    0  502  0.22394953221E+02  0.45309109173E+02  0.90706669624E+02  0.10394344240E+03  0.47000000000E+01 0.  1.
<mgrwt>
<rscale>  0 0.91377607E+02</rscale>
<asrwt>0</asrwt>
<pdfrwt beam="1">  1        1 0.35753422E-02 0.92279774E+02</pdfrwt>
<pdfrwt beam="2">  1       -1 0.55847641E-01 0.92279774E+02</pdfrwt>
<totfact> 0.81059395E+03</totfact>
</mgrwt>
</event>
<event>
 8    1  0.6396648E-004  0.1206919E+03  0.7546771E-02  0.1249017E+00
          2   -1    0    0  501    0  0.00000000000E+00  0.00000000000E+00  0.22136787119E+03  0.22136787119E+03  0.00000000000E+00 0. -1.
         -2   -1    0    0    0  501 -0.00000000000E+00 -0.00000000000E+00 -0.64777784580E+02  0.64777784580E+02  0.00000000000E+00 0.  1.
         23    2    1    2    0    0  0.39908114594E+02  0.36419819106E+02  0.12162818638E+03  0.16049187046E+03  0.89694837786E+02 0.  0.
         23    2    1    2    0    0 -0.39908114594E+02 -0.36419819106E+02  0.34961900229E+02  0.12565378532E+03  0.10792348430E+03 0.  0.
          5    1    3    3  502    0 -0.17970016704E+02 -0.10860175975E+02  0.59237565546E+02  0.63024154848E+02  0.47000000000E+01 0. -1.
         -5    1    3    3    0  502  0.57878131298E+02  0.47279995081E+02  0.62390620839E+02  0.97467715609E+02  0.47000000000E+01 0.  1.
          5    1    4    4  503    0 -0.17356851389E+02 -0.73357674683E+02  0.12129648948E+02  0.76497235954E+02  0.47000000000E+01 0. -1.
         -5    1    4    4    0  503 -0.22551263205E+02  0.36937855576E+02  0.22832251281E+02  0.49156549363E+02  0.47000000000E+01 0.  1.
<mgrwt>
<rscale>  0 0.11648121E+03</rscale>
<asrwt>0</asrwt>
<pdfrwt beam="1">  1        2 0.34056595E-01 0.12069192E+03</pdfrwt>
<pdfrwt beam="2">  1       -2 0.99658132E-02 0.12069192E+03</pdfrwt>
<totfact> 0.95180204E+03</totfact>
</mgrwt>
</event>
<event>
 8    1  0.6396648E-004  0.9830204E+02  0.7546771E-02  0.1290000E+00
          4   -1    0    0  501    0  0.00000000000E+00  0.00000000000E+00  0.63742983883E+03  0.63742983883E+03  0.00000000000E+00 0. -1.
         -4   -1    0    0    0  501 -0.00000000000E+00 -0.00000000000E+00 -0.95001765575E+02  0.95001765575E+02  0.00000000000E+00 0.  1.
         23    2    1    2    0    0 -0.39865850710E+01 -0.37549584986E+02 -0.69994373507E+02  0.11216992959E+03  0.79101305863E+02 0.  0.
         23    2    1    2    0    0  0.39865850710E+01  0.37549584986E+02  0.61242244676E+03  0.62026167481E+03  0.90760276266E+02 0.  0.
          5    1    4    4  502    0  0.13257790807E+02  0.63904465897E+02  0.50269818589E+03  0.50693895675E+03  0.47000000000E+01 0. -1.
         -5    1    3    3    0  503 -0.24578850783E+02 -0.17352071970E+02 -0.76405695005E+02  0.82250437912E+02  0.47000000000E+01 0.  1.
          5    1    3    3  503    0  0.20592265712E+02 -0.20197513016E+02  0.64113214975E+01  0.29919491682E+02  0.47000000000E+01 0. -1.
         -5    1    4    4    0  502 -0.92712057364E+01 -0.26354880911E+02  0.10972426087E+03  0.11332271806E+03  0.47000000000E+01 0.  1.
<mgrwt>
<rscale>  0 0.95523983E+02</rscale>
<asrwt>0</asrwt>
<pdfrwt beam="1">  1        4 0.98066126E-01 0.98302044E+02</pdfrwt>
<pdfrwt beam="2">  1       -4 0.14615657E-01 0.98302044E+02</pdfrwt>
<totfact> 0.56499313E+01</totfact>
</mgrwt>
</event>
<event>
 8    1  0.6396648E-004  0.1043625E+03  0.7546771E-02  0.1274247E+00
          1   -1    0    0  501    0  0.00000000000E+00  0.00000000000E+00  0.19175578646E+03  0.19175578646E+03  0.00000000000E+00 0. -1.
         -1   -1    0    0    0  501 -0.00000000000E+00 -0.00000000000E+00 -0.78627478413E+02  0.78627478413E+02  0.00000000000E+00 0.  1.
         23    2    1    2    0    0  0.17921305318E+02 -0.30502538591E+02  0.13145844484E+03  0.16442324730E+03  0.92206851631E+02 0.  0.
         23    2    1    2    0    0 -0.17921305318E+02  0.30502538591E+02 -0.18330136792E+02  0.10596001757E+03  0.98183264179E+02 0.  0.
          5    1    3    3  502    0 -0.96883023954E+01  0.27947851251E+02  0.65124853949E+02  0.71681812161E+02  0.47000000000E+01 0. -1.
         -5    1    4    4    0  503  0.33250104213E+02  0.39845324918E+02 -0.10306041703E+02  0.53118018069E+02  0.47000000000E+01 0.  1.
          5    1    4    4  503    0 -0.51171409531E+02 -0.93427863274E+01 -0.80240950893E+01  0.52841999506E+02  0.47000000000E+01 0. -1.
         -5    1    3    3    0  502  0.27609607714E+02 -0.58450389842E+02  0.66333590891E+02  0.92741435138E+02  0.47000000000E+01 0.  1.
<mgrwt>
<rscale>  0 0.10293295E+03</rscale>
<asrwt>0</asrwt>
<pdfrwt beam="1">  1        1 0.29500890E-01 0.10436250E+03</pdfrwt>
<pdfrwt beam="2">  1       -1 0.12096535E-01 0.10436250E+03</pdfrwt>
<totfact> 0.65296588E+03</totfact>
</mgrwt>
</event>
<event>
 8    1  0.6396648E-004  0.1121959E+03  0.7546771E-02  0.1256701E+00
          1   -1    0    0  501    0  0.00000000000E+00  0.00000000000E+00  0.34638163309E+02  0.34638163309E+02  0.00000000000E+00 0. -1.
         -1   -1    0    0    0  501 -0.00000000000E+00 -0.00000000000E+00 -0.36434230639E+03  0.36434230639E+03  0.00000000000E+00 0.  1.
         23    2    1    2    0    0  0.48560300084E+02  0.42578746020E+02 -0.14996302052E+03  0.18709657074E+03  0.91351885060E+02 0.  0.
         23    2    1    2    0    0 -0.48560300084E+02 -0.42578746020E+02 -0.17974112256E+03  0.21188389895E+03  0.91743463742E+02 0.  0.
          5    1    4    4  502    0 -0.74520986635E+02 -0.20114407925E+02 -0.13004140160E+03  0.15129713476E+03  0.47000000000E+01 0.  1.
         -5    1    4    4    0  502  0.25960686551E+02 -0.22464338096E+02 -0.49699720953E+02  0.60586764191E+02  0.47000000000E+01 0. -1.
          5    1    3    3  503    0  0.67052494202E+02  0.91977647025E+01 -0.65540458719E+02  0.94330682089E+02  0.47000000000E+01 0. -1.
         -5    1    3    3    0  503 -0.18492194118E+02  0.33380981318E+02 -0.84422561800E+02  0.92765888655E+02  0.47000000000E+01 0.  1.
<mgrwt>
<rscale>  0 0.11211580E+03</rscale>
<asrwt>0</asrwt>
<pdfrwt beam="1">  1        1 0.53289482E-02 0.11219588E+03</pdfrwt>
<pdfrwt beam="2">  1       -1 0.56052662E-01 0.11219588E+03</pdfrwt>
<totfact> 0.47544077E+03</totfact>
</mgrwt>
</event>
<event>
 8    1  0.6396648E-004  0.1939033E+03  0.7546771E-02  0.1155222E+00
          1   -1    0    0  501    0  0.00000000000E+00  0.00000000000E+00  0.17488475688E+03  0.17488475688E+03  0.00000000000E+00 0. -1.
         -1   -1    0    0    0  501 -0.00000000000E+00 -0.00000000000E+00 -0.26629511970E+03  0.26629511970E+03  0.00000000000E+00 0.  1.
         23    2    1    2    0    0  0.10993313286E+03 -0.13145582340E+03  0.52326792967E+02  0.19981116830E+03  0.88433492008E+02 0.  0.
         23    2    1    2    0    0 -0.10993313286E+03  0.13145582340E+03 -0.14373715579E+03  0.24136870828E+03  0.90733434708E+02 0.  0.
          5    1    3    3  502    0  0.10199869618E+03 -0.62088255751E+02  0.14825983328E+02  0.12041837612E+03  0.47000000000E+01 0. -1.
         -5    1    3    3    0  502  0.79344366797E+01 -0.69367567648E+02  0.37500809640E+02  0.79392792182E+02  0.47000000000E+01 0.  1.
          5    1    4    4  503    0  0.46852909903E+01  0.30592809884E+02  0.45992153863E+00  0.31307722627E+02  0.47000000000E+01 0. -1.
         -5    1    4    4    0  503 -0.11461842385E+03  0.10086301351E+03 -0.14419707733E+03  0.21006098565E+03  0.47000000000E+01 0.  1.
<mgrwt>
<rscale>  0 0.19363636E+03</rscale>
<asrwt>0</asrwt>
<pdfrwt beam="1">  1        1 0.26905347E-01 0.19390328E+03</pdfrwt>
<pdfrwt beam="2">  1       -1 0.40968480E-01 0.19390328E+03</pdfrwt>
<totfact> 0.10257375E+03</totfact>
</mgrwt>
</event>
<event>
 8    1  0.6396648E-004  0.2350119E+03  0.7546771E-02  0.1123596E+00
         -1   -1    0    0    0  501 -0.00000000000E+00  0.00000000000E+00  0.28986048085E+03  0.28986048085E+03  0.00000000000E+00 0.  1.
          1   -1    0    0  501    0  0.00000000000E+00 -0.00000000000E+00 -0.52270060835E+03  0.52270060835E+03  0.00000000000E+00 0. -1.
         23    2    1    2    0    0 -0.66087005152E+02 -0.20372784071E+03 -0.44150995930E+03  0.50016162829E+03  0.96737195150E+02 0.  0.
         23    2    1    2    0    0  0.66087005152E+02  0.20372784071E+03  0.20866983180E+03  0.31239946090E+03  0.90431184560E+02 0.  0.
          5    1    3    3  502    0 -0.49580822860E+02 -0.64799049942E+02 -0.88779867077E+02  0.12066950595E+03  0.47000000000E+01 0. -1.
         -5    1    4    4    0  503  0.40991102154E+02  0.19561603136E+03  0.15700450793E+03  0.25420151001E+03  0.47000000000E+01 0.  1.
          5    1    4    4  503    0  0.25095902998E+02  0.81118093495E+01  0.51665323864E+02  0.58197950893E+02  0.47000000000E+01 0. -1.
         -5    1    3    3    0  502 -0.16506182292E+02 -0.13892879076E+03 -0.35273009223E+03  0.37949212234E+03  0.47000000000E+01 0.  1.
<mgrwt>
<rscale>  0 0.23437821E+03</rscale>
<asrwt>0</asrwt>
<pdfrwt beam="1">  1        1 0.80415478E-01 0.23501194E+03</pdfrwt>
<pdfrwt beam="2">  1       -1 0.44593920E-01 0.23501194E+03</pdfrwt>
<totfact> 0.21882438E+02</totfact>
</mgrwt>
</event>
<event>
 8    1  0.6396648E-004  0.1124795E+03  0.7546771E-02  0.1256170E+00
         -4   -1    0    0    0  501 -0.00000000000E+00  0.00000000000E+00  0.78248180367E+02  0.78248180367E+02  0.00000000000E+00 0.  1.
          4   -1    0    0  501    0  0.00000000000E+00 -0.00000000000E+00 -0.17169448797E+03  0.17169448797E+03  0.00000000000E+00 0. -1.
         23    2    1    2    0    0  0.61769138323E+02 -0.27317202884E+02 -0.77542949206E+02  0.13661823180E+03  0.89944295349E+02 0.  0.
         23    2    1    2    0    0 -0.61769138323E+02  0.27317202884E+02 -0.15903358402E+02  0.11332443654E+03  0.89598298459E+02 0.  0.
          5    1    3    3  502    0  0.47628505413E+02  0.26796242959E+02 -0.27215292990E+02  0.61231326436E+02  0.47000000000E+01 0. -1.
         -5    1    4    4    0  503 -0.66263903880E+02  0.36441104521E+01  0.20321214416E+02  0.69564547391E+02  0.47000000000E+01 0.  1.
          5    1    4    4  503    0  0.44947655568E+01  0.23673092432E+02 -0.36224572819E+02  0.43759889152E+02  0.47000000000E+01 0. -1.
         -5    1    3    3    0  502  0.14140632910E+02 -0.54113445843E+02 -0.50327656215E+02  0.75386905363E+02  0.47000000000E+01 0.  1.
<mgrwt>
<rscale>  0 0.11241029E+03</rscale>
<asrwt>0</asrwt>
<pdfrwt beam="1">  1        4 0.26414537E-01 0.11247947E+03</pdfrwt>
<pdfrwt beam="2">  1       -4 0.12038181E-01 0.11247947E+03</pdfrwt>
<totfact> 0.11816026E+03</totfact>
</mgrwt>
</event>
<event>
 8    1  0.6396648E-004  0.2730510E+03  0.7546771E-02  0.1099555E+00
         -1   -1    0    0    0  501 -0.00000000000E+00  0.00000000000E+00  0.28478182277E+02  0.28478182277E+02  0.00000000000E+00 0.  1.
          1   -1    0    0  501    0  0.00000000000E+00 -0.00000000000E+00 -0.26283089476E+04  0.26283089476E+04  0.00000000000E+00 0. -1.
         23    2    1    2    0    0  0.11285445937E+03 -0.23125798328E+03 -0.13856821786E+04  0.14123285564E+04  0.91326159242E+02 0.  0.
         23    2    1    2    0    0 -0.11285445937E+03  0.23125798328E+03 -0.12141485867E+04  0.12444585734E+04  0.91126102589E+02 0.  0.
          5    1    4    4  502    0 -0.12838930376E+03  0.20745774862E+03 -0.10723266890E+04  0.10997404915E+04  0.47000000000E+01 0. -1.
         -5    1    3    3    0  503  0.42287718831E+02 -0.21725445786E+02 -0.35411907598E+03  0.35732709963E+03  0.47000000000E+01 0. -1.
          5    1    3    3  503    0  0.70566740535E+02 -0.20953253750E+03 -0.10315631026E+04  0.10550014568E+04  0.47000000000E+01 0.  1.
         -5    1    4    4    0  502  0.15534844396E+02  0.23800234662E+02 -0.14182189773E+03  0.14471808193E+03  0.47000000000E+01 0.  1.
<mgrwt>
<rscale>  0 0.27303429E+03</rscale>
<asrwt>0</asrwt>
<pdfrwt beam="1">  1        1 0.40435530E+00 0.27305100E+03</pdfrwt>
<pdfrwt beam="2">  1       -1 0.43812580E-02 0.27305100E+03</pdfrwt>
<totfact> 0.27904694E+02</totfact>
</mgrwt>
</event>
<event>
 8    1  0.6396648E-004  0.1567870E+03  0.7546771E-02  0.1192415E+00
          3   -1    0    0  501    0  0.00000000000E+00  0.00000000000E+00  0.20567094994E+03  0.20567094994E+03  0.00000000000E+00 0. -1.
         -3   -1    0    0    0  501 -0.00000000000E+00 -0.00000000000E+00 -0.13744374817E+03  0.13744374817E+03  0.00000000000E+00 0.  1.
         23    2    1    2    0    0  0.78740219497E+02  0.10004052176E+03 -0.28042100439E+02  0.15913112981E+03  0.91259130600E+02 0.  0.
         23    2    1    2    0    0 -0.78740219497E+02 -0.10004052176E+03  0.96269302211E+02  0.18398356829E+03  0.91509817457E+02 0.  0.
          5    1    4    4  502    0 -0.66946931807E+02 -0.11741741650E+03  0.84128546387E+02  0.15927474280E+03  0.47000000000E+01 0. -1.
         -5    1    4    4    0  502 -0.11793287690E+02  0.17376894737E+02  0.12140755824E+02  0.24708825492E+02  0.47000000000E+01 0.  1.
          5    1    3    3  503    0  0.51599599546E+02  0.47605445883E+02  0.29735926163E+02  0.76387907785E+02  0.47000000000E+01 0. -1.
         -5    1    3    3    0  503  0.27140619951E+02  0.52435075879E+02 -0.57778026601E+02  0.82743222029E+02  0.47000000000E+01 0.  1.
<mgrwt>
<rscale>  0 0.15675048E+03</rscale>
<asrwt>0</asrwt>
<pdfrwt beam="1">  1        3 0.31641685E-01 0.15678704E+03</pdfrwt>
<pdfrwt beam="2">  1       -3 0.21145192E-01 0.15678704E+03</pdfrwt>
<totfact> 0.46755881E+02</totfact>
</mgrwt>
</event>
<event>
 8    1  0.6396648E-004  0.1004799E+03  0.7546771E-02  0.1279448E+00
          2   -1    0    0  501    0  0.00000000000E+00  0.00000000000E+00  0.26662491817E+02  0.26662491817E+02  0.00000000000E+00 0. -1.
         -2   -1    0    0    0  501 -0.00000000000E+00 -0.00000000000E+00 -0.46094869792E+03  0.46094869792E+03  0.00000000000E+00 0.  1.
         23    2    1    2    0    0  0.16521785359E+02  0.37222678558E+02 -0.32112960722E+03  0.33648243606E+03  0.91856997308E+02 0.  0.
         23    2    1    2    0    0 -0.16521785359E+02 -0.37222678558E+02 -0.11315659888E+03  0.15112875368E+03  0.91525882275E+02 0.  0.
          5    1    4    4  502    0  0.11491248761E+02 -0.60824479943E+02 -0.81753211236E+02  0.10265156456E+03  0.47000000000E+01 0. -1.
         -5    1    4    4    0  502 -0.28013034119E+02  0.23601801385E+02 -0.31403387649E+02  0.48477189120E+02  0.47000000000E+01 0.  1.
          5    1    3    3  503    0  0.38171296599E+02  0.20494388955E+02 -0.61512092606E+02  0.75384981259E+02  0.47000000000E+01 0. -1.
         -5    1    3    3    0  503 -0.21649511240E+02  0.16728289603E+02 -0.25961751461E+03  0.26109745480E+03  0.47000000000E+01 0.  1.
<mgrwt>
<rscale>  0 0.10040414E+03</rscale>
<asrwt>0</asrwt>
<pdfrwt beam="1">  1        2 0.41019219E-02 0.10047987E+03</pdfrwt>
<pdfrwt beam="2">  1       -2 0.70915183E-01 0.10047987E+03</pdfrwt>
<totfact> 0.35327685E+03</totfact>
</mgrwt>
</event>
<event>
 7    1  0.7936709E-004  0.2409036E+03  0.7546771E-02  0.1155522E+00
          2   -1    0    0  501    0  0.00000000000E+00  0.00000000000E+00  0.51446527026E+03  0.51446527026E+03  0.00000000000E+00 0. -1.
         -2   -1    0    0    0  501 -0.00000000000E+00 -0.00000000000E+00 -0.36794032761E+03  0.36794032761E+03  0.00000000000E+00 0.  1.
         23    2    1    2    0    0  0.21012255518E+01  0.34207415928E+02  0.46920857203E+03  0.47971558262E+03  0.93785892796E+02 0.  0.
          5    1    3    3  502    0 -0.32743381307E+02  0.36750860391E+02  0.38863548534E+03  0.39176828001E+03  0.47000000000E+01 0. -1.
         -5    1    3    3    0  502  0.34844606859E+02 -0.25434444633E+01  0.80573086694E+02  0.87947302610E+02  0.47000000000E+01 0.  1.
          5    1    1    2  503    0 -0.66247862052E+02 -0.51359646400E+02 -0.11826185883E+02  0.84785265095E+02  0.47000000000E+01 0. -1.
         -5    1    1    2    0  503  0.64146636500E+02  0.17152230472E+02 -0.31085744351E+03  0.31790475015E+03  0.47000000000E+01 0.  1.
<mgrwt>
<rscale>  0 0.19329528E+03</rscale>
<asrwt>0</asrwt>
<pdfrwt beam="1">  1        2 0.79148504E-01 0.24090356E+03</pdfrwt>
<pdfrwt beam="2">  1       -2 0.56606204E-01 0.24090356E+03</pdfrwt>
<totfact> 0.18211783E+02</totfact>
</mgrwt>
</event>
<event>
 8    1  0.6396648E-004  0.1022888E+03  0.7546771E-02  0.1276790E+00
         -1   -1    0    0    0  501 -0.00000000000E+00  0.00000000000E+00  0.30518467249E+02  0.30518467249E+02  0.00000000000E+00 0.  1.
          1   -1    0    0  501    0  0.00000000000E+00 -0.00000000000E+00 -0.43651377590E+03  0.43651377590E+03  0.00000000000E+00 0. -1.
         23    2    1    2    0    0  0.46227423597E+01 -0.44920592009E+02 -0.31382886964E+03  0.32934542401E+03  0.89110154117E+02 0.  0.
         23    2    1    2    0    0 -0.46227423597E+01  0.44920592009E+02 -0.92166439011E+02  0.13768681913E+03  0.91781143760E+02 0.  0.
          5    1    4    4  502    0  0.88999992282E+01  0.21515578539E+02 -0.10481679523E+03  0.10747455824E+03  0.47000000000E+01 0. -1.
         -5    1    3    3    0  503  0.43797240634E+02 -0.20980307011E+02 -0.21207359095E+03  0.21761357850E+03  0.47000000000E+01 0.  1.
          5    1    3    3  503    0 -0.39174498274E+02 -0.23940284998E+02 -0.10175527869E+03  0.11173184551E+03  0.47000000000E+01 0. -1.
         -5    1    4    4    0  502 -0.13522741588E+02  0.23405013470E+02  0.12650356224E+02  0.30212260891E+02  0.47000000000E+01 0.  1.
<mgrwt>
<rscale>  0 0.10168613E+03</rscale>
<asrwt>0</asrwt>
<pdfrwt beam="1">  1        1 0.67155965E-01 0.10228884E+03</pdfrwt>
<pdfrwt beam="2">  1       -1 0.46951488E-02 0.10228884E+03</pdfrwt>
<totfact> 0.97319344E+03</totfact>
</mgrwt>
</event>
<event>
 8    1  0.6396648E-004  0.1119645E+03  0.7546771E-02  0.1259918E+00
         -2   -1    0    0    0  501 -0.00000000000E+00  0.00000000000E+00  0.12129428890E+03  0.12129428890E+03  0.00000000000E+00 0.  1.
          2   -1    0    0  501    0  0.00000000000E+00 -0.00000000000E+00 -0.14626292543E+03  0.14626292543E+03  0.00000000000E+00 0. -1.
         23    2    1    2    0    0 -0.96318735974E+01  0.66226480227E+02 -0.89860661122E+02  0.14356526116E+03  0.89762609827E+02 0.  0.
         23    2    1    2    0    0  0.96318735974E+01 -0.66226480227E+02  0.64892024596E+02  0.12399195317E+03  0.81757629137E+02 0.  0.
          5    1    3    3  502    0  0.39008040686E+02  0.41655241322E+02 -0.46749760364E+02  0.73921691416E+02  0.47000000000E+01 0. -1.
         -5    1    4    4    0  503 -0.18290917312E+02 -0.19710667922E+02  0.63944483860E+02  0.69527369447E+02  0.47000000000E+01 0.  1.
          5    1    4    4  503    0  0.27922790909E+02 -0.46515812304E+02  0.94754073573E+00  0.54464583721E+02  0.47000000000E+01 0. -1.
         -5    1    3    3    0  502 -0.48639914283E+02  0.24571238905E+02 -0.43110900758E+02  0.69643569746E+02  0.47000000000E+01 0.  1.
<mgrwt>
<rscale>  0 0.11035270E+03</rscale>
<asrwt>0</asrwt>
<pdfrwt beam="1">  1        2 0.22501988E-01 0.11196448E+03</pdfrwt>
<pdfrwt beam="2">  1       -2 0.18660660E-01 0.11196448E+03</pdfrwt>
<totfact> 0.53991995E+03</totfact>
</mgrwt>
</event>
<event>
 8    1  0.6396648E-004  0.1072093E+03  0.7546771E-02  0.1272540E+00
          3   -1    0    0  501    0  0.00000000000E+00  0.00000000000E+00  0.11760365245E+03  0.11760365245E+03  0.00000000000E+00 0. -1.
         -3   -1    0    0    0  501 -0.00000000000E+00 -0.00000000000E+00 -0.98014914776E+02  0.98014914776E+02  0.00000000000E+00 0.  1.
         23    2    1    2    0    0  0.29455394445E+02 -0.80158989805E+01 -0.27035432256E+02  0.11056562020E+03  0.10277143024E+03 0.  0.
         23    2    1    2    0    0 -0.29455394445E+02  0.80158989805E+01  0.46624169927E+02  0.10505294702E+03  0.89052981752E+02 0.  0.
          5    1    3    3  502    0 -0.73664226717E+01  0.42642463555E+02 -0.18052513762E+02  0.47123530578E+02  0.47000000000E+01 0. -1.
         -5    1    3    3    0  502  0.36821817117E+02 -0.50658362536E+02 -0.89829184940E+01  0.63442089619E+02  0.47000000000E+01 0.  1.
          5    1    4    4  503    0 -0.56368263887E+02  0.30162946298E+01  0.51849803332E+02  0.76791739871E+02  0.47000000000E+01 0. -1.
         -5    1    4    4    0  503  0.26912869442E+02  0.49996043506E+01 -0.52256334050E+01  0.28261207153E+02  0.47000000000E+01 0.  1.
<mgrwt>
<rscale>  0 0.10378099E+03</rscale>
<asrwt>0</asrwt>
<pdfrwt beam="1">  1        3 0.18092870E-01 0.10720934E+03</pdfrwt>
<pdfrwt beam="2">  1       -3 0.15079218E-01 0.10720934E+03</pdfrwt>
<totfact> 0.21609086E+03</totfact>
</mgrwt>
</event>
<event>
 7    1  0.6396648E-004  0.3244778E+03  0.7546771E-02  0.1073607E+00
         -3   -1    0    0    0  501 -0.00000000000E+00  0.00000000000E+00  0.41480884473E+03  0.41480884473E+03  0.00000000000E+00 0.  1.
          3   -1    0    0  501    0  0.00000000000E+00 -0.00000000000E+00 -0.63454423834E+02  0.63454423834E+02  0.00000000000E+00 0. -1.
         23    2    1    2    0    0  0.68130696475E+02 -0.33010555383E+02  0.15660217090E+03  0.19669561450E+03  0.91833742508E+02 0.  0.
          5    1    3    3  502    0  0.16747093749E+00  0.27091956798E+02  0.28028098766E+02  0.39264061049E+02  0.47000000000E+01 0. -1.
         -5    1    3    3    0  502  0.67963225537E+02 -0.60102512181E+02  0.12857407213E+03  0.15743155345E+03  0.47000000000E+01 0.  1.
          5    1    1    2  503    0 -0.92851435050E+02 -0.51096699925E+01  0.12819886746E+02  0.93989027096E+02  0.47000000000E+01 0. -1.
         -5    1    1    2    0  503  0.24720738575E+02  0.38120225376E+02  0.18193236325E+03  0.18757862697E+03  0.47000000000E+01 0.  1.
<mgrwt>
<rscale>  0 0.32447777E+03</rscale>
<asrwt>0</asrwt>
<pdfrwt beam="1">  1        3 0.97622193E-02 0.32447777E+03</pdfrwt>
<pdfrwt beam="2">  1       -3 0.63816744E-01 0.32447777E+03</pdfrwt>
<totfact> 0.47859835E+02</totfact>
</mgrwt>
</event>
<event>
 8    1  0.6396648E-004  0.9493790E+02  0.7546771E-02  0.1292930E+00
          1   -1    0    0  501    0  0.00000000000E+00  0.00000000000E+00  0.58565865079E+02  0.58565865079E+02  0.00000000000E+00 0. -1.
         -1   -1    0    0    0  501 -0.00000000000E+00 -0.00000000000E+00 -0.18842175543E+03  0.18842175543E+03  0.00000000000E+00 0.  1.
         23    2    1    2    0    0 -0.37925781867E+00 -0.21770048269E+02 -0.12037263588E+03  0.15157725713E+03  0.89509857408E+02 0.  0.
         23    2    1    2    0    0  0.37925781867E+00  0.21770048269E+02 -0.94832544724E+01  0.95410363377E+02  0.92407394110E+02 0.  0.
          5    1    4    4  502    0 -0.31726780857E+02  0.38252545881E+02 -0.25019740482E+02  0.55838367667E+02  0.47000000000E+01 0. -1.
         -5    1    3    3    0  503  0.24897619909E+02 -0.14132111138E+02 -0.12131916916E+03  0.12473988475E+03  0.47000000000E+01 0.  1.
          5    1    3    3  503    0 -0.25276877728E+02 -0.76379371315E+01  0.94653327572E+00  0.26837372385E+02  0.47000000000E+01 0. -1.
         -5    1    4    4    0  502  0.32106038676E+02 -0.16482497612E+02  0.15536486009E+02  0.39571995710E+02  0.47000000000E+01 0.  1.
<mgrwt>
<rscale>  0 0.94225446E+02</rscale>
<asrwt>0</asrwt>
<pdfrwt beam="1">  1        1 0.90101329E-02 0.94937902E+02</pdfrwt>
<pdfrwt beam="2">  1       -1 0.28987963E-01 0.94937902E+02</pdfrwt>
<totfact> 0.73539591E+03</totfact>
</mgrwt>
</event>
<event>
 8    1  0.6396648E-004  0.1148533E+03  0.7546771E-02  0.1255304E+00
          1   -1    0    0  501    0  0.00000000000E+00  0.00000000000E+00  0.11608330994E+02  0.11608330994E+02  0.00000000000E+00 0. -1.
         -1   -1    0    0    0  501 -0.00000000000E+00 -0.00000000000E+00 -0.11343257045E+04  0.11343257045E+04  0.00000000000E+00 0.  1.
         23    2    1    2    0    0 -0.61047571103E+01  0.54143312698E+02 -0.43485930535E+03  0.44977092878E+03  0.10110641205E+03 0.  0.
         23    2    1    2    0    0  0.61047571103E+01 -0.54143312698E+02 -0.68785806817E+03  0.69616310673E+03  0.92334082840E+02 0.  0.
          5    1    3    3  502    0  0.24517710575E+02  0.64588131142E+02 -0.37706042543E+03  0.38336588168E+03  0.47000000000E+01 0. -1.
         -5    1    3    3    0  502 -0.30622467685E+02 -0.10444818444E+02 -0.57798879920E+02  0.66405047093E+02  0.47000000000E+01 0.  1.
          5    1    4    4  503    0 -0.18503869351E+02  0.20227158446E+02 -0.14268524743E+03  0.14537090821E+03  0.47000000000E+01 0. -1.
         -5    1    4    4    0  503  0.24608626462E+02 -0.74370471145E+02 -0.54517282075E+03  0.55079219853E+03  0.47000000000E+01 0.  1.
<mgrwt>
<rscale>  0 0.11289327E+03</rscale>
<asrwt>0</asrwt>
<pdfrwt beam="1">  1        1 0.17858961E-02 0.11485327E+03</pdfrwt>
<pdfrwt beam="2">  1       -1 0.17451175E+00 0.11485327E+03</pdfrwt>
<totfact> 0.17112012E+03</totfact>
</mgrwt>
</event>
<event>
 8    1  0.6396648E-004  0.9695309E+02  0.7546771E-02  0.1287790E+00
          2   -1    0    0  501    0  0.00000000000E+00  0.00000000000E+00  0.46796411244E+03  0.46796411244E+03  0.00000000000E+00 0. -1.
         -2   -1    0    0    0  501 -0.00000000000E+00 -0.00000000000E+00 -0.21543650485E+02  0.21543650485E+02  0.00000000000E+00 0.  1.
         23    2    1    2    0    0 -0.34587845619E+02 -0.31986688474E+01  0.29602501018E+03  0.31149752643E+03  0.90517135266E+02 0.  0.
         23    2    1    2    0    0  0.34587845619E+02  0.31986688474E+01  0.15039545178E+03  0.17801023649E+03  0.88669621819E+02 0.  0.
          5    1    3    3  502    0  0.26060994029E+02 -0.20624614250E+02  0.95638390134E+02  0.10135749499E+03  0.47000000000E+01 0. -1.
         -5    1    3    3    0  502 -0.60648839648E+02  0.17425945402E+02  0.20038662004E+03  0.21014003144E+03  0.47000000000E+01 0.  1.
          5    1    4    4  503    0  0.23810855574E+02 -0.40163713882E+02  0.10020120478E+03  0.11064561535E+03  0.47000000000E+01 0. -1.
         -5    1    4    4    0  503  0.10776990045E+02  0.43362382730E+02  0.50194246998E+02  0.67364621146E+02  0.47000000000E+01 0.  1.
<mgrwt>
<rscale>  0 0.96519551E+02</rscale>
<asrwt>0</asrwt>
<pdfrwt beam="1">  1        2 0.71994471E-01 0.96953093E+02</pdfrwt>
<pdfrwt beam="2">  1       -2 0.33144081E-02 0.96953093E+02</pdfrwt>
<totfact> 0.22214411E+04</totfact>
</mgrwt>
</event>
<event>
 8    1  0.6396648E-004  0.1055968E+03  0.7546771E-02  0.1269194E+00
          2   -1    0    0  501    0  0.00000000000E+00  0.00000000000E+00  0.34004256135E+03  0.34004256135E+03  0.00000000000E+00 0. -1.
         -2   -1    0    0    0  501 -0.00000000000E+00 -0.00000000000E+00 -0.48660170488E+02  0.48660170488E+02  0.00000000000E+00 0.  1.
         23    2    1    2    0    0  0.11674631252E+02  0.51086339370E+02  0.34396737264E+02  0.11105777467E+03  0.91676511138E+02 0.  0.
         23    2    1    2    0    0 -0.11674631252E+02 -0.51086339370E+02  0.25698565360E+03  0.27764495717E+03  0.91098765098E+02 0.  0.
          5    1    4    4  502    0 -0.33159980615E+02 -0.65510070401E+02  0.22200836823E+03  0.23388236189E+03  0.47000000000E+01 0. -1.
         -5    1    3    3    0  503  0.29287952295E+02  0.71845164648E+02  0.22030964758E+02  0.80789635728E+02  0.47000000000E+01 0.  1.
          5    1    3    3  503    0 -0.17613321044E+02 -0.20758825278E+02  0.12365772505E+02  0.30268138938E+02  0.47000000000E+01 0. -1.
         -5    1    4    4    0  502  0.21485349364E+02  0.14423731031E+02  0.34977285367E+02  0.43762595282E+02  0.47000000000E+01 0.  1.
<mgrwt>
<rscale>  0 0.10547132E+03</rscale>
<asrwt>0</asrwt>
<pdfrwt beam="1">  1        2 0.52314239E-01 0.10559685E+03</pdfrwt>
<pdfrwt beam="2">  1       -2 0.74861803E-02 0.10559685E+03</pdfrwt>
<totfact> 0.93139829E+03</totfact>
</mgrwt>
</event>
<event>
 8    1  0.6396648E-004  0.9831048E+02  0.7546771E-02  0.1284481E+00
          2   -1    0    0  501    0  0.00000000000E+00  0.00000000000E+00  0.13499771533E+03  0.13499771533E+03  0.00000000000E+00 0. -1.
         -2   -1    0    0    0  501 -0.00000000000E+00 -0.00000000000E+00 -0.24592213743E+03  0.24592213743E+03  0.00000000000E+00 0.  1.
         23    2    1    2    0    0  0.34346494114E+02 -0.15190805490E+02  0.10534894759E+03  0.14335066269E+03  0.89669222746E+02 0.  0.
         23    2    1    2    0    0 -0.34346494114E+02  0.15190805490E+02 -0.21627336969E+03  0.23756919007E+03  0.90854319687E+02 0.  0.
          5    1    3    3  502    0 -0.87065790787E+01  0.27829019954E+02  0.61391607401E+02  0.68126928084E+02  0.47000000000E+01 0. -1.
         -5    1    4    4    0  503  0.12350121653E+02 -0.25428927438E+02 -0.11724465500E+03  0.12069612663E+03  0.47000000000E+01 0.  1.
          5    1    4    4  503    0 -0.46696615767E+02  0.40619732928E+02 -0.99028714681E+02  0.11687306344E+03  0.47000000000E+01 0. -1.
         -5    1    3    3    0  502  0.43053073192E+02 -0.43019825444E+02  0.43957340185E+02  0.75223734610E+02  0.47000000000E+01 0.  1.
<mgrwt>
<rscale>  0 0.98035786E+02</rscale>
<asrwt>0</asrwt>
<pdfrwt beam="1">  1        2 0.20768880E-01 0.98310476E+02</pdfrwt>
<pdfrwt beam="2">  1       -2 0.37834174E-01 0.98310476E+02</pdfrwt>
<totfact> 0.16920750E+03</totfact>
</mgrwt>
</event>
<event>
 8    1  0.6396648E-004  0.1513174E+03  0.7546771E-02  0.1199232E+00
         -2   -1    0    0    0  501 -0.00000000000E+00  0.00000000000E+00  0.19047690356E+02  0.19047690356E+02  0.00000000000E+00 0.  1.
          2   -1    0    0  501    0  0.00000000000E+00 -0.00000000000E+00 -0.12979742291E+04  0.12979742291E+04  0.00000000000E+00 0. -1.
         23    2    1    2    0    0  0.54037568581E+02 -0.10715284936E+03 -0.45411652458E+03  0.47866351974E+03  0.92169166717E+02 0.  0.
         23    2    1    2    0    0 -0.54037568581E+02  0.10715284936E+03 -0.82481001417E+03  0.83835839971E+03  0.90174580435E+02 0.  0.
          5    1    4    4  502    0 -0.63527621145E+02  0.68148847821E+02 -0.72013381915E+03  0.72615069483E+03  0.47000000000E+01 0. -1.
         -5    1    3    3    0  503  0.63079411439E+01 -0.93287831973E+02 -0.36175527071E+03  0.37367281892E+03  0.47000000000E+01 0.  1.
          5    1    3    3  503    0  0.47729627437E+02 -0.13865017386E+02 -0.92361253868E+02  0.10499070082E+03  0.47000000000E+01 0. -1.
         -5    1    4    4    0  502  0.94900525644E+01  0.39004001538E+02 -0.10467619501E+03  0.11220770489E+03  0.47000000000E+01 0.  1.
<mgrwt>
<rscale>  0 0.15101482E+03</rscale>
<asrwt>0</asrwt>
<pdfrwt beam="1">  1        2 0.19968832E+00 0.15131737E+03</pdfrwt>
<pdfrwt beam="2">  1       -2 0.29304142E-02 0.15131737E+03</pdfrwt>
<totfact> 0.75605750E+03</totfact>
</mgrwt>
</event>
<event>
 8    1  0.6396648E-004  0.1048593E+03  0.7546771E-02  0.1271063E+00
         -1   -1    0    0    0  501 -0.00000000000E+00  0.00000000000E+00  0.29434349920E+02  0.29434349920E+02  0.00000000000E+00 0.  1.
          1   -1    0    0  501    0  0.00000000000E+00 -0.00000000000E+00 -0.39698019904E+03  0.39698019904E+03  0.00000000000E+00 0. -1.
         23    2    1    2    0    0  0.17909240011E+02  0.48958280492E+02 -0.12587257271E+03  0.16297299222E+03  0.89435102307E+02 0.  0.
         23    2    1    2    0    0 -0.17909240011E+02 -0.48958280492E+02 -0.24167327641E+03  0.26344155674E+03  0.90982565267E+02 0.  0.
          5    1    3    3  502    0  0.34480468648E+02  0.68211756734E+02 -0.83081961480E+02  0.11298871093E+03  0.47000000000E+01 0. -1.
         -5    1    3    3    0  502 -0.16571228637E+02 -0.19253476242E+02 -0.42790611233E+02  0.49984281285E+02  0.47000000000E+01 0.  1.
          5    1    4    4  503    0 -0.39849061971E+02  0.10352339529E+02 -0.97028764407E+02  0.10550729736E+03  0.47000000000E+01 0. -1.
         -5    1    4    4    0  503  0.21939821960E+02 -0.59310620021E+02 -0.14464451200E+03  0.15793425938E+03  0.47000000000E+01 0.  1.
<mgrwt>
<rscale>  0 0.10452277E+03</rscale>
<asrwt>0</asrwt>
<pdfrwt beam="1">  1        1 0.61073874E-01 0.10485934E+03</pdfrwt>
<pdfrwt beam="2">  1       -1 0.45283617E-02 0.10485934E+03</pdfrwt>
<totfact> 0.11582823E+04</totfact>
</mgrwt>
</event>
<event>
 8    1  0.6396648E-004  0.1040546E+03  0.7546771E-02  0.1273739E+00
         -1   -1    0    0    0  501 -0.00000000000E+00  0.00000000000E+00  0.45105707384E+02  0.45105707384E+02  0.00000000000E+00 0.  1.
          1   -1    0    0  501    0  0.00000000000E+00 -0.00000000000E+00 -0.25442792172E+03  0.25442792172E+03  0.00000000000E+00 0. -1.
         23    2    1    2    0    0  0.28093470095E+02  0.32491819631E+02 -0.14734059376E+03  0.17841760978E+03  0.90986985346E+02 0.  0.
         23    2    1    2    0    0 -0.28093470095E+02 -0.32491819631E+02 -0.61981620569E+02  0.12111601933E+03  0.94775563539E+02 0.  0.
          5    1    3    3  502    0 -0.28895312365E+01  0.53003343643E+02 -0.12218529035E+03  0.13330055891E+03  0.47000000000E+01 0. -1.
         -5    1    4    4    0  503 -0.93085095019E+01  0.30258089693E+02 -0.41335411323E+02  0.52277208899E+02  0.47000000000E+01 0.  1.
          5    1    4    4  503    0 -0.18784960593E+02 -0.62749909325E+02 -0.20646209246E+02  0.68838810427E+02  0.47000000000E+01 0. -1.
         -5    1    3    3    0  502  0.30983001331E+02 -0.20511524012E+02 -0.25155303414E+02  0.45117050863E+02  0.47000000000E+01 0.  1.
<mgrwt>
<rscale>  0 0.10318414E+03</rscale>
<asrwt>0</asrwt>
<pdfrwt beam="1">  1        1 0.39142757E-01 0.10405464E+03</pdfrwt>
<pdfrwt beam="2">  1       -1 0.69393397E-02 0.10405464E+03</pdfrwt>
<totfact> 0.10666186E+04</totfact>
</mgrwt>
</event>
<event>
 8    1  0.6396648E-004  0.1154109E+03  0.7546771E-02  0.1251119E+00
         -2   -1    0    0    0  501 -0.00000000000E+00  0.00000000000E+00  0.83113576045E+03  0.83113576045E+03  0.00000000000E+00 0.  1.
          2   -1    0    0  501    0  0.00000000000E+00 -0.00000000000E+00 -0.33473085951E+02  0.33473085951E+02  0.00000000000E+00 0. -1.
         23    2    1    2    0    0  0.52661608648E+02  0.42601524582E+02  0.71214248579E+03  0.72143371532E+03  0.93442766511E+02 0.  0.
         23    2    1    2    0    0 -0.52661608648E+02 -0.42601524582E+02  0.85520188711E+02  0.14317513108E+03  0.92721521562E+02 0.  0.
          5    1    4    4  502    0 -0.46910226290E+02  0.11914006743E+02  0.71377137859E+02  0.86367231611E+02  0.47000000000E+01 0. -1.
         -5    1    4    4    0  502 -0.57513823578E+01 -0.54515531325E+02  0.14143050852E+02  0.56807899470E+02  0.47000000000E+01 0.  1.
          5    1    3    3  503    0  0.13491650633E+02 -0.28734527352E+02  0.26333992982E+03  0.26528796870E+03  0.47000000000E+01 0. -1.
         -5    1    3    3    0  503  0.39169958015E+02  0.71336051934E+02  0.44880255597E+03  0.45614574662E+03  0.47000000000E+01 0.  1.
<mgrwt>
<rscale>  0 0.11526487E+03</rscale>
<asrwt>0</asrwt>
<pdfrwt beam="1">  1        2 0.51497061E-02 0.11541094E+03</pdfrwt>
<pdfrwt beam="2">  1       -2 0.12786703E+00 0.11541094E+03</pdfrwt>
<totfact> 0.69554528E+02</totfact>
</mgrwt>
</event>
<event>
 8    1  0.6396648E-004  0.1058074E+03  0.7546771E-02  0.1269947E+00
         -2   -1    0    0    0  501 -0.00000000000E+00  0.00000000000E+00  0.37149365707E+03  0.37149365707E+03  0.00000000000E+00 0.  1.
          2   -1    0    0  501    0  0.00000000000E+00 -0.00000000000E+00 -0.62929387550E+02  0.62929387550E+02  0.00000000000E+00 0. -1.
         23    2    1    2    0    0  0.47191341332E+02 -0.17718188456E+02  0.31201106859E+03  0.32855952847E+03  0.89774717642E+02 0.  0.
         23    2    1    2    0    0 -0.47191341332E+02  0.17718188456E+02 -0.34467990637E+01  0.10586351616E+03  0.93028203950E+02 0.  0.
          5    1    3    3  502    0  0.11154867144E+02  0.33837296893E+02  0.73014841821E+02  0.81379670977E+02  0.47000000000E+01 0. -1.
         -5    1    3    3    0  502  0.36036474188E+02 -0.51555485350E+02  0.23899622677E+03  0.24717985749E+03  0.47000000000E+01 0.  1.
          5    1    4    4  503    0 -0.23543282979E+02  0.39115667797E+02 -0.37282206426E+02  0.59130149303E+02  0.47000000000E+01 0. -1.
         -5    1    4    4    0  503 -0.23648058353E+02 -0.21397479340E+02  0.33835407363E+02  0.46733366852E+02  0.47000000000E+01 0.  1.
<mgrwt>
<rscale>  0 0.10508787E+03</rscale>
<asrwt>0</asrwt>
<pdfrwt beam="1">  1        2 0.96814445E-02 0.10580739E+03</pdfrwt>
<pdfrwt beam="2">  1       -2 0.57152869E-01 0.10580739E+03</pdfrwt>
<totfact> 0.18621272E+03</totfact>
</mgrwt>
</event>
<event>
 8    1  0.6396648E-004  0.1342074E+03  0.7546771E-02  0.1222958E+00
          3   -1    0    0  501    0  0.00000000000E+00  0.00000000000E+00  0.29146929044E+02  0.29146929044E+02  0.00000000000E+00 0. -1.
         -3   -1    0    0    0  501 -0.00000000000E+00 -0.00000000000E+00 -0.59925985839E+03  0.59925985839E+03  0.00000000000E+00 0.  1.
         23    2    1    2    0    0  0.78042883003E+02 -0.55709011598E+02 -0.27330150999E+03  0.30447551953E+03  0.93901230396E+02 0.  0.
         23    2    1    2    0    0 -0.78042883003E+02  0.55709011598E+02 -0.29681141935E+03  0.32393126790E+03  0.87408592854E+02 0.  0.
          5    1    4    4  502    0 -0.15069281421E+02  0.40083434731E+02 -0.39240906723E+02  0.58272667202E+02  0.47000000000E+01 0. -1.
         -5    1    4    4    0  502 -0.62973601582E+02  0.15625576866E+02 -0.25757051263E+03  0.26565860069E+03  0.47000000000E+01 0.  1.
          5    1    3    3  503    0  0.29091556322E+02 -0.76327186334E+01 -0.20604835073E+03  0.20828487674E+03  0.47000000000E+01 0. -1.
         -5    1    3    3    0  503  0.48951326681E+02 -0.48076292964E+02 -0.67253159268E+02  0.96190642791E+02  0.47000000000E+01 0.  1.
<mgrwt>
<rscale>  0 0.13307829E+03</rscale>
<asrwt>0</asrwt>
<pdfrwt beam="1">  1        3 0.44841431E-02 0.13420740E+03</pdfrwt>
<pdfrwt beam="2">  1       -3 0.92193820E-01 0.13420740E+03</pdfrwt>
<totfact> 0.68169072E+02</totfact>
</mgrwt>
</event>
<event>
 8    1  0.6396648E-004  0.1975912E+03  0.7546771E-02  0.1152475E+00
          1   -1    0    0  501    0  0.00000000000E+00  0.00000000000E+00  0.16588692967E+03  0.16588692967E+03  0.00000000000E+00 0. -1.
         -1   -1    0    0    0  501 -0.00000000000E+00 -0.00000000000E+00 -0.23573779032E+03  0.23573779032E+03  0.00000000000E+00 0.  1.
         23    2    1    2    0    0 -0.75525187505E+02  0.15919821568E+03 -0.61871433223E+02  0.20705155207E+03  0.89409983456E+02 0.  0.
         23    2    1    2    0    0  0.75525187505E+02 -0.15919821568E+03 -0.79794274263E+01  0.19457316791E+03  0.82139640768E+02 0.  0.
          5    1    3    3  502    0 -0.80495733998E+02  0.11576289421E+03 -0.13561612947E+02  0.14172726701E+03  0.47000000000E+01 0. -1.
         -5    1    3    3    0  502  0.49705464930E+01  0.43435321471E+02 -0.48309820276E+02  0.65324285062E+02  0.47000000000E+01 0.  1.
          5    1    4    4  503    0  0.32177678557E+02 -0.15269293453E+02 -0.24194852577E+02  0.43313222127E+02  0.47000000000E+01 0. -1.
         -5    1    4    4    0  503  0.43347508948E+02 -0.14392892223E+03  0.16215425151E+02  0.15125994579E+03  0.47000000000E+01 0.  1.
<mgrwt>
<rscale>  0 0.19679090E+03</rscale>
<asrwt>0</asrwt>
<pdfrwt beam="1">  1        1 0.25521066E-01 0.19759117E+03</pdfrwt>
<pdfrwt beam="2">  1       -1 0.36267352E-01 0.19759117E+03</pdfrwt>
<totfact> 0.13591045E+03</totfact>
</mgrwt>
</event>
<event>
 8    1  0.6396648E-004  0.9695718E+02  0.7546771E-02  0.1288175E+00
          1   -1    0    0  501    0  0.00000000000E+00  0.00000000000E+00  0.37669360041E+02  0.37669360041E+02  0.00000000000E+00 0. -1.
         -1   -1    0    0    0  501 -0.00000000000E+00 -0.00000000000E+00 -0.27704115313E+03  0.27704115313E+03  0.00000000000E+00 0.  1.
         23    2    1    2    0    0 -0.91308407855E+01 -0.27045551416E+02 -0.17588434205E+03  0.20083823509E+03  0.92659920085E+02 0.  0.
         23    2    1    2    0    0  0.91308407855E+01  0.27045551416E+02 -0.63487451034E+02  0.11387227808E+03  0.90118839156E+02 0.  0.
          5    1    4    4  502    0 -0.26749049012E+02  0.43329260565E+02 -0.51123382045E+02  0.72309243088E+02  0.47000000000E+01 0. -1.
         -5    1    4    4    0  502  0.35879889798E+02 -0.16283709149E+02 -0.12364068989E+02  0.41563034989E+02  0.47000000000E+01 0.  1.
          5    1    3    3  503    0 -0.46250943709E+02 -0.34166481682E+02 -0.90243967140E+02  0.10711004561E+03  0.47000000000E+01 0. -1.
         -5    1    3    3    0  503  0.37120102924E+02  0.71209302657E+01 -0.85640374913E+02  0.93728189486E+02  0.47000000000E+01 0.  1.
<mgrwt>
<rscale>  0 0.96345034E+02</rscale>
<asrwt>0</asrwt>
<pdfrwt beam="1">  1        1 0.57952862E-02 0.96957181E+02</pdfrwt>
<pdfrwt beam="2">  1       -1 0.42621715E-01 0.96957181E+02</pdfrwt>
<totfact> 0.68811446E+03</totfact>
</mgrwt>
</event>
<event>
 8    1  0.6396648E-004  0.2325082E+03  0.7546771E-02  0.1125192E+00
          1   -1    0    0  501    0  0.00000000000E+00  0.00000000000E+00  0.88750707048E+03  0.88750707048E+03  0.00000000000E+00 0. -1.
         -1   -1    0    0    0  501 -0.00000000000E+00 -0.00000000000E+00 -0.61046996101E+02  0.61046996101E+02  0.00000000000E+00 0.  1.
         23    2    1    2    0    0  0.14018724001E+03 -0.15954687363E+03  0.45841799007E+03  0.51322080763E+03  0.90226806525E+02 0.  0.
         23    2    1    2    0    0 -0.14018724001E+03  0.15954687363E+03  0.36804208431E+03  0.43533325895E+03  0.94617141029E+02 0.  0.
          5    1    3    3  502    0  0.30679037772E+02 -0.10035777615E+03  0.18453215030E+03  0.21233721079E+03  0.47000000000E+01 0. -1.
         -5    1    3    3    0  502  0.10950820224E+03 -0.59189097480E+02  0.27388583978E+03  0.30088359685E+03  0.47000000000E+01 0.  1.
          5    1    4    4  503    0 -0.50683990918E+02  0.12435375445E+03  0.24096415993E+03  0.27589588535E+03  0.47000000000E+01 0. -1.
         -5    1    4    4    0  503 -0.89503249097E+02  0.35193119186E+02  0.12707792437E+03  0.15943737360E+03  0.47000000000E+01 0.  1.
<mgrwt>
<rscale>  0 0.23206903E+03</rscale>
<asrwt>0</asrwt>
<pdfrwt beam="1">  1        1 0.13653954E+00 0.23250822E+03</pdfrwt>
<pdfrwt beam="2">  1       -1 0.93918462E-02 0.23250822E+03</pdfrwt>
<totfact> 0.13137926E+03</totfact>
</mgrwt>
</event>
<event>
 8    1  0.6396648E-004  0.1217656E+03  0.7546771E-02  0.1240728E+00
          1   -1    0    0  501    0  0.00000000000E+00  0.00000000000E+00  0.10069782791E+03  0.10069782791E+03  0.00000000000E+00 0. -1.
         -1   -1    0    0    0  501 -0.00000000000E+00 -0.00000000000E+00 -0.36142207724E+03  0.36142207724E+03  0.00000000000E+00 0.  1.
         23    2    1    2    0    0  0.40619488595E+02  0.70084593212E+02 -0.30914177155E+03  0.33225818111E+03  0.90912435574E+02 0.  0.
         23    2    1    2    0    0 -0.40619488595E+02 -0.70084593212E+02  0.48417522215E+02  0.12986172404E+03  0.89207723059E+02 0.  0.
          5    1    3    3  502    0  0.63064204015E+02  0.74240096517E+02 -0.26436980970E+03  0.28178391019E+03  0.47000000000E+01 0.  1.
         -5    1    3    3    0  502 -0.22444715419E+02 -0.41555033053E+01 -0.44771961842E+02  0.50474270923E+02  0.47000000000E+01 0. -1.
          5    1    4    4  503    0 -0.12652472111E+02 -0.83184792964E+02  0.51021965843E+02  0.98514597037E+02  0.47000000000E+01 0. -1.
         -5    1    4    4    0  503 -0.27967016485E+02  0.13100199752E+02 -0.26044436275E+01  0.31347127001E+02  0.47000000000E+01 0.  1.
<mgrwt>
<rscale>  0 0.12144751E+03</rscale>
<asrwt>0</asrwt>
<pdfrwt beam="1">  1        1 0.15491973E-01 0.12176561E+03</pdfrwt>
<pdfrwt beam="2">  1       -1 0.55603397E-01 0.12176561E+03</pdfrwt>
<totfact> 0.11783251E+03</totfact>
</mgrwt>
</event>
<event>
 8    1  0.6396648E-004  0.9621207E+02  0.7546771E-02  0.1296717E+00
          2   -1    0    0  501    0  0.00000000000E+00  0.00000000000E+00  0.27044932830E+03  0.27044932830E+03  0.00000000000E+00 0. -1.
         -2   -1    0    0    0  501 -0.00000000000E+00 -0.00000000000E+00 -0.65786696994E+02  0.65786696994E+02  0.00000000000E+00 0.  1.
         23    2    1    2    0    0 -0.11676134122E+02  0.25960752232E+02 -0.18801529729E+02  0.98031932643E+02  0.91904676340E+02 0.  0.
         23    2    1    2    0    0  0.11676134122E+02 -0.25960752232E+02  0.22346416104E+03  0.23820409265E+03  0.77425226664E+02 0.  0.
          5    1    4    4  502    0  0.32855206816E+02  0.97717985672E+01  0.14744024115E+03  0.15144526197E+03  0.47000000000E+01 0. -1.
         -5    1    4    4    0  502 -0.21179072694E+02 -0.35732550799E+02  0.76023919887E+02  0.86758830685E+02  0.47000000000E+01 0.  1.
          5    1    3    3  503    0 -0.86714828447E+01  0.58970871934E+02 -0.31933454049E+00  0.59790888319E+02  0.47000000000E+01 0. -1.
         -5    1    3    3    0  503 -0.30046512775E+01 -0.33010119702E+02 -0.18482195188E+02  0.38241044324E+02  0.47000000000E+01 0.  1.
<mgrwt>
<rscale>  0 0.92581743E+02</rscale>
<asrwt>0</asrwt>
<pdfrwt beam="1">  1        2 0.41607588E-01 0.96212069E+02</pdfrwt>
<pdfrwt beam="2">  1       -2 0.10121030E-01 0.96212069E+02</pdfrwt>
<totfact> 0.73841514E+03</totfact>
</mgrwt>
</event>
<event>
 8    1  0.6396648E-004  0.9413168E+02  0.7546771E-02  0.1294127E+00
         -1   -1    0    0    0  501 -0.00000000000E+00  0.00000000000E+00  0.40745678259E+03  0.40745678259E+03  0.00000000000E+00 0.  1.
          1   -1    0    0  501    0  0.00000000000E+00 -0.00000000000E+00 -0.64023455822E+02  0.64023455822E+02  0.00000000000E+00 0. -1.
         23    2    1    2    0    0 -0.10650269802E+02  0.15637468917E+02  0.36364220952E+03  0.37520370105E+03  0.90466579753E+02 0.  0.
         23    2    1    2    0    0  0.10650269802E+02 -0.15637468917E+02 -0.20208882751E+02  0.96276537367E+02  0.92210704500E+02 0.  0.
          5    1    3    3  502    0 -0.38635963045E+02 -0.18089409614E+02  0.11634007787E+03  0.12400430678E+03  0.47000000000E+01 0. -1.
         -5    1    3    3    0  502  0.27985693243E+02  0.33726878531E+02  0.24730213165E+03  0.25119939427E+03  0.47000000000E+01 0.  1.
          5    1    4    4  503    0 -0.39495125935E+02 -0.17734139460E+02 -0.64467393710E+01  0.44022893175E+02  0.47000000000E+01 0. -1.
         -5    1    4    4    0  503  0.50145395737E+02  0.20966705430E+01 -0.13762143380E+02  0.52253644192E+02  0.47000000000E+01 0.  1.
<mgrwt>
<rscale>  0 0.93701775E+02</rscale>
<asrwt>0</asrwt>
<pdfrwt beam="1">  1        1 0.98497627E-02 0.94131677E+02</pdfrwt>
<pdfrwt beam="2">  1       -1 0.62685657E-01 0.94131677E+02</pdfrwt>
<totfact> 0.16784186E+03</totfact>
</mgrwt>
</event>
<event>
 8    1  0.6396648E-004  0.1053694E+03  0.7546771E-02  0.1270949E+00
         -1   -1    0    0    0  501 -0.00000000000E+00  0.00000000000E+00  0.26808065304E+02  0.26808065304E+02  0.00000000000E+00 0.  1.
          1   -1    0    0  501    0  0.00000000000E+00 -0.00000000000E+00 -0.40624382680E+03  0.40624382680E+03  0.00000000000E+00 0. -1.
         23    2    1    2    0    0  0.31879799334E+02 -0.29918311089E+02 -0.17034994006E+03  0.20030431647E+03  0.95871216610E+02 0.  0.
         23    2    1    2    0    0 -0.31879799334E+02  0.29918311089E+02 -0.20908582144E+03  0.23274757563E+03  0.92429033822E+02 0.  0.
          5    1    4    4  502    0 -0.20283401868E+02  0.46505199510E+02 -0.46950115915E+02  0.69286025700E+02  0.47000000000E+01 0. -1.
         -5    1    3    3    0  503  0.54081553758E+02 -0.32966704275E+02 -0.59211113274E+02  0.86831238519E+02  0.47000000000E+01 0.  1.
          5    1    3    3  503    0 -0.22201754423E+02  0.30483931861E+01 -0.11113882678E+03  0.11347307795E+03  0.47000000000E+01 0. -1.
         -5    1    4    4    0  502 -0.11596397466E+02 -0.16586888421E+02 -0.16213570552E+03  0.16346154994E+03  0.47000000000E+01 0.  1.
<mgrwt>
<rscale>  0 0.10458013E+03</rscale>
<asrwt>0</asrwt>
<pdfrwt beam="1">  1        1 0.62499046E-01 0.10536943E+03</pdfrwt>
<pdfrwt beam="2">  1       -1 0.41243180E-02 0.10536943E+03</pdfrwt>
<totfact> 0.12906640E+04</totfact>
</mgrwt>
</event>
<event>
 8    1  0.6396648E-004  0.9782246E+02  0.7546771E-02  0.1286117E+00
          1   -1    0    0  501    0  0.00000000000E+00  0.00000000000E+00  0.11518068853E+03  0.11518068853E+03  0.00000000000E+00 0. -1.
         -1   -1    0    0    0  501 -0.00000000000E+00 -0.00000000000E+00 -0.86731617042E+02  0.86731617042E+02  0.00000000000E+00 0.  1.
         23    2    1    2    0    0  0.29935707256E+02  0.18309240367E+02 -0.11255683934E+02  0.96339104417E+02  0.89012121463E+02 0.  0.
         23    2    1    2    0    0 -0.29935707256E+02 -0.18309240367E+02  0.39704755424E+02  0.10557320116E+03  0.91311874077E+02 0.  0.
          5    1    3    3  502    0 -0.18178564836E+02  0.11905819230E+02  0.26554290257E+02  0.34632774681E+02  0.47000000000E+01 0. -1.
         -5    1    4    4    0  503 -0.45642708004E+02  0.18527593027E+02  0.72128710700E+00  0.49488774004E+02  0.47000000000E+01 0.  1.
          5    1    4    4  503    0  0.15707000749E+02 -0.36836833394E+02  0.38983468317E+02  0.56084427153E+02  0.47000000000E+01 0. -1.
         -5    1    3    3    0  502  0.48114272092E+02  0.64034211370E+01 -0.37809974191E+02  0.61706329736E+02  0.47000000000E+01 0.  1.
<mgrwt>
<rscale>  0 0.97282215E+02</rscale>
<asrwt>0</asrwt>
<pdfrwt beam="1">  1        1 0.17720106E-01 0.97822458E+02</pdfrwt>
<pdfrwt beam="2">  1       -1 0.13343326E-01 0.97822458E+02</pdfrwt>
<totfact> 0.10564653E+04</totfact>
</mgrwt>
</event>
<event>
 8    1  0.6396648E-004  0.1634133E+03  0.7546771E-02  0.1185221E+00
         -1   -1    0    0    0  501 -0.00000000000E+00  0.00000000000E+00  0.13206617330E+03  0.13206617330E+03  0.00000000000E+00 0.  1.
          1   -1    0    0  501    0  0.00000000000E+00 -0.00000000000E+00 -0.71792688527E+03  0.71792688527E+03  0.00000000000E+00 0. -1.
         23    2    1    2    0    0 -0.36673507386E+02 -0.12904243301E+03  0.67489411965E+02  0.17680136772E+03  0.93311345711E+02 0.  0.
         23    2    1    2    0    0  0.36673507386E+02  0.12904243301E+03 -0.65335012394E+03  0.67319169086E+03  0.91234711207E+02 0.  0.
          5    1    4    4  502    0  0.76376880060E+01  0.12171399819E+03 -0.59553593153E+03  0.60791263137E+03  0.47000000000E+01 0. -1.
         -5    1    4    4    0  502  0.29035819380E+02  0.73284348129E+01 -0.57814192407E+02  0.65279059488E+02  0.47000000000E+01 0.  1.
          5    1    3    3  503    0  0.30814816365E+02 -0.33528879548E+02  0.12340360975E+02  0.47414271906E+02  0.47000000000E+01 0. -1.
         -5    1    3    3    0  503 -0.67488323751E+02 -0.95513553459E+02  0.55149050990E+02  0.12938709581E+03  0.47000000000E+01 0.  1.
<mgrwt>
<rscale>  0 0.16311828E+03</rscale>
<asrwt>0</asrwt>
<pdfrwt beam="1">  1        1 0.11045029E+00 0.16341329E+03</pdfrwt>
<pdfrwt beam="2">  1       -1 0.20317873E-01 0.16341329E+03</pdfrwt>
<totfact> 0.54032455E+02</totfact>
</mgrwt>
</event>
<event>
 8    1  0.6396648E-004  0.1072745E+03  0.7546771E-02  0.1267828E+00
          1   -1    0    0  501    0  0.00000000000E+00  0.00000000000E+00  0.39378438990E+03  0.39378438990E+03  0.00000000000E+00 0. -1.
         -1   -1    0    0    0  501 -0.00000000000E+00 -0.00000000000E+00 -0.39054390116E+02  0.39054390116E+02  0.00000000000E+00 0.  1.
         23    2    1    2    0    0  0.81213807585E+01 -0.48571785472E+02  0.65146859499E+02  0.12550669154E+03  0.95302891617E+02 0.  0.
         23    2    1    2    0    0 -0.81213807585E+01  0.48571785472E+02  0.28958314029E+03  0.30733208847E+03  0.90384967207E+02 0.  0.
          5    1    3    3  502    0 -0.21074877888E+02  0.79353334700E+00  0.64430526152E+02  0.67957066398E+02  0.47000000000E+01 0. -1.
         -5    1    3    3    0  502  0.29196258647E+02 -0.49365318819E+02  0.71633334671E+00  0.57549625147E+02  0.47000000000E+01 0.  1.
          5    1    4    4  503    0 -0.37348417137E+02 -0.46887444832E+01  0.72051860989E+02  0.81427570635E+02  0.47000000000E+01 0. -1.
         -5    1    4    4    0  503  0.29227036378E+02  0.53260529955E+02  0.21753127930E+03  0.22590451784E+03  0.47000000000E+01 0.  1.
<mgrwt>
<rscale>  0 0.10617151E+03</rscale>
<asrwt>0</asrwt>
<pdfrwt beam="1">  1        1 0.60582211E-01 0.10727449E+03</pdfrwt>
<pdfrwt beam="2">  1       -1 0.60083680E-02 0.10727449E+03</pdfrwt>
<totfact> 0.77303388E+03</totfact>
</mgrwt>
</event>
<event>
 8    1  0.6396648E-004  0.1650773E+03  0.7546771E-02  0.1183126E+00
          1   -1    0    0  501    0  0.00000000000E+00  0.00000000000E+00  0.23226098705E+03  0.23226098705E+03  0.00000000000E+00 0. -1.
         -1   -1    0    0    0  501 -0.00000000000E+00 -0.00000000000E+00 -0.11725599885E+03  0.11725599885E+03  0.00000000000E+00 0.  1.
         23    2    1    2    0    0  0.10235927578E+03  0.92748941957E+02  0.53996285493E+02  0.17368397024E+03  0.90392118575E+02 0.  0.
         23    2    1    2    0    0 -0.10235927578E+03 -0.92748941957E+02  0.61008702703E+02  0.17583301566E+03  0.90085515034E+02 0.  0.
          5    1    4    4  502    0 -0.89947392760E+02 -0.23099986699E+02  0.24877690224E+02  0.96255557350E+02  0.47000000000E+01 0. -1.
         -5    1    4    4    0  502 -0.12411883019E+02 -0.69648955257E+02  0.36131012479E+02  0.79577458311E+02  0.47000000000E+01 0.  1.
          5    1    3    3  503    0  0.39542954232E+02 -0.75940798041E+01  0.35274501356E+02  0.53737284295E+02  0.47000000000E+01 0. -1.
         -5    1    3    3    0  503  0.62816321547E+02  0.10034302176E+03  0.18721784137E+02  0.11994668595E+03  0.47000000000E+01 0.  1.
<mgrwt>
<rscale>  0 0.16503539E+03</rscale>
<asrwt>0</asrwt>
<pdfrwt beam="1">  1        1 0.35732459E-01 0.16507732E+03</pdfrwt>
<pdfrwt beam="2">  1       -1 0.18039384E-01 0.16507732E+03</pdfrwt>
<totfact> 0.28287784E+03</totfact>
</mgrwt>
</event>
<event>
 8    1  0.6396648E-004  0.1134289E+03  0.7546771E-02  0.1254848E+00
         -1   -1    0    0    0  501 -0.00000000000E+00  0.00000000000E+00  0.19056356862E+03  0.19056356862E+03  0.00000000000E+00 0.  1.
          1   -1    0    0  501    0  0.00000000000E+00 -0.00000000000E+00 -0.80257137442E+02  0.80257137442E+02  0.00000000000E+00 0. -1.
         23    2    1    2    0    0 -0.49894101724E+02  0.44843015939E+02  0.11071957954E+03  0.15850848707E+03  0.91464734801E+02 0.  0.
         23    2    1    2    0    0  0.49894101724E+02 -0.44843015939E+02 -0.41314836346E+00  0.11231221900E+03  0.90075226223E+02 0.  0.
          5    1    3    3  502    0 -0.65317229315E+02  0.41344303733E+00  0.55667862829E+02  0.85950638930E+02  0.47000000000E+01 0. -1.
         -5    1    4    4    0  503  0.66658005296E+02 -0.20359365213E+02  0.23723563194E+02  0.73774595035E+02  0.47000000000E+01 0.  1.
          5    1    4    4  503    0 -0.16763903572E+02 -0.24483650726E+02 -0.24136711558E+02  0.38537623962E+02  0.47000000000E+01 0. -1.
         -5    1    3    3    0  502  0.15423127591E+02  0.44429572902E+02  0.55051716715E+02  0.72557848136E+02  0.47000000000E+01 0.  1.
<mgrwt>
<rscale>  0 0.11314850E+03</rscale>
<asrwt>0</asrwt>
<pdfrwt beam="1">  1        1 0.12347252E-01 0.11342890E+03</pdfrwt>
<pdfrwt beam="2">  1       -1 0.29317472E-01 0.11342890E+03</pdfrwt>
<totfact> 0.48410559E+03</totfact>
</mgrwt>
</event>
<event>
 8    1  0.6396648E-004  0.1523450E+03  0.7546771E-02  0.1198131E+00
         -1   -1    0    0    0  501 -0.00000000000E+00  0.00000000000E+00  0.11328960428E+03  0.11328960428E+03  0.00000000000E+00 0.  1.
          1   -1    0    0  501    0  0.00000000000E+00 -0.00000000000E+00 -0.30036130019E+03  0.30036130019E+03  0.00000000000E+00 0. -1.
         23    2    1    2    0    0  0.10941460936E+03 -0.44035765705E+02 -0.21117694765E+03  0.25941062562E+03  0.93741474617E+02 0.  0.
         23    2    1    2    0    0 -0.10941460936E+03  0.44035765705E+02  0.24105251744E+02  0.15424027884E+03  0.96427667470E+02 0.  0.
          5    1    3    3  502    0  0.96761707853E+02 -0.65798845842E+02 -0.19934902734E+03  0.23120216461E+03  0.47000000000E+01 0. -1.
         -5    1    4    4    0  503 -0.40882218282E+02  0.35774948037E+02  0.55905132729E+02  0.78094023742E+02  0.47000000000E+01 0.  1.
          5    1    4    4  503    0 -0.68532391077E+02  0.82608176678E+01 -0.31799880985E+02  0.76146255102E+02  0.47000000000E+01 0. -1.
         -5    1    3    3    0  502  0.12652901507E+02  0.21763080136E+02 -0.11827920313E+02  0.28208461009E+02  0.47000000000E+01 0.  1.
<mgrwt>
<rscale>  0 0.15192177E+03</rscale>
<asrwt>0</asrwt>
<pdfrwt beam="1">  1        1 0.46209430E-01 0.15234500E+03</pdfrwt>
<pdfrwt beam="2">  1       -1 0.17429170E-01 0.15234500E+03</pdfrwt>
<totfact> 0.21645986E+03</totfact>
</mgrwt>
</event>
<event>
 8    1  0.6396648E-004  0.1168679E+03  0.7546771E-02  0.1250589E+00
          1   -1    0    0  501    0  0.00000000000E+00  0.00000000000E+00  0.11104121387E+03  0.11104121387E+03  0.00000000000E+00 0. -1.
         -1   -1    0    0    0  501 -0.00000000000E+00 -0.00000000000E+00 -0.12710102115E+03  0.12710102115E+03  0.00000000000E+00 0.  1.
         23    2    1    2    0    0  0.51365892568E+02 -0.29821661977E+02  0.24537239880E+02  0.11442389618E+03  0.94672939295E+02 0.  0.
         23    2    1    2    0    0 -0.51365892568E+02  0.29821661977E+02 -0.40597047152E+02  0.12371833883E+03  0.10064949421E+03 0.  0.
          5    1    4    4  502    0 -0.43062012185E+02  0.57544401131E+02  0.19442563816E+01  0.72052516457E+02  0.47000000000E+01 0. -1.
         -5    1    3    3    0  503  0.41062498168E+02 -0.63737032600E+02  0.15230983568E+02  0.77476518642E+02  0.47000000000E+01 0.  1.
          5    1    3    3  503    0  0.10303394400E+02  0.33915370623E+02  0.93062563118E+01  0.36947377542E+02  0.47000000000E+01 0. -1.
         -5    1    4    4    0  502 -0.83038803832E+01 -0.27722739154E+02 -0.42541303534E+02  0.51665822378E+02  0.47000000000E+01 0.  1.
<mgrwt>
<rscale>  0 0.11556997E+03</rscale>
<asrwt>0</asrwt>
<pdfrwt beam="1">  1        1 0.17083264E-01 0.11686790E+03</pdfrwt>
<pdfrwt beam="2">  1       -1 0.19554003E-01 0.11686790E+03</pdfrwt>
<totfact> 0.61718948E+03</totfact>
</mgrwt>
</event>
<event>
 8    1  0.6396648E-004  0.9172190E+02  0.7546771E-02  0.1298841E+00
          2   -1    0    0  501    0  0.00000000000E+00  0.00000000000E+00  0.10576689493E+03  0.10576689493E+03  0.00000000000E+00 0. -1.
         -2   -1    0    0    0  501 -0.00000000000E+00 -0.00000000000E+00 -0.17342784296E+03  0.17342784296E+03  0.00000000000E+00 0.  1.
         23    2    1    2    0    0 -0.10272098223E+01 -0.12456525004E+02 -0.13664185983E+03  0.16457188554E+03  0.90866316516E+02 0.  0.
         23    2    1    2    0    0  0.10272098223E+01  0.12456525004E+02  0.68980911793E+02  0.11462285235E+03  0.90685235371E+02 0.  0.
          5    1    4    4  502    0 -0.10674428280E+02  0.49707216387E+02  0.29841798454E+02  0.59138597506E+02  0.47000000000E+01 0. -1.
         -5    1    3    3    0  503  0.34632696285E+01 -0.39167610746E+02 -0.13053705065E+03  0.13641153749E+03  0.47000000000E+01 0.  1.
          5    1    3    3  503    0 -0.44904794508E+01  0.26711085742E+02 -0.61048091824E+01  0.28160348052E+02  0.47000000000E+01 0. -1.
         -5    1    4    4    0  502  0.11701638103E+02 -0.37250691383E+02  0.39139113339E+02  0.55484254845E+02  0.47000000000E+01 0.  1.
<mgrwt>
<rscale>  0 0.91677024E+02</rscale>
<asrwt>0</asrwt>
<pdfrwt beam="1">  1        2 0.16271830E-01 0.91721904E+02</pdfrwt>
<pdfrwt beam="2">  1       -2 0.26681206E-01 0.91721904E+02</pdfrwt>
<totfact> 0.41665581E+03</totfact>
</mgrwt>
</event>
<event>
 7    1  0.6396648E-004  0.1653853E+03  0.7546771E-02  0.1207992E+00
          2   -1    0    0  501    0  0.00000000000E+00  0.00000000000E+00  0.29788773461E+03  0.29788773461E+03  0.00000000000E+00 0. -1.
         -2   -1    0    0    0  501 -0.00000000000E+00 -0.00000000000E+00 -0.13166999920E+03  0.13166999920E+03  0.00000000000E+00 0.  1.
         23    2    1    2    0    0 -0.85559751302E+01 -0.24508631776E+02  0.23262651388E+03  0.25133757322E+03  0.91551095072E+02 0.  0.
          5    1    3    3  502    0 -0.15700116460E+02  0.32775515256E+02  0.10417038488E+03  0.11042774626E+03  0.47000000000E+01 0. -1.
         -5    1    1    2    0  503  0.56840263624E+02  0.75561985111E+02 -0.43264163813E+02  0.10408797737E+03  0.47000000000E+01 0.  1.
          5    1    1    2  503    0 -0.48284288494E+02 -0.51053353335E+02 -0.23144614652E+02  0.74132183224E+02  0.47000000000E+01 0. -1.
         -5    1    3    3    0  502  0.71441413301E+01 -0.57284147032E+02  0.12845612900E+03  0.14090982696E+03  0.47000000000E+01 0.  1.
<mgrwt>
<rscale>  0 0.14404117E+03</rscale>
<asrwt>0</asrwt>
<pdfrwt beam="1">  1        2 0.45828882E-01 0.16538531E+03</pdfrwt>
<pdfrwt beam="2">  1       -2 0.20256923E-01 0.16538531E+03</pdfrwt>
<totfact> 0.22241927E+03</totfact>
</mgrwt>
</event>
<event>
 8    1  0.6396648E-004  0.9973965E+02  0.7546771E-02  0.1284887E+00
         -2   -1    0    0    0  501 -0.00000000000E+00  0.00000000000E+00  0.15352564670E+02  0.15352564670E+02  0.00000000000E+00 0.  1.
          2   -1    0    0  501    0  0.00000000000E+00 -0.00000000000E+00 -0.86328959750E+03  0.86328959750E+03  0.00000000000E+00 0. -1.
         23    2    1    2    0    0 -0.35506363325E+02 -0.25814405578E+02 -0.17067495074E+03  0.19407519981E+03  0.81290583708E+02 0.  0.
         23    2    1    2    0    0  0.35506363325E+02  0.25814405578E+02 -0.67726208210E+03  0.68456696236E+03  0.89559548598E+02 0.  0.
          5    1    4    4  502    0  0.56242499670E+02  0.43329595054E+02 -0.44081529632E+03  0.44652087078E+03  0.47000000000E+01 0. -1.
         -5    1    3    3    0  503 -0.20101979664E+02 -0.51769072954E+02 -0.73683814752E+02  0.92387883715E+02  0.47000000000E+01 0.  1.
          5    1    3    3  503    0 -0.15404383661E+02  0.25954667376E+02 -0.96991135986E+02  0.10168731609E+03  0.47000000000E+01 0. -1.
         -5    1    4    4    0  502 -0.20736136346E+02 -0.17515189476E+02 -0.23644678578E+03  0.23804609158E+03  0.47000000000E+01 0.  1.
<mgrwt>
<rscale>  0 0.97848209E+02</rscale>
<asrwt>0</asrwt>
<pdfrwt beam="1">  1        2 0.13281373E+00 0.99739652E+02</pdfrwt>
<pdfrwt beam="2">  1       -2 0.23619339E-02 0.99739652E+02</pdfrwt>
<totfact> 0.18035913E+04</totfact>
</mgrwt>
</event>
<event>
 7    1  0.6396648E-004  0.1480947E+03  0.7546771E-02  0.1217277E+00
          1   -1    0    0  501    0  0.00000000000E+00  0.00000000000E+00  0.50747194423E+03  0.50747194423E+03  0.00000000000E+00 0. -1.
         -1   -1    0    0    0  501 -0.00000000000E+00 -0.00000000000E+00 -0.10597009678E+03  0.10597009678E+03  0.00000000000E+00 0.  1.
         23    2    1    2    0    0  0.16884649183E+02  0.59006104525E+02  0.44578451573E+03  0.45886842974E+03  0.89830894432E+02 0.  0.
          5    1    3    3  502    0  0.50569633220E+02  0.35880588719E+02  0.19329554913E+03  0.20305162832E+03  0.47000000000E+01 0. -1.
         -5    1    1    2    0  503  0.53240020064E+02 -0.31027883004E+02  0.84299808670E+01  0.62372941550E+02  0.47000000000E+01 0. -1.
          5    1    1    2  503    0 -0.70124669247E+02 -0.27978221521E+02 -0.52712649154E+02  0.92200669723E+02  0.47000000000E+01 0.  1.
         -5    1    3    3    0  502 -0.33684984037E+02  0.23125515807E+02  0.25248896660E+03  0.25581680142E+03  0.47000000000E+01 0.  1.
<mgrwt>
<rscale>  0 0.13710622E+03</rscale>
<asrwt>0</asrwt>
<pdfrwt beam="1">  1        1 0.78072606E-01 0.14809472E+03</pdfrwt>
<pdfrwt beam="2">  1       -1 0.16303092E-01 0.14809472E+03</pdfrwt>
<totfact> 0.12371133E+03</totfact>
</mgrwt>
</event>
<event>
 8    1  0.6396648E-004  0.1101946E+03  0.7546771E-02  0.1260412E+00
         -3   -1    0    0    0  501 -0.00000000000E+00  0.00000000000E+00  0.23173337388E+03  0.23173337388E+03  0.00000000000E+00 0.  1.
          3   -1    0    0  501    0  0.00000000000E+00 -0.00000000000E+00 -0.62324900833E+02  0.62324900833E+02  0.00000000000E+00 0. -1.
         23    2    1    2    0    0 -0.58559975741E+02  0.17704406496E+02  0.25281160371E+02  0.11263187162E+03  0.91126750553E+02 0.  0.
         23    2    1    2    0    0  0.58559975741E+02 -0.17704406496E+02  0.14412731267E+03  0.18142640309E+03  0.91652281547E+02 0.  0.
          5    1    4    4  502    0  0.29946835818E+02  0.29558553447E+02  0.22936104295E+02  0.48152631679E+02  0.47000000000E+01 0. -1.
         -5    1    3    3    0  503 -0.55211673781E+02 -0.28997298610E+02  0.17439365365E+02  0.64926063431E+02  0.47000000000E+01 0.  1.
          5    1    3    3  503    0 -0.33483019602E+01  0.46701705106E+02  0.78417950068E+01  0.47705808187E+02  0.47000000000E+01 0. -1.
         -5    1    4    4    0  502  0.28613139923E+02 -0.47262959943E+02  0.12119120838E+03  0.13327377142E+03  0.47000000000E+01 0.  1.
<mgrwt>
<rscale>  0 0.11008529E+03</rscale>
<asrwt>0</asrwt>
<pdfrwt beam="1">  1        3 0.95884464E-02 0.11019463E+03</pdfrwt>
<pdfrwt beam="2">  1       -3 0.35651288E-01 0.11019463E+03</pdfrwt>
<totfact> 0.13607271E+03</totfact>
</mgrwt>
</event>
<event>
 8    1  0.6396648E-004  0.1319468E+03  0.7546771E-02  0.1224812E+00
         -2   -1    0    0    0  501 -0.00000000000E+00  0.00000000000E+00  0.37384752770E+02  0.37384752770E+02  0.00000000000E+00 0.  1.
          2   -1    0    0  501    0  0.00000000000E+00 -0.00000000000E+00 -0.54082836419E+03  0.54082836419E+03  0.00000000000E+00 0. -1.
         23    2    1    2    0    0 -0.93952928776E+02 -0.63225697365E+01 -0.14296259712E+03  0.19454630609E+03  0.92427448971E+02 0.  0.
         23    2    1    2    0    0  0.93952928776E+02  0.63225697365E+01 -0.36048101430E+03  0.38366681087E+03  0.91578012534E+02 0.  0.
          5    1    4    4  502    0  0.97557840195E+02  0.31628978709E+02 -0.25188174981E+03  0.27200079111E+03  0.47000000000E+01 0. -1.
         -5    1    3    3    0  503 -0.56588970919E+02  0.34353914263E+02 -0.39669577188E+02  0.77319262860E+02  0.47000000000E+01 0.  1.
          5    1    3    3  503    0 -0.37363957857E+02 -0.40676484000E+02 -0.10329301993E+03  0.11722704323E+03  0.47000000000E+01 0. -1.
         -5    1    4    4    0  502 -0.36049114187E+01 -0.25306408972E+02 -0.10859926449E+03  0.11166601976E+03  0.47000000000E+01 0.  1.
<mgrwt>
<rscale>  0 0.13179815E+03</rscale>
<asrwt>0</asrwt>
<pdfrwt beam="1">  1        2 0.83204361E-01 0.13194681E+03</pdfrwt>
<pdfrwt beam="2">  1       -2 0.57515006E-02 0.13194681E+03</pdfrwt>
<totfact> 0.85802986E+03</totfact>
</mgrwt>
</event>
<event>
 8    1  0.6396648E-004  0.1529436E+03  0.7546771E-02  0.1197345E+00
         -1   -1    0    0    0  501 -0.00000000000E+00  0.00000000000E+00  0.61205923122E+03  0.61205923122E+03  0.00000000000E+00 0.  1.
          1   -1    0    0  501    0  0.00000000000E+00 -0.00000000000E+00 -0.52415613697E+02  0.52415613697E+02  0.00000000000E+00 0. -1.
         23    2    1    2    0    0  0.11958628818E+03 -0.19241695066E+02  0.45397498621E+03  0.47857808648E+03  0.90953689338E+02 0.  0.
         23    2    1    2    0    0 -0.11958628818E+03  0.19241695066E+02  0.10566863132E+03  0.18589675845E+03  0.93384270659E+02 0.  0.
          5    1    3    3  502    0  0.13727553888E+02 -0.22650609009E+02  0.25091859876E+02  0.36785693636E+02  0.47000000000E+01 0. -1.
         -5    1    4    4    0  503 -0.13403315156E+02 -0.20654567286E+02 -0.69222373455E+01  0.26005141353E+02  0.47000000000E+01 0.  1.
          5    1    4    4  503    0 -0.10618297302E+03  0.39896262352E+02  0.11259086867E+03  0.15989161709E+03  0.47000000000E+01 0. -1.
         -5    1    3    3    0  502  0.10585873429E+03  0.34089139437E+01  0.42888312633E+03  0.44179239284E+03  0.47000000000E+01 0.  1.
<mgrwt>
<rscale>  0 0.15257431E+03</rscale>
<asrwt>0</asrwt>
<pdfrwt beam="1">  1        1 0.80639410E-02 0.15294360E+03</pdfrwt>
<pdfrwt beam="2">  1       -1 0.94162954E-01 0.15294360E+03</pdfrwt>
<totfact> 0.97847199E+02</totfact>
</mgrwt>
</event>
<event>
 8    1  0.6396648E-004  0.9469618E+02  0.7546771E-02  0.1292188E+00
          1   -1    0    0  501    0  0.00000000000E+00  0.00000000000E+00  0.74915962993E+03  0.74915962993E+03  0.00000000000E+00 0. -1.
         -1   -1    0    0    0  501 -0.00000000000E+00 -0.00000000000E+00 -0.14665672217E+02  0.14665672217E+02  0.00000000000E+00 0.  1.
         23    2    1    2    0    0  0.38916362994E+01 -0.21880559000E+02  0.20041183031E+03  0.22141301883E+03  0.91459933771E+02 0.  0.
         23    2    1    2    0    0 -0.38916362994E+01  0.21880559000E+02  0.53408212741E+03  0.54241228332E+03  0.92051412720E+02 0.  0.
          5    1    3    3  502    0  0.31961794773E+02 -0.89391060367E+01  0.21572501344E+02  0.39861344133E+02  0.47000000000E+01 0. -1.
         -5    1    3    3    0  502 -0.28070158474E+02 -0.12941452964E+02  0.17883932896E+03  0.18155167470E+03  0.47000000000E+01 0.  1.
          5    1    4    4  503    0  0.36520587853E+02 -0.80256642705E+01  0.13545315729E+03  0.14059805278E+03  0.47000000000E+01 0. -1.
         -5    1    4    4    0  503 -0.40412224152E+02  0.29906223271E+02  0.39862897012E+03  0.40181423054E+03  0.47000000000E+01 0.  1.
<mgrwt>
<rscale>  0 0.94552136E+02</rscale>
<asrwt>0</asrwt>
<pdfrwt beam="1">  1        1 0.11525530E+00 0.94696179E+02</pdfrwt>
<pdfrwt beam="2">  1       -1 0.22562578E-02 0.94696179E+02</pdfrwt>
<totfact> 0.13574375E+04</totfact>
</mgrwt>
</event>
<event>
 8    1  0.6396648E-004  0.9368523E+02  0.7546771E-02  0.1296037E+00
         -1   -1    0    0    0  501 -0.00000000000E+00  0.00000000000E+00  0.22128025930E+03  0.22128025930E+03  0.00000000000E+00 0.  1.
          1   -1    0    0  501    0  0.00000000000E+00 -0.00000000000E+00 -0.54712088144E+02  0.54712088144E+02  0.00000000000E+00 0. -1.
         23    2    1    2    0    0 -0.15009883910E+02  0.13950818300E+02  0.67430413256E+01  0.90733082546E+02  0.88131162002E+02 0.  0.
         23    2    1    2    0    0  0.15009883910E+02 -0.13950818300E+02  0.15982512983E+03  0.18525926490E+03  0.91416635024E+02 0.  0.
          5    1    3    3  502    0 -0.39291844113E+02  0.12513492998E+02 -0.26523737334E+02  0.49254798376E+02  0.47000000000E+01 0. -1.
         -5    1    4    4    0  503  0.43576559460E+02 -0.33871836157E+02  0.11986118740E+03  0.13204170577E+03  0.47000000000E+01 0.  1.
          5    1    4    4  503    0 -0.28566675550E+02  0.19921017858E+02  0.39963942432E+02  0.53217559124E+02  0.47000000000E+01 0. -1.
         -5    1    3    3    0  502  0.24281960203E+02  0.14373253018E+01  0.33266778660E+02  0.41478284171E+02  0.47000000000E+01 0.  1.
<mgrwt>
<rscale>  0 0.92873993E+02</rscale>
<asrwt>0</asrwt>
<pdfrwt beam="1">  1        1 0.84172445E-02 0.93685234E+02</pdfrwt>
<pdfrwt beam="2">  1       -1 0.34043116E-01 0.93685234E+02</pdfrwt>
<totfact> 0.61406656E+03</totfact>
</mgrwt>
</event>
<event>
 8    1  0.6396648E-004  0.1041150E+03  0.7546771E-02  0.1272083E+00
         -3   -1    0    0    0  501 -0.00000000000E+00  0.00000000000E+00  0.10514266387E+04  0.10514266387E+04  0.00000000000E+00 0.  1.
          3   -1    0    0  501    0  0.00000000000E+00 -0.00000000000E+00 -0.24839079488E+02  0.24839079488E+02  0.00000000000E+00 0. -1.
         23    2    1    2    0    0 -0.32889153402E+02 -0.37020363364E+02  0.10156370122E+03  0.14544799956E+03  0.91584559037E+02 0.  0.
         23    2    1    2    0    0  0.32889153402E+02  0.37020363364E+02  0.92502385798E+03  0.93081771862E+03  0.91105893082E+02 0.  0.
          5    1    3    3  502    0 -0.33082587884E+02 -0.65859116529E+02  0.63050496323E+02  0.97104767842E+02  0.47000000000E+01 0. -1.
         -5    1    4    4    0  503  0.38666383960E+02  0.64415389985E+02  0.66184214135E+03  0.66610925664E+03  0.47000000000E+01 0.  1.
          5    1    4    4  503    0 -0.57772305583E+01 -0.27395026621E+02  0.26318171663E+03  0.26470846198E+03  0.47000000000E+01 0. -1.
         -5    1    3    3    0  502  0.19343448186E+00  0.28838753165E+02  0.38513204900E+02  0.48343231716E+02  0.47000000000E+01 0.  1.
<mgrwt>
<rscale>  0 0.10400965E+03</rscale>
<asrwt>0</asrwt>
<pdfrwt beam="1">  1        3 0.38213977E-02 0.10411501E+03</pdfrwt>
<pdfrwt beam="2">  1       -3 0.16175791E+00 0.10411501E+03</pdfrwt>
<totfact> 0.22304031E+02</totfact>
</mgrwt>
</event>
<event>
 8    1  0.6396648E-004  0.1384211E+03  0.7546771E-02  0.1215529E+00
         -3   -1    0    0    0  501 -0.00000000000E+00  0.00000000000E+00  0.54473791714E+02  0.54473791714E+02  0.00000000000E+00 0.  1.
          3   -1    0    0  501    0  0.00000000000E+00 -0.00000000000E+00 -0.35130937017E+03  0.35130937017E+03  0.00000000000E+00 0. -1.
         23    2    1    2    0    0 -0.10475496045E+03 -0.79756660894E+01 -0.14965582993E+03  0.20373789269E+03  0.89861273605E+02 0.  0.
         23    2    1    2    0    0  0.10475496045E+03  0.79756660894E+01 -0.14717974852E+03  0.20204526920E+03  0.90128793624E+02 0.  0.
          5    1    4    4  502    0  0.60601903174E+02 -0.98630422047E+01 -0.14091848531E+03  0.15378549922E+03  0.47000000000E+01 0. -1.
         -5    1    3    3    0  503 -0.66650976155E+02 -0.48335784560E+02 -0.85989314133E+02  0.11914257357E+03  0.47000000000E+01 0.  1.
          5    1    3    3  503    0 -0.38103984300E+02  0.40360118471E+02 -0.63666515800E+02  0.84595319117E+02  0.47000000000E+01 0. -1.
         -5    1    4    4    0  502  0.44153057281E+02  0.17838708294E+02 -0.62612632140E+01  0.48259769973E+02  0.47000000000E+01 0.  1.
<mgrwt>
<rscale>  0 0.13837761E+03</rscale>
<asrwt>0</asrwt>
<pdfrwt beam="1">  1        3 0.54047595E-01 0.13842114E+03</pdfrwt>
<pdfrwt beam="2">  1       -3 0.83805834E-02 0.13842114E+03</pdfrwt>
<totfact> 0.78229368E+02</totfact>
</mgrwt>
</event>
<event>
 8    1  0.6396648E-004  0.9342053E+02  0.7546771E-02  0.1301678E+00
          1   -1    0    0  501    0  0.00000000000E+00  0.00000000000E+00  0.16661376082E+03  0.16661376082E+03  0.00000000000E+00 0. -1.
         -1   -1    0    0    0  501 -0.00000000000E+00 -0.00000000000E+00 -0.79015457158E+02  0.79015457158E+02  0.00000000000E+00 0.  1.
         23    2    1    2    0    0  0.52277805042E+01 -0.24617730597E+02 -0.36777921407E+02  0.90075879650E+02  0.78279539108E+02 0.  0.
         23    2    1    2    0    0 -0.52277805042E+01  0.24617730597E+02  0.12437622507E+03  0.15555333833E+03  0.89966845861E+02 0.  0.
          5    1    4    4  502    0 -0.41734398118E+02  0.31035567234E+02  0.49894629173E+02  0.72225552543E+02  0.47000000000E+01 0. -1.
         -5    1    4    4    0  502  0.36506617614E+02 -0.64178366371E+01  0.74481595900E+02  0.83327785789E+02  0.47000000000E+01 0.  1.
          5    1    3    3  503    0  0.20216262239E+02  0.21116647336E+02 -0.48224540557E+00  0.29613048041E+02  0.47000000000E+01 0. -1.
         -5    1    3    3    0  503 -0.14988481735E+02 -0.45734377934E+02 -0.36295676002E+02  0.60462831609E+02  0.47000000000E+01 0.  1.
<mgrwt>
<rscale>  0 0.90486441E+02</rscale>
<asrwt>0</asrwt>
<pdfrwt beam="1">  1        1 0.25632886E-01 0.93420531E+02</pdfrwt>
<pdfrwt beam="2">  1       -1 0.12156224E-01 0.93420531E+02</pdfrwt>
<totfact> 0.76441047E+03</totfact>
</mgrwt>
</event>
<event>
 8    1  0.6396648E-004  0.2294459E+03  0.7546771E-02  0.1128518E+00
          2   -1    0    0  501    0  0.00000000000E+00  0.00000000000E+00  0.93241193340E+03  0.93241193340E+03  0.00000000000E+00 0. -1.
         -2   -1    0    0    0  501 -0.00000000000E+00 -0.00000000000E+00 -0.69545183840E+02  0.69545183840E+02  0.00000000000E+00 0.  1.
         23    2    1    2    0    0  0.19520295796E+03 -0.46880478514E+02  0.67102401911E+03  0.70916758027E+03  0.11110107386E+03 0.  0.
         23    2    1    2    0    0 -0.19520295796E+03  0.46880478514E+02  0.19184273045E+03  0.29278953697E+03  0.92844524184E+02 0.  0.
          5    1    4    4  502    0 -0.15491032897E+03  0.19933706461E+01  0.16566967722E+03  0.22686937982E+03  0.47000000000E+01 0. -1.
         -5    1    3    3    0  503  0.10655372032E+03  0.17827916797E+02  0.22249383315E+03  0.24738052818E+03  0.47000000000E+01 0.  1.
          5    1    3    3  503    0  0.88649237643E+02 -0.64708395311E+02  0.44853018596E+03  0.46178705209E+03  0.47000000000E+01 0. -1.
         -5    1    4    4    0  502 -0.40292628995E+02  0.44887107867E+02  0.26173053224E+02  0.65920157153E+02  0.47000000000E+01 0.  1.
<mgrwt>
<rscale>  0 0.22735177E+03</rscale>
<asrwt>0</asrwt>
<pdfrwt beam="1">  1        2 0.14344798E+00 0.22944590E+03</pdfrwt>
<pdfrwt beam="2">  1       -2 0.10699260E-01 0.22944590E+03</pdfrwt>
<totfact> 0.17216300E+03</totfact>
</mgrwt>
</event>
<event>
 8    1  0.6396648E-004  0.9343933E+02  0.7546771E-02  0.1295456E+00
          2   -1    0    0  501    0  0.00000000000E+00  0.00000000000E+00  0.20667525422E+03  0.20667525422E+03  0.00000000000E+00 0. -1.
         -2   -1    0    0    0  501 -0.00000000000E+00 -0.00000000000E+00 -0.41711886884E+02  0.41711886884E+02  0.00000000000E+00 0.  1.
         23    2    1    2    0    0  0.92300708108E+01  0.66557901516E+01  0.86418020712E+02  0.12727522242E+03  0.92743809434E+02 0.  0.
         23    2    1    2    0    0 -0.92300708108E+01 -0.66557901516E+01  0.78545346621E+02  0.12111191868E+03  0.91483504640E+02 0.  0.
          5    1    3    3  502    0  0.16757664691E+02 -0.26988179046E+02  0.86724424909E+02  0.92479170682E+02  0.47000000000E+01 0. -1.
         -5    1    3    3    0  502 -0.75275938802E+01  0.33643969197E+02 -0.30640419763E+00  0.34796051737E+02  0.47000000000E+01 0.  1.
          5    1    4    4  503    0 -0.35226678554E+02 -0.37196673842E+02  0.49289642587E+02  0.71246545834E+02  0.47000000000E+01 0. -1.
         -5    1    4    4    0  503  0.25996607743E+02  0.30540883691E+02  0.29255704034E+02  0.49865372848E+02  0.47000000000E+01 0.  1.
<mgrwt>
<rscale>  0 0.93125047E+02</rscale>
<asrwt>0</asrwt>
<pdfrwt beam="1">  1        2 0.31796192E-01 0.93439328E+02</pdfrwt>
<pdfrwt beam="2">  1       -2 0.64172135E-02 0.93439328E+02</pdfrwt>
<totfact> 0.19661917E+04</totfact>
</mgrwt>
</event>
<event>
 8    1  0.6396648E-004  0.1072090E+03  0.7546771E-02  0.1267620E+00
         -1   -1    0    0    0  501 -0.00000000000E+00  0.00000000000E+00  0.29384714699E+02  0.29384714699E+02  0.00000000000E+00 0.  1.
          1   -1    0    0  501    0  0.00000000000E+00 -0.00000000000E+00 -0.42235646777E+03  0.42235646777E+03  0.00000000000E+00 0. -1.
         23    2    1    2    0    0  0.17754720149E+02  0.41936203524E+02 -0.12624797005E+03  0.16562705426E+03  0.97056148229E+02 0.  0.
         23    2    1    2    0    0 -0.17754720149E+02 -0.41936203524E+02 -0.26672378302E+03  0.28611412821E+03  0.92983023587E+02 0.  0.
          5    1    3    3  502    0  0.25596245426E+02 -0.23343530379E+02 -0.72818988461E+02  0.80776130576E+02  0.47000000000E+01 0. -1.
         -5    1    4    4    0  503  0.31520127646E+02 -0.11699885715E+01 -0.43988969842E+02  0.54332373295E+02  0.47000000000E+01 0.  1.
          5    1    4    4  503    0 -0.49274847795E+02 -0.40766214952E+02 -0.22273481318E+03  0.23178175491E+03  0.47000000000E+01 0. -1.
         -5    1    3    3    0  502 -0.78415252770E+01  0.65279733902E+02 -0.53428981587E+02  0.84850923687E+02  0.47000000000E+01 0.  1.
<mgrwt>
<rscale>  0 0.10627873E+03</rscale>
<asrwt>0</asrwt>
<pdfrwt beam="1">  1        1 0.64977912E-01 0.10720901E+03</pdfrwt>
<pdfrwt beam="2">  1       -1 0.45207257E-02 0.10720901E+03</pdfrwt>
<totfact> 0.10763887E+04</totfact>
</mgrwt>
</event>
<event>
 8    1  0.6396648E-004  0.9503278E+02  0.7546771E-02  0.1291305E+00
         -1   -1    0    0    0  501 -0.00000000000E+00  0.00000000000E+00  0.16959718611E+03  0.16959718611E+03  0.00000000000E+00 0.  1.
          1   -1    0    0  501    0  0.00000000000E+00 -0.00000000000E+00 -0.74004404068E+02  0.74004404068E+02  0.00000000000E+00 0. -1.
         23    2    1    2    0    0  0.10421899831E+02 -0.29831557567E+02  0.11267353204E+03  0.14739930213E+03  0.89625284517E+02 0.  0.
         23    2    1    2    0    0 -0.10421899831E+02  0.29831557567E+02 -0.17080750000E+02  0.96202288041E+02  0.89244553788E+02 0.  0.
          5    1    4    4  502    0  0.10130183129E+02  0.45877823820E+02 -0.39448987630E+02  0.61528107022E+02  0.47000000000E+01 0. -1.
         -5    1    4    4    0  502 -0.20552082960E+02 -0.16046266253E+02  0.22368237630E+02  0.34674181019E+02  0.47000000000E+01 0.  1.
          5    1    3    3  503    0 -0.26701455966E+02  0.17515189397E+02  0.24371600186E+02  0.40445203744E+02  0.47000000000E+01 0. -1.
         -5    1    3    3    0  503  0.37123355796E+02 -0.47346746964E+02  0.88301931853E+02  0.10695409839E+03  0.47000000000E+01 0.  1.
<mgrwt>
<rscale>  0 0.94942908E+02</rscale>
<asrwt>0</asrwt>
<pdfrwt beam="1">  1        1 0.11385293E-01 0.95032781E+02</pdfrwt>
<pdfrwt beam="2">  1       -1 0.26091875E-01 0.95032781E+02</pdfrwt>
<totfact> 0.64360424E+03</totfact>
</mgrwt>
</event>
<event>
 8    1  0.6396648E-004  0.1041974E+03  0.7546771E-02  0.1274409E+00
          1   -1    0    0  501    0  0.00000000000E+00  0.00000000000E+00  0.31820318696E+02  0.31820318696E+02  0.00000000000E+00 0. -1.
         -1   -1    0    0    0  501 -0.00000000000E+00 -0.00000000000E+00 -0.33318750782E+03  0.33318750782E+03  0.00000000000E+00 0.  1.
         23    2    1    2    0    0 -0.26278997770E+02 -0.25440699348E+02 -0.17693183353E+03  0.20270792086E+03  0.91911982647E+02 0.  0.
         23    2    1    2    0    0  0.26278997770E+02  0.25440699348E+02 -0.12443535559E+03  0.16229990565E+03  0.97566832213E+02 0.  0.
          5    1    3    3  502    0 -0.38226526150E+02  0.22282608515E+02 -0.52489155005E+02  0.68811215197E+02  0.47000000000E+01 0. -1.
         -5    1    4    4    0  503  0.16309783906E+02 -0.16983394822E+02 -0.11497858444E+03  0.11745896998E+03  0.47000000000E+01 0.  1.
          5    1    4    4  503    0  0.99692138643E+01  0.42424094170E+02 -0.94567711518E+01  0.44840935670E+02  0.47000000000E+01 0. -1.
         -5    1    3    3    0  502  0.11947528379E+02 -0.47723307863E+02 -0.12444267853E+03  0.13389670566E+03  0.47000000000E+01 0.  1.
<mgrwt>
<rscale>  0 0.10285284E+03</rscale>
<asrwt>0</asrwt>
<pdfrwt beam="1">  1        1 0.48954337E-02 0.10419742E+03</pdfrwt>
<pdfrwt beam="2">  1       -1 0.51259616E-01 0.10419742E+03</pdfrwt>
<totfact> 0.62523292E+03</totfact>
</mgrwt>
</event>
<event>
 8    1  0.6396648E-004  0.9477093E+02  0.7546771E-02  0.1291768E+00
         -2   -1    0    0    0  501 -0.00000000000E+00  0.00000000000E+00  0.49828028124E+02  0.49828028124E+02  0.00000000000E+00 0.  1.
          2   -1    0    0  501    0  0.00000000000E+00 -0.00000000000E+00 -0.34290614475E+03  0.34290614475E+03  0.00000000000E+00 0. -1.
         23    2    1    2    0    0 -0.15354537766E+02 -0.16937719981E+02 -0.11135924922E+02  0.95290181395E+02  0.91834425235E+02 0.  0.
         23    2    1    2    0    0  0.15354537766E+02  0.16937719981E+02 -0.28194219171E+03  0.29744399148E+03  0.91972171964E+02 0.  0.
          5    1    4    4  502    0  0.19486266217E+02  0.41833816168E+02 -0.70142122293E+02  0.84093935964E+02  0.47000000000E+01 0. -1.
         -5    1    4    4    0  502 -0.41317284514E+01 -0.24896096187E+02 -0.21180006942E+03  0.21335005552E+03  0.47000000000E+01 0.  1.
          5    1    3    3  503    0 -0.40713103578E+02 -0.52940452425E+01 -0.38096933464E+02  0.56205427294E+02  0.47000000000E+01 0. -1.
         -5    1    3    3    0  503  0.25358565812E+02 -0.11643674739E+02  0.26961008542E+02  0.39084754100E+02  0.47000000000E+01 0.  1.
<mgrwt>
<rscale>  0 0.94737491E+02</rscale>
<asrwt>0</asrwt>
<pdfrwt beam="1">  1        2 0.52754794E-01 0.94770927E+02</pdfrwt>
<pdfrwt beam="2">  1       -2 0.76658501E-02 0.94770927E+02</pdfrwt>
<totfact> 0.88280715E+03</totfact>
</mgrwt>
</event>
<event>
 8    1  0.6396648E-004  0.1647977E+03  0.7546771E-02  0.1183789E+00
         -2   -1    0    0    0  501 -0.00000000000E+00  0.00000000000E+00  0.11397432189E+03  0.11397432189E+03  0.00000000000E+00 0.  1.
          2   -1    0    0  501    0  0.00000000000E+00 -0.00000000000E+00 -0.24126499953E+03  0.24126499953E+03  0.00000000000E+00 0. -1.
         23    2    1    2    0    0 -0.76521377528E+02 -0.11033851966E+03 -0.89236983573E+02  0.18610520533E+03  0.92961271903E+02 0.  0.
         23    2    1    2    0    0  0.76521377528E+02  0.11033851966E+03 -0.38053694068E+02  0.16913411610E+03  0.95541380858E+02 0.  0.
          5    1    4    4  502    0  0.44891585319E+02  0.11160942726E+03 -0.12969939867E+01  0.12039805181E+03  0.47000000000E+01 0. -1.
         -5    1    4    4    0  502  0.31629792208E+02 -0.12709076034E+01 -0.36756700082E+02  0.48736064287E+02  0.47000000000E+01 0.  1.
          5    1    3    3  503    0 -0.34051393586E+02 -0.77674465035E+02 -0.10005125318E+03  0.13124466917E+03  0.47000000000E+01 0. -1.
         -5    1    3    3    0  503 -0.42469983942E+02 -0.32664054622E+02  0.10814269603E+02  0.54860536157E+02  0.47000000000E+01 0.  1.
<mgrwt>
<rscale>  0 0.16442582E+03</rscale>
<asrwt>0</asrwt>
<pdfrwt beam="1">  1        2 0.37117692E-01 0.16479765E+03</pdfrwt>
<pdfrwt beam="2">  1       -2 0.17534511E-01 0.16479765E+03</pdfrwt>
<totfact> 0.35536938E+03</totfact>
</mgrwt>
</event>
<event>
 8    1  0.6396648E-004  0.9900629E+02  0.7546771E-02  0.1283696E+00
          4   -1    0    0  501    0  0.00000000000E+00  0.00000000000E+00  0.81654045396E+02  0.81654045396E+02  0.00000000000E+00 0. -1.
         -4   -1    0    0    0  501 -0.00000000000E+00 -0.00000000000E+00 -0.11758644603E+03  0.11758644603E+03  0.00000000000E+00 0.  1.
         23    2    1    2    0    0 -0.33983604009E+02  0.21477459906E+02 -0.12125950858E+02  0.99746096769E+02  0.90476950164E+02 0.  0.
         23    2    1    2    0    0  0.33983604009E+02 -0.21477459906E+02 -0.23806449779E+02  0.99494394660E+02  0.87842022360E+02 0.  0.
          5    1    4    4  502    0 -0.21414582665E+02 -0.86854546433E+01  0.17240896897E+02  0.29212326146E+02  0.47000000000E+01 0. -1.
         -5    1    4    4    0  502  0.55398186674E+02 -0.12792005263E+02 -0.41047346676E+02  0.70282068514E+02  0.47000000000E+01 0.  1.
          5    1    3    3  503    0 -0.64319848856E+02  0.18687429899E+02 -0.15652712487E+01  0.67162512365E+02  0.47000000000E+01 0. -1.
         -5    1    3    3    0  503  0.30336244846E+02  0.27900300069E+01 -0.10560679609E+02  0.32583584404E+02  0.47000000000E+01 0.  1.
<mgrwt>
<rscale>  0 0.98400245E+02</rscale>
<asrwt>0</asrwt>
<pdfrwt beam="1">  1        4 0.12562161E-01 0.99006288E+02</pdfrwt>
<pdfrwt beam="2">  1       -4 0.18090222E-01 0.99006288E+02</pdfrwt>
<totfact> 0.21118266E+03</totfact>
</mgrwt>
</event>
<event>
 8    1  0.6396648E-004  0.1032953E+03  0.7546771E-02  0.1277333E+00
         -2   -1    0    0    0  501 -0.00000000000E+00  0.00000000000E+00  0.12477533320E+02  0.12477533320E+02  0.00000000000E+00 0.  1.
          2   -1    0    0  501    0  0.00000000000E+00 -0.00000000000E+00 -0.87217941584E+03  0.87217941584E+03  0.00000000000E+00 0. -1.
         23    2    1    2    0    0 -0.93047569985E+01 -0.23909233156E+02 -0.28472147990E+03  0.30047172631E+03  0.92513281537E+02 0.  0.
         23    2    1    2    0    0  0.93047569985E+01  0.23909233156E+02 -0.57498040262E+03  0.58418522285E+03  0.10005838930E+03 0.  0.
          5    1    3    3  502    0 -0.18397219015E+02  0.28969299523E+02 -0.17314629087E+03  0.17657691249E+03  0.47000000000E+01 0. -1.
         -5    1    4    4    0  503  0.87883770471E+00 -0.35104687955E+02 -0.11498420513E+03  0.12031861411E+03  0.47000000000E+01 0.  1.
          5    1    4    4  503    0  0.84259192938E+01  0.59013921112E+02 -0.45999619749E+03  0.46386660875E+03  0.47000000000E+01 0. -1.
         -5    1    3    3    0  502  0.90924620167E+01 -0.52878532679E+02 -0.11157518903E+03  0.12389481382E+03  0.47000000000E+01 0.  1.
<mgrwt>
<rscale>  0 0.10142234E+03</rscale>
<asrwt>0</asrwt>
<pdfrwt beam="1">  1        2 0.13418149E+00 0.10329526E+03</pdfrwt>
<pdfrwt beam="2">  1       -2 0.19196200E-02 0.10329526E+03</pdfrwt>
<totfact> 0.24086291E+04</totfact>
</mgrwt>
</event>
<event>
 8    1  0.6396648E-004  0.9570030E+02  0.7546771E-02  0.1293596E+00
          3   -1    0    0  501    0  0.00000000000E+00  0.00000000000E+00  0.20999526395E+03  0.20999526395E+03  0.00000000000E+00 0. -1.
         -3   -1    0    0    0  501 -0.00000000000E+00 -0.00000000000E+00 -0.83489809403E+02  0.83489809403E+02  0.00000000000E+00 0.  1.
         23    2    1    2    0    0 -0.72195616576E+01 -0.28638216061E+02 -0.43108477356E+02  0.98735406530E+02  0.83773923109E+02 0.  0.
         23    2    1    2    0    0  0.72195616576E+01  0.28638216061E+02  0.16961393190E+03  0.19474966682E+03  0.91028991765E+02 0.  0.
          5    1    3    3  502    0 -0.23481203531E+02  0.18599461204E+02 -0.37528517087E+02  0.48247139512E+02  0.47000000000E+01 0. -1.
         -5    1    4    4    0  503 -0.47874463331E+01  0.50018746775E+02  0.44862579538E+02  0.67524334237E+02  0.47000000000E+01 0.  1.
          5    1    4    4  503    0  0.12007007991E+02 -0.21380530714E+02  0.12475135236E+03  0.12722533258E+03  0.47000000000E+01 0. -1.
         -5    1    3    3    0  502  0.16261641873E+02 -0.47237677266E+02 -0.55799602690E+01  0.50488267018E+02  0.47000000000E+01 0.  1.
<mgrwt>
<rscale>  0 0.93933808E+02</rscale>
<asrwt>0</asrwt>
<pdfrwt beam="1">  1        3 0.32306964E-01 0.95700297E+02</pdfrwt>
<pdfrwt beam="2">  1       -3 0.12844586E-01 0.95700297E+02</pdfrwt>
<totfact> 0.98290994E+02</totfact>
</mgrwt>
</event>
<event>
 8    1  0.6396648E-004  0.9502321E+02  0.7546771E-02  0.1291351E+00
         -3   -1    0    0    0  501 -0.00000000000E+00  0.00000000000E+00  0.15272510498E+03  0.15272510498E+03  0.00000000000E+00 0.  1.
          3   -1    0    0  501    0  0.00000000000E+00 -0.00000000000E+00 -0.60877625452E+02  0.60877625452E+02  0.00000000000E+00 0. -1.
         23    2    1    2    0    0  0.23813165866E+02  0.12443371497E+02  0.26441917424E+02  0.98245467646E+02  0.90725368851E+02 0.  0.
         23    2    1    2    0    0 -0.23813165866E+02 -0.12443371497E+02  0.65405562109E+02  0.11535726279E+03  0.91145521892E+02 0.  0.
          5    1    3    3  502    0  0.24979954625E+02  0.39575103059E+02  0.44939817379E+02  0.65052779350E+02  0.47000000000E+01 0.  1.
         -5    1    3    3    0  502 -0.11667887584E+01 -0.27131731562E+02 -0.18497899955E+02  0.33192688295E+02  0.47000000000E+01 0. -1.
          5    1    4    4  503    0 -0.43607940581E+02 -0.34464351512E+02  0.16812533692E+02  0.58259722760E+02  0.47000000000E+01 0. -1.
         -5    1    4    4    0  503  0.19794774715E+02  0.22020980015E+02  0.48593028417E+02  0.57097540031E+02  0.47000000000E+01 0.  1.
<mgrwt>
<rscale>  0 0.94922317E+02</rscale>
<asrwt>0</asrwt>
<pdfrwt beam="1">  1        3 0.93657886E-02 0.95023210E+02</pdfrwt>
<pdfrwt beam="2">  1       -3 0.23496170E-01 0.95023210E+02</pdfrwt>
<totfact> 0.29463292E+03</totfact>
</mgrwt>
</event>
<event>
 8    1  0.6396648E-004  0.1006886E+03  0.7546771E-02  0.1281255E+00
         -2   -1    0    0    0  501 -0.00000000000E+00  0.00000000000E+00  0.34601989820E+03  0.34601989820E+03  0.00000000000E+00 0.  1.
          2   -1    0    0  501    0  0.00000000000E+00 -0.00000000000E+00 -0.28362490012E+02  0.28362490012E+02  0.00000000000E+00 0. -1.
         23    2    1    2    0    0 -0.39641569726E+02  0.99599213862E+01  0.17622853487E+03  0.20077272399E+03  0.87077758991E+02 0.  0.
         23    2    1    2    0    0  0.39641569726E+02 -0.99599213862E+01  0.14142887332E+03  0.17360966423E+03  0.92019211144E+02 0.  0.
          5    1    3    3  502    0 -0.35880796698E+02 -0.35034164812E+02  0.83172061399E+02  0.97234284453E+02  0.47000000000E+01 0. -1.
         -5    1    4    4    0  503  0.23449776024E+02  0.37222453582E+02  0.97123501743E+02  0.10672613381E+03  0.47000000000E+01 0.  1.
          5    1    4    4  503    0  0.16191793702E+02 -0.47182374968E+02  0.44305371581E+02  0.66883530423E+02  0.47000000000E+01 0. -1.
         -5    1    3    3    0  502 -0.37607730278E+01  0.44994086198E+02  0.93056473469E+02  0.10353843953E+03  0.47000000000E+01 0.  1.
<mgrwt>
<rscale>  0 0.99545489E+02</rscale>
<asrwt>0</asrwt>
<pdfrwt beam="1">  1        2 0.43634602E-02 0.10068858E+03</pdfrwt>
<pdfrwt beam="2">  1       -2 0.53233828E-01 0.10068858E+03</pdfrwt>
<totfact> 0.58727846E+03</totfact>
</mgrwt>
</event>
<event>
 8    1  0.6396648E-004  0.9164427E+02  0.7546771E-02  0.1299103E+00
         -1   -1    0    0    0  501 -0.00000000000E+00  0.00000000000E+00  0.34447586908E+02  0.34447586908E+02  0.00000000000E+00 0.  1.
          1   -1    0    0  501    0  0.00000000000E+00 -0.00000000000E+00 -0.28689946423E+03  0.28689946423E+03  0.00000000000E+00 0. -1.
         23    2    1    2    0    0  0.92159517727E+01  0.72859048806E+01 -0.63179994842E+02  0.11105554459E+03  0.90573749287E+02 0.  0.
         23    2    1    2    0    0 -0.92159517727E+01 -0.72859048806E+01 -0.18927188248E+03  0.21029150654E+03  0.90888140315E+02 0.  0.
          5    1    4    4  502    0  0.37511427507E+02  0.85964261959E+01 -0.56118256261E+02  0.68208169766E+02  0.47000000000E+01 0. -1.
         -5    1    3    3    0  503 -0.91849994138E+01 -0.34065190133E+02 -0.31560155064E+01  0.35733063497E+02  0.47000000000E+01 0.  1.
          5    1    3    3  503    0  0.18400951187E+02  0.41351095014E+02 -0.60023979335E+02  0.75322481097E+02  0.47000000000E+01 0. -1.
         -5    1    4    4    0  502 -0.46727379280E+02 -0.15882331076E+02 -0.13315362622E+03  0.14208333678E+03  0.47000000000E+01 0.  1.
<mgrwt>
<rscale>  0 0.91566223E+02</rscale>
<asrwt>0</asrwt>
<pdfrwt beam="1">  1        1 0.44138380E-01 0.91644270E+02</pdfrwt>
<pdfrwt beam="2">  1       -1 0.52996286E-02 0.91644270E+02</pdfrwt>
<totfact> 0.13558581E+04</totfact>
</mgrwt>
</event>
<event>
 8    1  0.6396648E-004  0.1257750E+03  0.7546771E-02  0.1235392E+00
         -1   -1    0    0    0  501 -0.00000000000E+00  0.00000000000E+00  0.14936625303E+02  0.14936625303E+02  0.00000000000E+00 0.  1.
          1   -1    0    0  501    0  0.00000000000E+00 -0.00000000000E+00 -0.11062547631E+04  0.11062547631E+04  0.00000000000E+00 0. -1.
         23    2    1    2    0    0 -0.65321239834E+02  0.56109223677E+02 -0.68806264795E+03  0.69877649454E+03  0.86274402183E+02 0.  0.
         23    2    1    2    0    0  0.65321239834E+02 -0.56109223677E+02 -0.40325548989E+03  0.42241489390E+03  0.91674659019E+02 0.  0.
          5    1    4    4  502    0  0.25103798913E+02 -0.72042173735E+02 -0.19063591781E+03  0.20538845799E+03  0.47000000000E+01 0. -1.
         -5    1    3    3    0  503 -0.43625012732E+02 -0.47733237662E+00 -0.12571132098E+03  0.13314952423E+03  0.47000000000E+01 0.  1.
          5    1    3    3  503    0 -0.21696227102E+02  0.56586556053E+02 -0.56235132697E+03  0.56562697031E+03  0.47000000000E+01 0. -1.
         -5    1    4    4    0  502  0.40217440921E+02  0.15932950058E+02 -0.21261957208E+03  0.21702643591E+03  0.47000000000E+01 0.  1.
<mgrwt>
<rscale>  0 0.12479357E+03</rscale>
<asrwt>0</asrwt>
<pdfrwt beam="1">  1        1 0.17019310E+00 0.12577501E+03</pdfrwt>
<pdfrwt beam="2">  1       -1 0.22979416E-02 0.12577501E+03</pdfrwt>
<totfact> 0.72283619E+03</totfact>
</mgrwt>
</event>
<event>
 8    1  0.6396648E-004  0.1106165E+03  0.7546771E-02  0.1265922E+00
         -1   -1    0    0    0  501 -0.00000000000E+00  0.00000000000E+00  0.92338233106E+01  0.92338233106E+01  0.00000000000E+00 0.  1.
          1   -1    0    0  501    0  0.00000000000E+00 -0.00000000000E+00 -0.12263230401E+04  0.12263230401E+04  0.00000000000E+00 0. -1.
         23    2    1    2    0    0 -0.42052401700E+02  0.41773088645E+02 -0.51539972537E+03  0.52713650735E+03  0.93394994782E+02 0.  0.
         23    2    1    2    0    0  0.42052401700E+02 -0.41773088645E+02 -0.70168949142E+03  0.70842035606E+03  0.77316641696E+02 0.  0.
          5    1    4    4  502    0  0.60772718193E+02 -0.33212077766E+02 -0.62613190838E+03  0.62996795321E+03  0.47000000000E+01 0. -1.
         -5    1    4    4    0  502 -0.18720316494E+02 -0.85610108787E+01 -0.75557583045E+02  0.78452402847E+02  0.47000000000E+01 0.  1.
          5    1    3    3  503    0  0.20327106523E+02  0.26217871145E+02 -0.31133062262E+03  0.31312843149E+03  0.47000000000E+01 0. -1.
         -5    1    3    3    0  503 -0.62379508222E+02  0.15555217500E+02 -0.20406910275E+03  0.21400807586E+03  0.47000000000E+01 0.  1.
<mgrwt>
<rscale>  0 0.10715947E+03</rscale>
<asrwt>0</asrwt>
<pdfrwt beam="1">  1        1 0.18866506E+00 0.11061655E+03</pdfrwt>
<pdfrwt beam="2">  1       -1 0.14205883E-02 0.11061655E+03</pdfrwt>
<totfact> 0.11832896E+04</totfact>
</mgrwt>
</event>
<event>
 8    1  0.6396648E-004  0.1137754E+03  0.7546771E-02  0.1254892E+00
         -4   -1    0    0    0  501 -0.00000000000E+00  0.00000000000E+00  0.56030633868E+03  0.56030633868E+03  0.00000000000E+00 0.  1.
          4   -1    0    0  501    0  0.00000000000E+00 -0.00000000000E+00 -0.23019446219E+02  0.23019446219E+02  0.00000000000E+00 0. -1.
         23    2    1    2    0    0  0.15768362964E+02  0.64137349358E+02  0.30585051479E+03  0.32543502274E+03  0.89449291618E+02 0.  0.
         23    2    1    2    0    0 -0.15768362964E+02 -0.64137349358E+02  0.23143637767E+03  0.25789076216E+03  0.92642363136E+02 0.  0.
          5    1    4    4  502    0 -0.31012198885E+02  0.13620041953E+02  0.62784216558E+02  0.71492726003E+02  0.47000000000E+01 0. -1.
         -5    1    4    4    0  502  0.15243835921E+02 -0.77757391312E+02  0.16865216111E+03  0.18639803616E+03  0.47000000000E+01 0.  1.
          5    1    3    3  503    0 -0.19652101963E+02  0.22750398334E+02  0.25201383211E+02  0.39509308418E+02  0.47000000000E+01 0. -1.
         -5    1    3    3    0  503  0.35420464927E+02  0.41386951024E+02  0.28064913158E+03  0.28592571432E+03  0.47000000000E+01 0.  1.
<mgrwt>
<rscale>  0 0.11312372E+03</rscale>
<asrwt>0</asrwt>
<pdfrwt beam="1">  1        4 0.35414537E-02 0.11377543E+03</pdfrwt>
<pdfrwt beam="2">  1       -4 0.86200965E-01 0.11377543E+03</pdfrwt>
<totfact> 0.79616630E+02</totfact>
</mgrwt>
</event>
<event>
 7    1  0.6396648E-004  0.1372851E+03  0.7546771E-02  0.1235156E+00
         -2   -1    0    0    0  501 -0.00000000000E+00  0.00000000000E+00  0.81348036103E+02  0.81348036103E+02  0.00000000000E+00 0.  1.
          2   -1    0    0  501    0  0.00000000000E+00 -0.00000000000E+00 -0.16472972530E+03  0.16472972530E+03  0.00000000000E+00 0. -1.
         23    2    1    2    0    0  0.11711624251E+01 -0.33026981789E+02 -0.36378495891E+02  0.10096921962E+03  0.88199972790E+02 0.  0.
          5    1    3    3  502    0 -0.34480314695E+01  0.24825105570E+02 -0.34254815119E+02  0.42704298922E+02  0.47000000000E+01 0. -1.
         -5    1    3    3    0  502  0.46191938946E+01 -0.57852087360E+02 -0.21236807717E+01  0.58264920699E+02  0.47000000000E+01 0.  1.
          5    1    1    2  503    0 -0.59015673022E+02  0.30760390699E+02 -0.55021391036E+02  0.86478290743E+02  0.47000000000E+01 0. -1.
         -5    1    1    2    0  503  0.57844510597E+02  0.22665910899E+01  0.80181977340E+01  0.58630251034E+02  0.47000000000E+01 0.  1.
<mgrwt>
<rscale>  0 0.12494429E+03</rscale>
<asrwt>0</asrwt>
<pdfrwt beam="1">  1        2 0.25343035E-01 0.13728506E+03</pdfrwt>
<pdfrwt beam="2">  1       -2 0.12515082E-01 0.13728506E+03</pdfrwt>
<totfact> 0.92325293E+03</totfact>
</mgrwt>
</event>
<event>
 8    1  0.6396648E-004  0.1074671E+03  0.7546771E-02  0.1268077E+00
          3   -1    0    0  501    0  0.00000000000E+00  0.00000000000E+00  0.13454690732E+03  0.13454690732E+03  0.00000000000E+00 0. -1.
         -3   -1    0    0    0  501 -0.00000000000E+00 -0.00000000000E+00 -0.91871110992E+02  0.91871110992E+02  0.00000000000E+00 0.  1.
         23    2    1    2    0    0 -0.51588318538E+02  0.20086361139E+00  0.58972825181E+02  0.11772220671E+03  0.87859711397E+02 0.  0.
         23    2    1    2    0    0  0.51588318538E+02 -0.20086361139E+00 -0.16297028849E+02  0.10869581161E+03  0.94275083430E+02 0.  0.
          5    1    4    4  502    0 -0.27611366214E+02  0.19803445753E+01 -0.33459311674E+01  0.28277103179E+02  0.47000000000E+01 0. -1.
         -5    1    3    3    0  503 -0.67007723400E+02  0.23110187021E+02  0.29088100203E+02  0.76761470236E+02  0.47000000000E+01 0.  1.
          5    1    3    3  503    0  0.15419404862E+02 -0.22909323410E+02  0.29884724979E+02  0.40960736473E+02  0.47000000000E+01 0. -1.
         -5    1    4    4    0  502  0.79199684752E+02 -0.21812081867E+01 -0.12951097681E+02  0.80418708428E+02  0.47000000000E+01 0.  1.
<mgrwt>
<rscale>  0 0.10604379E+03</rscale>
<asrwt>0</asrwt>
<pdfrwt beam="1">  1        3 0.20699524E-01 0.10746714E+03</pdfrwt>
<pdfrwt beam="2">  1       -3 0.14134017E-01 0.10746714E+03</pdfrwt>
<totfact> 0.19078025E+03</totfact>
</mgrwt>
</event>
<event>
 8    1  0.6396648E-004  0.9442215E+02  0.7546771E-02  0.1293369E+00
          2   -1    0    0  501    0  0.00000000000E+00  0.00000000000E+00  0.53095443384E+02  0.53095443384E+02  0.00000000000E+00 0. -1.
         -2   -1    0    0    0  501 -0.00000000000E+00 -0.00000000000E+00 -0.22960786836E+03  0.22960786836E+03  0.00000000000E+00 0.  1.
         23    2    1    2    0    0 -0.22668333417E+02 -0.17164252910E+02 -0.16260931203E+03  0.18726307222E+03  0.88414958804E+02 0.  0.
         23    2    1    2    0    0  0.22668333417E+02  0.17164252910E+02 -0.13903112946E+02  0.95440239525E+02  0.90039312820E+02 0.  0.
          5    1    4    4  502    0  0.38452586697E+02 -0.46882210689E+01  0.26120353830E+02  0.46956828307E+02  0.47000000000E+01 0. -1.
         -5    1    3    3    0  503 -0.40633219018E+02 -0.40682051043E+02 -0.13374604962E+03  0.14565776173E+03  0.47000000000E+01 0.  1.
          5    1    3    3  503    0  0.17964885601E+02  0.23517798132E+02 -0.28863262418E+02  0.41605310491E+02  0.47000000000E+01 0. -1.
         -5    1    4    4    0  502 -0.15784253280E+02  0.21852473979E+02 -0.40023466775E+02  0.48483411218E+02  0.47000000000E+01 0.  1.
<mgrwt>
<rscale>  0 0.94032834E+02</rscale>
<asrwt>0</asrwt>
<pdfrwt beam="1">  1        2 0.81685298E-02 0.94422152E+02</pdfrwt>
<pdfrwt beam="2">  1       -2 0.35324287E-01 0.94422152E+02</pdfrwt>
<totfact> 0.57497811E+03</totfact>
</mgrwt>
</event>
<event>
 8    1  0.6396648E-004  0.1366106E+03  0.7546771E-02  0.1218363E+00
         -2   -1    0    0    0  501 -0.00000000000E+00  0.00000000000E+00  0.15081865668E+03  0.15081865668E+03  0.00000000000E+00 0.  1.
          2   -1    0    0  501    0  0.00000000000E+00 -0.00000000000E+00 -0.51756093953E+03  0.51756093953E+03  0.00000000000E+00 0. -1.
         23    2    1    2    0    0 -0.42102658467E+02  0.92971500272E+02  0.10834293803E+03  0.17435780087E+03  0.90808131744E+02 0.  0.
         23    2    1    2    0    0  0.42102658467E+02 -0.92971500272E+02 -0.47508522088E+03  0.49402179534E+03  0.89079927344E+02 0.  0.
          5    1    3    3  502    0  0.26391777312E+02  0.41362330062E+02  0.51935593094E+02  0.71601425180E+02  0.47000000000E+01 0. -1.
         -5    1    3    3    0  502 -0.68494435778E+02  0.51609170211E+02  0.56407344936E+02  0.10275637569E+03  0.47000000000E+01 0.  1.
          5    1    4    4  503    0 -0.11269257461E+02 -0.56549802538E+02 -0.33132499960E+03  0.33633795755E+03  0.47000000000E+01 0. -1.
         -5    1    4    4    0  503  0.53371915928E+02 -0.36421697734E+02 -0.14376022129E+03  0.15768383779E+03  0.47000000000E+01 0.  1.
<mgrwt>
<rscale>  0 0.13632402E+03</rscale>
<asrwt>0</asrwt>
<pdfrwt beam="1">  1        2 0.79624757E-01 0.13661058E+03</pdfrwt>
<pdfrwt beam="2">  1       -2 0.23202871E-01 0.13661058E+03</pdfrwt>
<totfact> 0.96790489E+02</totfact>
</mgrwt>
</event>
<event>
 8    1  0.6396648E-004  0.1197712E+03  0.7546771E-02  0.1247367E+00
         -1   -1    0    0    0  501 -0.00000000000E+00  0.00000000000E+00  0.15281768227E+02  0.15281768227E+02  0.00000000000E+00 0.  1.
          1   -1    0    0  501    0  0.00000000000E+00 -0.00000000000E+00 -0.10019742421E+04  0.10019742421E+04  0.00000000000E+00 0. -1.
         23    2    1    2    0    0  0.58280540890E+02  0.27626136734E+02 -0.69505505792E+03  0.70529899774E+03  0.10092233541E+03 0.  0.
         23    2    1    2    0    0 -0.58280540890E+02 -0.27626136734E+02 -0.29163741599E+03  0.31195701264E+03  0.90027609366E+02 0.  0.
          5    1    4    4  502    0 -0.41809198371E+02  0.20784327974E+01 -0.26555478659E+03  0.26887499630E+03  0.47000000000E+01 0. -1.
         -5    1    3    3    0  503  0.44126421553E+02  0.65318852581E+02 -0.48112840442E+03  0.48756571364E+03  0.47000000000E+01 0.  1.
          5    1    3    3  503    0  0.14154119337E+02 -0.37692715847E+02 -0.21392665351E+03  0.21773328410E+03  0.47000000000E+01 0. -1.
         -5    1    4    4    0  502 -0.16471342519E+02 -0.29704569531E+02 -0.26082629401E+02  0.43082016340E+02  0.47000000000E+01 0.  1.
<mgrwt>
<rscale>  0 0.11744834E+03</rscale>
<asrwt>0</asrwt>
<pdfrwt beam="1">  1        1 0.15414986E+00 0.11977121E+03</pdfrwt>
<pdfrwt beam="2">  1       -1 0.23510416E-02 0.11977121E+03</pdfrwt>
<totfact> 0.82799751E+03</totfact>
</mgrwt>
</event>
<event>
 8    1  0.6396648E-004  0.9510566E+02  0.7546771E-02  0.1291883E+00
          3   -1    0    0  501    0  0.00000000000E+00  0.00000000000E+00  0.32112048758E+02  0.32112048758E+02  0.00000000000E+00 0. -1.
         -3   -1    0    0    0  501 -0.00000000000E+00 -0.00000000000E+00 -0.34441190404E+03  0.34441190404E+03  0.00000000000E+00 0.  1.
         23    2    1    2    0    0 -0.15280087941E+02  0.12341979377E+02 -0.23847400701E+03  0.25612735054E+03  0.91354048263E+02 0.  0.
         23    2    1    2    0    0  0.15280087941E+02 -0.12341979377E+02 -0.73825848268E+02  0.12039660225E+03  0.93055254654E+02 0.  0.
          5    1    3    3  502    0  0.78998844978E+01 -0.32751375617E+02 -0.15213317787E+03  0.15588987969E+03  0.47000000000E+01 0. -1.
         -5    1    4    4    0  503  0.29187340320E+02 -0.30393584973E+02 -0.84695360663E+02  0.94715705985E+02  0.47000000000E+01 0.  1.
          5    1    4    4  503    0 -0.13907252379E+02  0.18051605597E+02  0.10869512395E+02  0.25680896266E+02  0.47000000000E+01 0. -1.
         -5    1    3    3    0  502 -0.23179972439E+02  0.45093354994E+02 -0.86340829137E+02  0.10023747085E+03  0.47000000000E+01 0.  1.
<mgrwt>
<rscale>  0 0.94686932E+02</rscale>
<asrwt>0</asrwt>
<pdfrwt beam="1">  1        3 0.49403152E-02 0.95105657E+02</pdfrwt>
<pdfrwt beam="2">  1       -3 0.52986447E-01 0.95105657E+02</pdfrwt>
<totfact> 0.17745589E+03</totfact>
</mgrwt>
</event>
<event>
 8    1  0.6396648E-004  0.9561698E+02  0.7546771E-02  0.1289849E+00
          1   -1    0    0  501    0  0.00000000000E+00  0.00000000000E+00  0.34016976269E+02  0.34016976269E+02  0.00000000000E+00 0. -1.
         -1   -1    0    0    0  501 -0.00000000000E+00 -0.00000000000E+00 -0.29736252929E+03  0.29736252929E+03  0.00000000000E+00 0.  1.
         23    2    1    2    0    0 -0.23381589250E+02 -0.14198418433E+02 -0.79976007569E+02  0.12457767735E+03  0.91515802487E+02 0.  0.
         23    2    1    2    0    0  0.23381589250E+02  0.14198418433E+02 -0.18336954545E+03  0.20680182821E+03  0.91620478878E+02 0.  0.
          5    1    4    4  502    0  0.45125019842E+02 -0.10156250352E+02 -0.15936131455E+03  0.16600462467E+03  0.47000000000E+01 0. -1.
         -5    1    3    3    0  503 -0.26829945843E+02 -0.50560813431E+02 -0.38658059335E+02  0.69229888057E+02  0.47000000000E+01 0.  1.
          5    1    3    3  503    0  0.34483565931E+01  0.36362394998E+02 -0.41317948234E+02  0.55347789291E+02  0.47000000000E+01 0. -1.
         -5    1    4    4    0  502 -0.21743430593E+02  0.24354668785E+02 -0.24008230903E+02  0.40797203540E+02  0.47000000000E+01 0.  1.
<mgrwt>
<rscale>  0 0.95591891E+02</rscale>
<asrwt>0</asrwt>
<pdfrwt beam="1">  1        1 0.52333811E-02 0.95616975E+02</pdfrwt>
<pdfrwt beam="2">  1       -1 0.45748080E-01 0.95616975E+02</pdfrwt>
<totfact> 0.69586903E+03</totfact>
</mgrwt>
</event>
<event>
 8    1  0.6396648E-004  0.1127164E+03  0.7546771E-02  0.1258539E+00
          1   -1    0    0  501    0  0.00000000000E+00  0.00000000000E+00  0.92442682699E+02  0.92442682699E+02  0.00000000000E+00 0. -1.
         -1   -1    0    0    0  501 -0.00000000000E+00 -0.00000000000E+00 -0.16902694813E+03  0.16902694813E+03  0.00000000000E+00 0.  1.
         23    2    1    2    0    0 -0.32340837035E+02  0.45527387305E+02  0.25477571472E+02  0.10941174550E+03  0.90571246372E+02 0.  0.
         23    2    1    2    0    0  0.32340837035E+02 -0.45527387305E+02 -0.10206183690E+03  0.15205788533E+03  0.97909699237E+02 0.  0.
          5    1    3    3  502    0 -0.13550830534E+02  0.71574252529E+02  0.10812881150E+02  0.73793678808E+02  0.47000000000E+01 0. -1.
         -5    1    4    4    0  503  0.14221392015E+02 -0.31300660946E+02 -0.11843055574E+03  0.12340934284E+03  0.47000000000E+01 0.  1.
          5    1    4    4  503    0  0.18119445020E+02 -0.14226726359E+02  0.16368718837E+02  0.28648542495E+02  0.47000000000E+01 0. -1.
         -5    1    3    3    0  502 -0.18790006501E+02 -0.26046865225E+02  0.14664690322E+02  0.35618066688E+02  0.47000000000E+01 0.  1.
<mgrwt>
<rscale>  0 0.11110403E+03</rscale>
<asrwt>0</asrwt>
<pdfrwt beam="1">  1        1 0.14221951E-01 0.11271638E+03</pdfrwt>
<pdfrwt beam="2">  1       -1 0.26004146E-01 0.11271638E+03</pdfrwt>
<totfact> 0.49123668E+03</totfact>
</mgrwt>
</event>
<event>
 8    1  0.6396648E-004  0.1076328E+03  0.7546771E-02  0.1266531E+00
          1   -1    0    0  501    0  0.00000000000E+00  0.00000000000E+00  0.89365592925E+02  0.89365592925E+02  0.00000000000E+00 0. -1.
         -1   -1    0    0    0  501 -0.00000000000E+00 -0.00000000000E+00 -0.15516895368E+03  0.15516895368E+03  0.00000000000E+00 0.  1.
         23    2    1    2    0    0  0.43952579551E+02  0.35888765535E+02 -0.85609809098E+02  0.13509449555E+03  0.87759048388E+02 0.  0.
         23    2    1    2    0    0 -0.43952579551E+02 -0.35888765535E+02  0.19806448344E+02  0.10944005105E+03  0.91460355551E+02 0.  0.
          5    1    4    4  502    0 -0.21096453969E+02 -0.12474223681E+02  0.55462521649E+02  0.60818154643E+02  0.47000000000E+01 0. -1.
         -5    1    4    4    0  502 -0.22856125582E+02 -0.23414541854E+02 -0.35656073306E+02  0.48621896409E+02  0.47000000000E+01 0. -1.
          5    1    3    3  503    0 -0.26762331335E+02  0.11903529631E+02 -0.23082378118E+02  0.37587266138E+02  0.47000000000E+01 0. -1.
         -5    1    3    3    0  503  0.70714910886E+02  0.23985235905E+02 -0.62527430980E+02  0.97507229414E+02  0.47000000000E+01 0.  1.
<mgrwt>
<rscale>  0 0.10684245E+03</rscale>
<asrwt>0</asrwt>
<pdfrwt beam="1">  1        1 0.13748553E-01 0.10763285E+03</pdfrwt>
<pdfrwt beam="2">  1       -1 0.23872146E-01 0.10763285E+03</pdfrwt>
<totfact> 0.58820208E+03</totfact>
</mgrwt>
</event>
<event>
 8    1  0.6396648E-004  0.1095076E+03  0.7546771E-02  0.1262553E+00
         -3   -1    0    0    0  501 -0.00000000000E+00  0.00000000000E+00  0.27410092757E+02  0.27410092757E+02  0.00000000000E+00 0.  1.
          3   -1    0    0  501    0  0.00000000000E+00 -0.00000000000E+00 -0.63739550366E+03  0.63739550366E+03  0.00000000000E+00 0. -1.
         23    2    1    2    0    0 -0.41288273258E+01 -0.55950757544E+02 -0.11254963232E+03  0.15545868264E+03  0.91391727125E+02 0.  0.
         23    2    1    2    0    0  0.41288273258E+01  0.55950757544E+02 -0.49743577858E+03  0.50934691378E+03  0.94044618555E+02 0.  0.
          5    1    3    3  502    0 -0.31719152209E+02  0.10771852787E+02 -0.46413877390E+02  0.57432355373E+02  0.47000000000E+01 0. -1.
         -5    1    3    3    0  502  0.27590324883E+02 -0.66722610331E+02 -0.66135754929E+02  0.98026327263E+02  0.47000000000E+01 0.  1.
          5    1    4    4  503    0  0.46933967972E+02  0.42755757297E+02 -0.32110449395E+03  0.32735460615E+03  0.47000000000E+01 0. -1.
         -5    1    4    4    0  503 -0.42805140646E+02  0.13195000247E+02 -0.17633128463E+03  0.18199230763E+03  0.47000000000E+01 0.  1.
<mgrwt>
<rscale>  0 0.10893576E+03</rscale>
<asrwt>0</asrwt>
<pdfrwt beam="1">  1        3 0.98060842E-01 0.10950765E+03</pdfrwt>
<pdfrwt beam="2">  1       -3 0.42169375E-02 0.10950765E+03</pdfrwt>
<totfact> 0.63455492E+02</totfact>
</mgrwt>
</event>
<event>
 7    1  0.6396648E-004  0.1393865E+03  0.7546771E-02  0.1228306E+00
         -1   -1    0    0    0  501 -0.00000000000E+00  0.00000000000E+00  0.16307794614E+03  0.16307794614E+03  0.00000000000E+00 0.  1.
          1   -1    0    0  501    0  0.00000000000E+00 -0.00000000000E+00 -0.38570098185E+03  0.38570098185E+03  0.00000000000E+00 0. -1.
         23    2    1    2    0    0  0.21555060085E+02  0.50079082034E+02  0.13196016086E+03  0.16778308414E+03  0.88120055593E+02 0.  0.
          5    1    1    2  502    0 -0.68047331463E+02 -0.53882954467E+01 -0.23848472502E+03  0.24810587884E+03  0.47000000000E+01 0. -1.
         -5    1    3    3    0  503 -0.41049030909E+01  0.52110506765E+02  0.13152946071E+03  0.14161371466E+03  0.47000000000E+01 0.  1.
          5    1    3    3  503    0  0.25659963176E+02 -0.20314247310E+01  0.43070015075E+00  0.26169369485E+02  0.47000000000E+01 0. -1.
         -5    1    1    2    0  502  0.46492271377E+02 -0.44690786587E+02 -0.11609847154E+03  0.13288996500E+03  0.47000000000E+01 0.  1.
<mgrwt>
<rscale>  0 0.12942831E+03</rscale>
<asrwt>0</asrwt>
<pdfrwt beam="1">  1        1 0.59338613E-01 0.13938648E+03</pdfrwt>
<pdfrwt beam="2">  1       -1 0.25088915E-01 0.13938648E+03</pdfrwt>
<totfact> 0.87751167E+02</totfact>
</mgrwt>
</event>
<event>
 8    1  0.6396648E-004  0.1168397E+03  0.7546771E-02  0.1255765E+00
         -1   -1    0    0    0  501 -0.00000000000E+00  0.00000000000E+00  0.74793476763E+02  0.74793476763E+02  0.00000000000E+00 0.  1.
          1   -1    0    0  501    0  0.00000000000E+00 -0.00000000000E+00 -0.16192710553E+03  0.16192710553E+03  0.00000000000E+00 0. -1.
         23    2    1    2    0    0  0.24198535240E+02  0.37125933269E+02 -0.29476189245E+02  0.12050043450E+03  0.10810922695E+03 0.  0.
         23    2    1    2    0    0 -0.24198535240E+02 -0.37125933269E+02 -0.57657439516E+02  0.11622014779E+03  0.90657809328E+02 0.  0.
          5    1    4    4  502    0 -0.51529963364E+02 -0.11113404292E+02 -0.77648939335E+01  0.53490452018E+02  0.47000000000E+01 0. -1.
         -5    1    4    4    0  502  0.27331428124E+02 -0.26012528977E+02 -0.49892545583E+02  0.62729695774E+02  0.47000000000E+01 0.  1.
          5    1    3    3  503    0  0.43413470625E+02  0.71615712029E+01  0.28264221480E+02  0.52506892402E+02  0.47000000000E+01 0. -1.
         -5    1    3    3    0  503 -0.19214935385E+02  0.29964362066E+02 -0.57740410726E+02  0.67993542095E+02  0.47000000000E+01 0.  1.
<mgrwt>
<rscale>  0 0.11263564E+03</rscale>
<asrwt>0</asrwt>
<pdfrwt beam="1">  1        1 0.24911862E-01 0.11683967E+03</pdfrwt>
<pdfrwt beam="2">  1       -1 0.11506689E-01 0.11683967E+03</pdfrwt>
<totfact> 0.87728687E+03</totfact>
</mgrwt>
</event>
<event>
 8    1  0.6396648E-004  0.1046886E+03  0.7546771E-02  0.1270931E+00
          1   -1    0    0  501    0  0.00000000000E+00  0.00000000000E+00  0.27944565571E+03  0.27944565571E+03  0.00000000000E+00 0. -1.
         -1   -1    0    0    0  501 -0.00000000000E+00 -0.00000000000E+00 -0.41978348307E+02  0.41978348307E+02  0.00000000000E+00 0.  1.
         23    2    1    2    0    0 -0.24851277932E+02  0.46343387575E+02  0.16123533731E+03  0.19224083049E+03  0.90522965729E+02 0.  0.
         23    2    1    2    0    0  0.24851277932E+02 -0.46343387575E+02  0.76231970092E+02  0.12918317352E+03  0.90064884781E+02 0.  0.
          5    1    3    3  502    0 -0.25911734773E+02  0.71974060340E+02  0.13506598168E+03  0.15529517948E+03  0.47000000000E+01 0. -1.
         -5    1    3    3    0  502  0.10604568407E+01 -0.25630672764E+02  0.26169355623E+02  0.36945651013E+02  0.47000000000E+01 0.  1.
          5    1    4    4  503    0  0.34651423644E+02  0.73812018142E+01  0.63568585751E+02  0.72926390252E+02  0.47000000000E+01 0. -1.
         -5    1    4    4    0  503 -0.98001457122E+01 -0.53724589390E+02  0.12663384341E+02  0.56256783271E+02  0.47000000000E+01 0.  1.
<mgrwt>
<rscale>  0 0.10458950E+03</rscale>
<asrwt>0</asrwt>
<pdfrwt beam="1">  1        1 0.42991638E-01 0.10468860E+03</pdfrwt>
<pdfrwt beam="2">  1       -1 0.64582076E-02 0.10468860E+03</pdfrwt>
<totfact> 0.10585674E+04</totfact>
</mgrwt>
</event>
<event>
 8    1  0.6396648E-004  0.1114721E+03  0.7546771E-02  0.1257922E+00
         -1   -1    0    0    0  501 -0.00000000000E+00  0.00000000000E+00  0.17136284723E+02  0.17136284723E+02  0.00000000000E+00 0.  1.
          1   -1    0    0  501    0  0.00000000000E+00 -0.00000000000E+00 -0.78663919905E+03  0.78663919905E+03  0.00000000000E+00 0. -1.
         23    2    1    2    0    0  0.94919642731E-01 -0.64282678829E+02 -0.49802735511E+03  0.51035014085E+03  0.91070017153E+02 0.  0.
         23    2    1    2    0    0 -0.94919642731E-01  0.64282678829E+02 -0.27147555922E+03  0.29342534292E+03  0.90924038673E+02 0.  0.
          5    1    3    3  502    0 -0.29957493710E+02 -0.23458411955E+02 -0.74616446602E+02  0.83889526309E+02  0.47000000000E+01 0. -1.
         -5    1    3    3    0  502  0.30052413353E+02 -0.40824266873E+02 -0.42341090851E+03  0.42646061454E+03  0.47000000000E+01 0.  1.
          5    1    4    4  503    0 -0.32787279695E+02  0.56690110107E+02 -0.23336724082E+03  0.24242758379E+03  0.47000000000E+01 0. -1.
         -5    1    4    4    0  503  0.32692360052E+02  0.75925687222E+01 -0.38108318405E+02  0.50997759139E+02  0.47000000000E+01 0.  1.
<mgrwt>
<rscale>  0 0.11144224E+03</rscale>
<asrwt>0</asrwt>
<pdfrwt beam="1">  1        1 0.12102145E+00 0.11147206E+03</pdfrwt>
<pdfrwt beam="2">  1       -1 0.26363508E-02 0.11147206E+03</pdfrwt>
<totfact> 0.10227845E+04</totfact>
</mgrwt>
</event>
<event>
 8    1  0.6396648E-004  0.2166618E+03  0.7546771E-02  0.1136436E+00
          1   -1    0    0  501    0  0.00000000000E+00  0.00000000000E+00  0.10126995834E+03  0.10126995834E+03  0.00000000000E+00 0. -1.
         -1   -1    0    0    0  501 -0.00000000000E+00 -0.00000000000E+00 -0.49463238339E+03  0.49463238339E+03  0.00000000000E+00 0.  1.
         23    2    1    2    0    0  0.13724474304E+03  0.14044155765E+03 -0.27183394684E+03  0.34748433206E+03  0.91058858766E+02 0.  0.
         23    2    1    2    0    0 -0.13724474304E+03 -0.14044155765E+03 -0.12152847821E+03  0.24841800968E+03  0.91555370717E+02 0.  0.
          5    1    3    3  502    0  0.10045797524E+03  0.56058862985E+02 -0.10004686426E+03  0.15253152447E+03  0.47000000000E+01 0. -1.
         -5    1    4    4    0  503 -0.42281729356E+02  0.49192652625E+01 -0.20507740683E+02  0.47482641417E+02  0.47000000000E+01 0.  1.
          5    1    4    4  503    0 -0.94963013685E+02 -0.14536082292E+03 -0.10102073753E+03  0.20093536826E+03  0.47000000000E+01 0. -1.
         -5    1    3    3    0  502  0.36786767805E+02  0.84382694668E+02 -0.17178708258E+03  0.19495280759E+03  0.47000000000E+01 0.  1.
<mgrwt>
<rscale>  0 0.21660945E+03</rscale>
<asrwt>0</asrwt>
<pdfrwt beam="1">  1        1 0.15579994E-01 0.21666180E+03</pdfrwt>
<pdfrwt beam="2">  1       -1 0.76097288E-01 0.21666180E+03</pdfrwt>
<totfact> 0.64128441E+02</totfact>
</mgrwt>
</event>
<event>
 8    1  0.6396648E-004  0.1026292E+03  0.7546771E-02  0.1274889E+00
          1   -1    0    0  501    0  0.00000000000E+00  0.00000000000E+00  0.89886796867E+02  0.89886796867E+02  0.00000000000E+00 0. -1.
         -1   -1    0    0    0  501 -0.00000000000E+00 -0.00000000000E+00 -0.86332543769E+03  0.86332543769E+03  0.00000000000E+00 0.  1.
         23    2    1    2    0    0 -0.22797037318E+02 -0.34520956954E+02 -0.82980631345E+03  0.83612221182E+03  0.93863911479E+02 0.  0.
         23    2    1    2    0    0  0.22797037318E+02  0.34520956954E+02  0.56367672627E+02  0.11709002274E+03  0.93922082216E+02 0.  0.
          5    1    3    3  502    0  0.17647556257E+02  0.24066834093E+02 -0.19635973419E+03  0.19867028957E+03  0.47000000000E+01 0. -1.
         -5    1    4    4    0  503 -0.20991590350E+02 -0.71844437610E+01 -0.12030265583E+02  0.25672560986E+02  0.47000000000E+01 0.  1.
          5    1    4    4  503    0  0.43788627668E+02  0.41705400715E+02  0.68397938210E+02  0.91417461752E+02  0.47000000000E+01 0. -1.
         -5    1    3    3    0  502 -0.40444593575E+02 -0.58587791047E+02 -0.63344657926E+03  0.63745192225E+03  0.47000000000E+01 0.  1.
<mgrwt>
<rscale>  0 0.10261592E+03</rscale>
<asrwt>0</asrwt>
<pdfrwt beam="1">  1        1 0.13828738E-01 0.10262923E+03</pdfrwt>
<pdfrwt beam="2">  1       -1 0.13281930E+00 0.10262923E+03</pdfrwt>
<totfact> 0.21809522E+02</totfact>
</mgrwt>
</event>
<event>
 8    1  0.6396648E-004  0.1045086E+03  0.7546771E-02  0.1271221E+00
         -1   -1    0    0    0  501 -0.00000000000E+00  0.00000000000E+00  0.19992859153E+03  0.19992859153E+03  0.00000000000E+00 0.  1.
          1   -1    0    0  501    0  0.00000000000E+00 -0.00000000000E+00 -0.10493396212E+03  0.10493396212E+03  0.00000000000E+00 0. -1.
         23    2    1    2    0    0  0.31123876390E+02 -0.39894436314E+02 -0.58217954411E+02  0.11940059166E+03  0.91142247841E+02 0.  0.
         23    2    1    2    0    0 -0.31123876390E+02  0.39894436314E+02  0.15321258382E+03  0.18546196200E+03  0.91442778705E+02 0.  0.
          5    1    4    4  502    0 -0.53948831701E+02  0.53679100313E+02  0.99964922807E+02  0.12572588454E+03  0.47000000000E+01 0. -1.
         -5    1    3    3    0  503 -0.29570901110E+02 -0.10442796857E+02 -0.25574364930E+01  0.31813844157E+02  0.47000000000E+01 0.  1.
          5    1    3    3  503    0  0.60694777500E+02 -0.29451639457E+02 -0.55660517918E+02  0.87586747499E+02  0.47000000000E+01 0. -1.
         -5    1    4    4    0  502  0.22824955311E+02 -0.13784663998E+02  0.53247661010E+02  0.59736077453E+02  0.47000000000E+01 0.  1.
<mgrwt>
<rscale>  0 0.10444280E+03</rscale>
<asrwt>0</asrwt>
<pdfrwt beam="1">  1        1 0.16143687E-01 0.10450858E+03</pdfrwt>
<pdfrwt beam="2">  1       -1 0.30758245E-01 0.10450858E+03</pdfrwt>
<totfact> 0.31448629E+03</totfact>
</mgrwt>
</event>
<event>
 8    1  0.6396648E-004  0.9363007E+02  0.7546771E-02  0.1296331E+00
          1   -1    0    0  501    0  0.00000000000E+00  0.00000000000E+00  0.83952643051E+03  0.83952643051E+03  0.00000000000E+00 0. -1.
         -1   -1    0    0    0  501 -0.00000000000E+00 -0.00000000000E+00 -0.16110092649E+02  0.16110092649E+02  0.00000000000E+00 0.  1.
         23    2    1    2    0    0  0.39624006218E+01 -0.97498890376E+01  0.14464645595E+03  0.17043936649E+03  0.89533342827E+02 0.  0.
         23    2    1    2    0    0 -0.39624006218E+01  0.97498890376E+01  0.67876988192E+03  0.68519715667E+03  0.93036712929E+02 0.  0.
          5    1    3    3  502    0 -0.18716688786E+02  0.24946004354E+02  0.11503979073E+03  0.11928478957E+03  0.47000000000E+01 0. -1.
         -5    1    3    3    0  502  0.22679089408E+02 -0.34695893392E+02  0.29606665217E+02  0.51154576921E+02  0.47000000000E+01 0.  1.
          5    1    4    4  503    0  0.67171679303E+01  0.48822647330E+02  0.46026919002E+03  0.46292395544E+03  0.47000000000E+01 0. -1.
         -5    1    4    4    0  503 -0.10679568552E+02 -0.39072758292E+02  0.21850069190E+03  0.22227320123E+03  0.47000000000E+01 0.  1.
<mgrwt>
<rscale>  0 0.92747600E+02</rscale>
<asrwt>0</asrwt>
<pdfrwt beam="1">  1        1 0.12915788E+00 0.93630075E+02</pdfrwt>
<pdfrwt beam="2">  1       -1 0.24784764E-02 0.93630075E+02</pdfrwt>
<totfact> 0.10015770E+04</totfact>
</mgrwt>
</event>
<event>
 8    1  0.7576411E-004  0.9063937E+02  0.7546771E-02  0.1305828E+00
          1   -1    0    0  501    0  0.00000000000E+00  0.00000000000E+00  0.15937671048E+03  0.15937671048E+03  0.00000000000E+00 0. -1.
         -1   -1    0    0    0  501 -0.00000000000E+00 -0.00000000000E+00 -0.52889052679E+02  0.52889052679E+02  0.00000000000E+00 0.  1.
         23    2    1    2    0    0 -0.87599464418E+01 -0.25949061849E+02  0.85013678392E+02  0.11911735308E+03  0.78813246464E+02 0.  0.
         23    2    1    2    0    0  0.87599464418E+01  0.25949061849E+02  0.21473979407E+02  0.93148410079E+02  0.86402569616E+02 0.  0.
          5    1    4    4  502    0 -0.62321068633E+01  0.44256822601E+02  0.41971345641E+02  0.61491376286E+02  0.47000000000E+01 0. -1.
         -5    1    4    4    0  502  0.14992053305E+02 -0.18307760752E+02 -0.20497366234E+02  0.31657033793E+02  0.47000000000E+01 0.  1.
          5    1    3    3  503    0 -0.22780500803E+02  0.14864050314E+02  0.66355135302E+02  0.71867831395E+02  0.47000000000E+01 0. -1.
         -5    1    3    3    0  503  0.14020554361E+02 -0.40813112163E+02  0.18658543091E+02  0.47249521683E+02  0.47000000000E+01 0.  1.
<mgrwt>
<rscale>  0 0.88782305E+02</rscale>
<asrwt>0</asrwt>
<pdfrwt beam="1">  1        1 0.24519494E-01 0.90639365E+02</pdfrwt>
<pdfrwt beam="2">  1       -1 0.81367774E-02 0.90639365E+02</pdfrwt>
<totfact> 0.14769052E+04</totfact>
</mgrwt>
</event>
<event>
 8    1  0.6396648E-004  0.1166293E+03  0.7546771E-02  0.1248808E+00
          1   -1    0    0  501    0  0.00000000000E+00  0.00000000000E+00  0.17425752287E+03  0.17425752287E+03  0.00000000000E+00 0. -1.
         -1   -1    0    0    0  501 -0.00000000000E+00 -0.00000000000E+00 -0.96881177641E+02  0.96881177641E+02  0.00000000000E+00 0.  1.
         23    2    1    2    0    0 -0.73164616219E+02 -0.26555608743E+02 -0.21189821730E+02  0.11843742141E+03  0.86718814707E+02 0.  0.
         23    2    1    2    0    0  0.73164616219E+02  0.26555608743E+02  0.98566166956E+02  0.15270127909E+03  0.86856951053E+02 0.  0.
          5    1    4    4  502    0  0.61256461283E+02  0.51188197740E+02  0.95820901077E+02  0.12480513098E+03  0.47000000000E+01 0. -1.
         -5    1    4    4    0  502  0.11908154936E+02 -0.24632588996E+02  0.27452658799E+01  0.27896148110E+02  0.47000000000E+01 0.  1.
          5    1    3    3  503    0 -0.16696493022E+02 -0.34872031054E+02  0.23769352344E+02  0.45627881169E+02  0.47000000000E+01 0. -1.
         -5    1    3    3    0  503 -0.56468123197E+02  0.83164223108E+01 -0.44959174074E+02  0.72809540246E+02  0.47000000000E+01 0.  1.
<mgrwt>
<rscale>  0 0.11660357E+03</rscale>
<asrwt>0</asrwt>
<pdfrwt beam="1">  1        1 0.26808850E-01 0.11662929E+03</pdfrwt>
<pdfrwt beam="2">  1       -1 0.14904797E-01 0.11662929E+03</pdfrwt>
<totfact> 0.53653686E+03</totfact>
</mgrwt>
</event>
<event>
 8    1  0.6396648E-004  0.1911371E+03  0.7546771E-02  0.1159364E+00
         -2   -1    0    0    0  501 -0.00000000000E+00  0.00000000000E+00  0.10464494882E+03  0.10464494882E+03  0.00000000000E+00 0.  1.
          2   -1    0    0  501    0  0.00000000000E+00 -0.00000000000E+00 -0.44428617187E+03  0.44428617187E+03  0.00000000000E+00 0. -1.
         23    2    1    2    0    0 -0.11350209245E+03 -0.12298611832E+03 -0.30201927607E+02  0.18521961625E+03  0.73388279184E+02 0.  0.
         23    2    1    2    0    0  0.11350209245E+03  0.12298611832E+03 -0.30943929544E+03  0.36371150444E+03  0.92331308961E+02 0.  0.
          5    1    3    3  502    0 -0.83774737089E+02 -0.12713384812E+03 -0.26492113781E+02  0.15461288434E+03  0.47000000000E+01 0.  1.
         -5    1    4    4    0  503  0.63972905937E+02  0.83989402874E+01 -0.12809475948E+03  0.14350411945E+03  0.47000000000E+01 0.  1.
          5    1    4    4  503    0  0.49529186514E+02  0.11458717803E+03 -0.18134453596E+03  0.22020738500E+03  0.47000000000E+01 0. -1.
         -5    1    3    3    0  502 -0.29727355362E+02  0.41477298002E+01 -0.37098138263E+01  0.30606731906E+02  0.47000000000E+01 0. -1.
<mgrwt>
<rscale>  0 0.18900248E+03</rscale>
<asrwt>0</asrwt>
<pdfrwt beam="1">  1        2 0.68351717E-01 0.19113707E+03</pdfrwt>
<pdfrwt beam="2">  1       -2 0.16099223E-01 0.19113707E+03</pdfrwt>
<totfact> 0.21383752E+03</totfact>
</mgrwt>
</event>
<event>
 8    1  0.6396648E-004  0.1417568E+03  0.7546771E-02  0.1216866E+00
         -1   -1    0    0    0  501 -0.00000000000E+00  0.00000000000E+00  0.18751726384E+02  0.18751726384E+02  0.00000000000E+00 0.  1.
          1   -1    0    0  501    0  0.00000000000E+00 -0.00000000000E+00 -0.95041752160E+03  0.95041752160E+03  0.00000000000E+00 0. -1.
         23    2    1    2    0    0 -0.10392973400E+03 -0.11077538935E+02 -0.42292471826E+03  0.44104759741E+03  0.68800903949E+02 0.  0.
         23    2    1    2    0    0  0.10392973400E+03  0.11077538935E+02 -0.50874107695E+03  0.52812165057E+03  0.95764779260E+02 0.  0.
          5    1    3    3  502    0 -0.60793535957E+02 -0.34499543555E+02 -0.31014945968E+03  0.31796359833E+03  0.47000000000E+01 0. -1.
         -5    1    3    3    0  502 -0.43136198045E+02  0.23422004620E+02 -0.11277525858E+03  0.12308399908E+03  0.47000000000E+01 0.  1.
          5    1    4    4  503    0  0.15104294463E+02  0.40933113953E+02 -0.10868146539E+03  0.11720669967E+03  0.47000000000E+01 0. -1.
         -5    1    4    4    0  503  0.88825439539E+02 -0.29855575018E+02 -0.40005961156E+03  0.41091495090E+03  0.47000000000E+01 0.  1.
<mgrwt>
<rscale>  0 0.13740383E+03</rscale>
<asrwt>0</asrwt>
<pdfrwt beam="1">  1        1 0.14621807E+00 0.14175681E+03</pdfrwt>
<pdfrwt beam="2">  1       -1 0.28848812E-02 0.14175681E+03</pdfrwt>
<totfact> 0.67777264E+03</totfact>
</mgrwt>
</event>
<event>
 8    1  0.6396648E-004  0.1026447E+03  0.7546771E-02  0.1275477E+00
         -1   -1    0    0    0  501 -0.00000000000E+00  0.00000000000E+00  0.26144945832E+03  0.26144945832E+03  0.00000000000E+00 0.  1.
          1   -1    0    0  501    0  0.00000000000E+00 -0.00000000000E+00 -0.39822080198E+02  0.39822080198E+02  0.00000000000E+00 0. -1.
         23    2    1    2    0    0  0.44176116943E+02 -0.44665584592E+01  0.11478287894E+03  0.15398392415E+03  0.92544368534E+02 0.  0.
         23    2    1    2    0    0 -0.44176116943E+02  0.44665584592E+01  0.10684449918E+03  0.14728761436E+03  0.91139535258E+02 0.  0.
          5    1    3    3  502    0 -0.22141150533E+02  0.17373376829E+02  0.15366319468E+02  0.32408001224E+02  0.47000000000E+01 0. -1.
         -5    1    4    4    0  503 -0.67106533703E+02 -0.16966998175E+02  0.68268904323E+02  0.97333957026E+02  0.47000000000E+01 0.  1.
          5    1    4    4  503    0  0.22930416760E+02  0.21433556635E+02  0.38575594857E+02  0.49953657337E+02  0.47000000000E+01 0. -1.
         -5    1    3    3    0  502  0.66317267476E+02 -0.21839935288E+02  0.99416559469E+02  0.12157592293E+03  0.47000000000E+01 0.  1.
<mgrwt>
<rscale>  0 0.10232706E+03</rscale>
<asrwt>0</asrwt>
<pdfrwt beam="1">  1        1 0.61264740E-02 0.10264473E+03</pdfrwt>
<pdfrwt beam="2">  1       -1 0.40222993E-01 0.10264473E+03</pdfrwt>
<totfact> 0.71008292E+03</totfact>
</mgrwt>
</event>
<event>
 8    1  0.6396648E-004  0.1167910E+03  0.7546771E-02  0.1248606E+00
         -2   -1    0    0    0  501 -0.00000000000E+00  0.00000000000E+00  0.14845557514E+03  0.14845557514E+03  0.00000000000E+00 0.  1.
          2   -1    0    0  501    0  0.00000000000E+00 -0.00000000000E+00 -0.12682638856E+03  0.12682638856E+03  0.00000000000E+00 0. -1.
         23    2    1    2    0    0  0.13279007882E+02 -0.72574654450E+02 -0.61652683109E+02  0.13206513431E+03  0.90535815271E+02 0.  0.
         23    2    1    2    0    0 -0.13279007882E+02  0.72574654450E+02  0.83281869689E+02  0.14321682939E+03  0.90176370972E+02 0.  0.
          5    1    3    3  502    0  0.23129980382E+01 -0.89882077013E+02 -0.64635888095E+02  0.11083332422E+03  0.47000000000E+01 0. -1.
         -5    1    4    4    0  503  0.14018244531E+02  0.75224904047E+02  0.86057739861E+02  0.11525329478E+03  0.47000000000E+01 0.  1.
          5    1    4    4  503    0 -0.27297252413E+02 -0.26502495968E+01 -0.27758701719E+01  0.27963534602E+02  0.47000000000E+01 0. -1.
         -5    1    3    3    0  502  0.10966009844E+02  0.17307422563E+02  0.29832049859E+01  0.21231810089E+02  0.47000000000E+01 0.  1.
<mgrwt>
<rscale>  0 0.11672137E+03</rscale>
<asrwt>0</asrwt>
<pdfrwt beam="1">  1        2 0.19511752E-01 0.11679104E+03</pdfrwt>
<pdfrwt beam="2">  1       -2 0.22839319E-01 0.11679104E+03</pdfrwt>
<totfact> 0.45109111E+03</totfact>
</mgrwt>
</event>
<event>
 8    1  0.6396648E-004  0.9526818E+02  0.7546771E-02  0.1292852E+00
         -2   -1    0    0    0  501 -0.00000000000E+00  0.00000000000E+00  0.88708630221E+02  0.88708630221E+02  0.00000000000E+00 0.  1.
          2   -1    0    0  501    0  0.00000000000E+00 -0.00000000000E+00 -0.16469327833E+03  0.16469327833E+03  0.00000000000E+00 0. -1.
         23    2    1    2    0    0  0.18971447194E+02  0.18441700928E+02  0.43049717235E+02  0.10093811882E+03  0.87379708940E+02 0.  0.
         23    2    1    2    0    0 -0.18971447194E+02 -0.18441700928E+02 -0.11903436535E+03  0.15246378974E+03  0.91520570944E+02 0.  0.
          5    1    3    3  502    0 -0.23439087971E+02 -0.20825413406E+02  0.64153473126E+01  0.32347107593E+02  0.47000000000E+01 0. -1.
         -5    1    4    4    0  503 -0.39220000143E+02  0.23726546707E+02 -0.75146231894E+02  0.88148758345E+02  0.47000000000E+01 0.  1.
          5    1    4    4  503    0  0.20248552949E+02 -0.42168247635E+02 -0.43888133455E+02  0.64315031394E+02  0.47000000000E+01 0. -1.
         -5    1    3    3    0  502  0.42410535166E+02  0.39267114334E+02  0.36634369922E+02  0.68591011224E+02  0.47000000000E+01 0.  1.
<mgrwt>
<rscale>  0 0.94259599E+02</rscale>
<asrwt>0</asrwt>
<pdfrwt beam="1">  1        2 0.25337427E-01 0.95268185E+02</pdfrwt>
<pdfrwt beam="2">  1       -2 0.13647482E-01 0.95268185E+02</pdfrwt>
<totfact> 0.78062383E+03</totfact>
</mgrwt>
</event>
<event>
 8    1  0.6396648E-004  0.1041348E+03  0.7546771E-02  0.1272459E+00
         -1   -1    0    0    0  501 -0.00000000000E+00  0.00000000000E+00  0.28721684362E+03  0.28721684362E+03  0.00000000000E+00 0.  1.
          1   -1    0    0  501    0  0.00000000000E+00 -0.00000000000E+00 -0.21758238837E+03  0.21758238837E+03  0.00000000000E+00 0. -1.
         23    2    1    2    0    0 -0.29863731245E+02 -0.38797362467E+02  0.26459822926E+03  0.28435238547E+03  0.91907444836E+02 0.  0.
         23    2    1    2    0    0  0.29863731245E+02  0.38797362467E+02 -0.19496377401E+03  0.22044684651E+03  0.90492326655E+02 0.  0.
          5    1    4    4  502    0  0.24595428358E+02 -0.16273713371E+02 -0.13686119455E+03  0.14008156702E+03  0.47000000000E+01 0. -1.
         -5    1    4    4    0  502  0.52683028864E+01  0.55071075838E+02 -0.58102579456E+02  0.80365279498E+02  0.47000000000E+01 0.  1.
          5    1    3    3  503    0  0.15241906260E+02  0.15999073743E+02  0.21968966533E+02  0.31512085898E+02  0.47000000000E+01 0. -1.
         -5    1    3    3    0  503 -0.45105637505E+02 -0.54796436210E+02  0.24262926273E+03  0.25284029957E+03  0.47000000000E+01 0.  1.
<mgrwt>
<rscale>  0 0.10382169E+03</rscale>
<asrwt>0</asrwt>
<pdfrwt beam="1">  1        1 0.33474213E-01 0.10413480E+03</pdfrwt>
<pdfrwt beam="2">  1       -1 0.44187207E-01 0.10413480E+03</pdfrwt>
<totfact> 0.67734134E+02</totfact>
</mgrwt>
</event>
<event>
 8    1  0.6396648E-004  0.1295233E+03  0.7546771E-02  0.1232802E+00
          2   -1    0    0  501    0  0.00000000000E+00  0.00000000000E+00  0.10498707599E+04  0.10498707599E+04  0.00000000000E+00 0. -1.
         -2   -1    0    0    0  501 -0.00000000000E+00 -0.00000000000E+00 -0.15373685960E+02  0.15373685960E+02  0.00000000000E+00 0.  1.
         23    2    1    2    0    0  0.35823609409E+02 -0.73200268185E+02  0.61663693941E+03  0.62777058133E+03  0.84930427329E+02 0.  0.
         23    2    1    2    0    0 -0.35823609409E+02  0.73200268185E+02  0.41786013452E+03  0.43747386452E+03  0.10067114712E+03 0.  0.
          5    1    4    4  502    0 -0.57007394983E+02  0.86077508265E+02  0.31303290218E+03  0.32965264804E+03  0.47000000000E+01 0. -1.
         -5    1    3    3    0  503 -0.83978028937E+01 -0.53811918272E+02  0.17159160159E+03  0.18008890409E+03  0.47000000000E+01 0.  1.
          5    1    3    3  503    0  0.44221412302E+02 -0.19388349913E+02  0.44504533782E+03  0.44768167724E+03  0.47000000000E+01 0. -1.
         -5    1    4    4    0  502  0.21183785574E+02 -0.12877240080E+02  0.10482723234E+03  0.10782121648E+03  0.47000000000E+01 0.  1.
<mgrwt>
<rscale>  0 0.12646227E+03</rscale>
<asrwt>0</asrwt>
<pdfrwt beam="1">  1        2 0.16151852E+00 0.12952332E+03</pdfrwt>
<pdfrwt beam="2">  1       -2 0.23651833E-02 0.12952332E+03</pdfrwt>
<totfact> 0.14136200E+04</totfact>
</mgrwt>
</event>
<event>
 8    1  0.6396648E-004  0.1207349E+03  0.7546771E-02  0.1243198E+00
         -1   -1    0    0    0  501 -0.00000000000E+00  0.00000000000E+00  0.12348350397E+03  0.12348350397E+03  0.00000000000E+00 0.  1.
          1   -1    0    0  501    0  0.00000000000E+00 -0.00000000000E+00 -0.15629797860E+03  0.15629797860E+03  0.00000000000E+00 0. -1.
         23    2    1    2    0    0  0.41230016595E+02 -0.67669340189E+02  0.55669343421E+02  0.13009410032E+03  0.86869702834E+02 0.  0.
         23    2    1    2    0    0 -0.41230016595E+02  0.67669340189E+02 -0.88483818051E+02  0.14968738225E+03  0.91092658744E+02 0.  0.
          5    1    3    3  502    0  0.22364267714E+01 -0.20736469371E+02 -0.22354594947E+02  0.30932518195E+02  0.47000000000E+01 0. -1.
         -5    1    3    3    0  502  0.38993589823E+02 -0.46932870818E+02  0.78023938368E+02  0.99161582122E+02  0.47000000000E+01 0.  1.
          5    1    4    4  503    0  0.11710738544E+01  0.50396705903E+02 -0.90411651332E+02  0.10362217946E+03  0.47000000000E+01 0. -1.
         -5    1    4    4    0  503 -0.42401090449E+02  0.17272634286E+02  0.19278332814E+01  0.46065202785E+02  0.47000000000E+01 0.  1.
<mgrwt>
<rscale>  0 0.11993873E+03</rscale>
<asrwt>0</asrwt>
<pdfrwt beam="1">  1        1 0.24045843E-01 0.12073494E+03</pdfrwt>
<pdfrwt beam="2">  1       -1 0.18997462E-01 0.12073494E+03</pdfrwt>
<totfact> 0.42023775E+03</totfact>
</mgrwt>
</event>
<event>
 8    1  0.6396648E-004  0.9608937E+02  0.7546771E-02  0.1289685E+00
          1   -1    0    0  501    0  0.00000000000E+00  0.00000000000E+00  0.27549848881E+03  0.27549848881E+03  0.00000000000E+00 0. -1.
         -1   -1    0    0    0  501 -0.00000000000E+00 -0.00000000000E+00 -0.36448049499E+02  0.36448049499E+02  0.00000000000E+00 0.  1.
         23    2    1    2    0    0  0.10832710858E+02 -0.22038452134E+02  0.16894376813E+03  0.19435833684E+03  0.92898467765E+02 0.  0.
         23    2    1    2    0    0 -0.10832710858E+02  0.22038452134E+02  0.70106671179E+02  0.11758820147E+03  0.91153709650E+02 0.  0.
          5    1    4    4  502    0  0.39723172898E+02  0.77193880283E+01  0.38716318305E+02  0.56201091802E+02  0.47000000000E+01 0. -1.
         -5    1    3    3    0  503 -0.23202118908E+02 -0.11651891549E+02  0.54133326327E+01  0.26935089914E+02  0.47000000000E+01 0.  1.
          5    1    3    3  503    0  0.34034829766E+02 -0.10386560586E+02  0.16353043550E+03  0.16742324693E+03  0.47000000000E+01 0. -1.
         -5    1    4    4    0  502 -0.50555883756E+02  0.14319064106E+02  0.31390352874E+02  0.61387109663E+02  0.47000000000E+01 0.  1.
<mgrwt>
<rscale>  0 0.95665123E+02</rscale>
<asrwt>0</asrwt>
<pdfrwt beam="1">  1        1 0.42384382E-01 0.96089366E+02</pdfrwt>
<pdfrwt beam="2">  1       -1 0.56073924E-02 0.96089366E+02</pdfrwt>
<totfact> 0.13170817E+04</totfact>
</mgrwt>
</event>
<event>
 8    1  0.6396648E-004  0.1034324E+03  0.7546771E-02  0.1273932E+00
          1   -1    0    0  501    0  0.00000000000E+00  0.00000000000E+00  0.27825419510E+03  0.27825419510E+03  0.00000000000E+00 0. -1.
         -1   -1    0    0    0  501 -0.00000000000E+00 -0.00000000000E+00 -0.38135777844E+02  0.38135777844E+02  0.00000000000E+00 0.  1.
         23    2    1    2    0    0  0.22321292477E+02 -0.47773327953E+02  0.13057035157E+03  0.16572795888E+03  0.87387691841E+02 0.  0.
         23    2    1    2    0    0 -0.22321292477E+02  0.47773327953E+02  0.10954806569E+03  0.15066201407E+03  0.88981643184E+02 0.  0.
          5    1    3    3  502    0 -0.22471667069E+02 -0.38593876720E+02  0.26954733709E+02  0.52374715374E+02  0.47000000000E+01 0. -1.
         -5    1    4    4    0  503 -0.35148876623E+02  0.68904058658E+02  0.74333651594E+02  0.10738153746E+03  0.47000000000E+01 0. -1.
          5    1    4    4  503    0  0.12827584146E+02 -0.21130730705E+02  0.35214414101E+02  0.43280476610E+02  0.47000000000E+01 0.  1.
         -5    1    3    3    0  502  0.44792959546E+02 -0.91794512330E+01  0.10361561786E+03  0.11335324351E+03  0.47000000000E+01 0.  1.
<mgrwt>
<rscale>  0 0.10308870E+03</rscale>
<asrwt>0</asrwt>
<pdfrwt beam="1">  1        1 0.42808336E-01 0.10343241E+03</pdfrwt>
<pdfrwt beam="2">  1       -1 0.58670429E-02 0.10343241E+03</pdfrwt>
<totfact> 0.12253527E+04</totfact>
</mgrwt>
</event>
<event>
 8    1  0.8712683E-004  0.1268174E+03  0.7546771E-02  0.1232583E+00
          2   -1    0    0  501    0  0.00000000000E+00  0.00000000000E+00  0.83297636753E+03  0.83297636753E+03  0.00000000000E+00 0. -1.
         -2   -1    0    0    0  501 -0.00000000000E+00 -0.00000000000E+00 -0.12283534651E+03  0.12283534651E+03  0.00000000000E+00 0.  1.
         23    2    1    2    0    0  0.65238935072E+02  0.59855094356E+02  0.79389945347E+03  0.80383104594E+03  0.89606122719E+02 0.  0.
         23    2    1    2    0    0 -0.65238935072E+02 -0.59855094356E+02 -0.83758432453E+02  0.15198066810E+03  0.90795911252E+02 0.  0.
          5    1    4    4  502    0  0.40827539840E+01 -0.50237826755E+02 -0.12822055793E+02  0.52220716502E+02  0.47000000000E+01 0.  1.
         -5    1    4    4    0  502 -0.69321689056E+02 -0.96172676010E+01 -0.70936376660E+02  0.99759951600E+02  0.47000000000E+01 0.  1.
          5    1    3    3  503    0  0.48893645208E+02 -0.85670778088E+01  0.45172819090E+03  0.45447159627E+03  0.47000000000E+01 0. -1.
         -5    1    3    3    0  503  0.16345289864E+02  0.68422172165E+02  0.34217126258E+03  0.34935944967E+03  0.47000000000E+01 0.  1.
<mgrwt>
<rscale>  0 0.12660457E+03</rscale>
<asrwt>0</asrwt>
<pdfrwt beam="1">  1        2 0.12815021E+00 0.12681738E+03</pdfrwt>
<pdfrwt beam="2">  1       -2 0.18897746E-01 0.12681738E+03</pdfrwt>
<totfact> 0.78636029E+02</totfact>
</mgrwt>
</event>
<event>
 8    1  0.6396648E-004  0.1218739E+03  0.7546771E-02  0.1253633E+00
          1   -1    0    0  501    0  0.00000000000E+00  0.00000000000E+00  0.42809497668E+03  0.42809497668E+03  0.00000000000E+00 0. -1.
         -1   -1    0    0    0  501 -0.00000000000E+00 -0.00000000000E+00 -0.16247712988E+03  0.16247712988E+03  0.00000000000E+00 0.  1.
         23    2    1    2    0    0  0.32777900185E+01  0.33350116830E+02 -0.13353181890E+03  0.18078712004E+03  0.11717620028E+03 0.  0.
         23    2    1    2    0    0 -0.32777900185E+01 -0.33350116830E+02  0.39914966570E+03  0.40978498652E+03  0.86488758506E+02 0.  0.
          5    1    3    3  502    0  0.47208714425E+02  0.38314487416E+02 -0.29684247150E+02  0.67822615642E+02  0.47000000000E+01 0. -1.
         -5    1    4    4    0  503 -0.38697671813E+02  0.24774010721E+01  0.12350456986E+03  0.12953422750E+03  0.47000000000E+01 0.  1.
          5    1    4    4  503    0  0.35419881795E+02 -0.35827517902E+02  0.27564509585E+03  0.28025075902E+03  0.47000000000E+01 0. -1.
         -5    1    3    3    0  502 -0.43930924406E+02 -0.49643705868E+01 -0.10384757175E+03  0.11296450440E+03  0.47000000000E+01 0.  1.
<mgrwt>
<rscale>  0 0.11383240E+03</rscale>
<asrwt>0</asrwt>
<pdfrwt beam="1">  1        1 0.65860765E-01 0.12187385E+03</pdfrwt>
<pdfrwt beam="2">  1       -1 0.24996482E-01 0.12187385E+03</pdfrwt>
<totfact> 0.77311151E+02</totfact>
</mgrwt>
</event>
<event>
 8    1  0.6687394E-004  0.9076379E+02  0.7546771E-02  0.1304747E+00
         -2   -1    0    0    0  501 -0.00000000000E+00  0.00000000000E+00  0.31838491616E+02  0.31838491616E+02  0.00000000000E+00 0.  1.
          2   -1    0    0  501    0  0.00000000000E+00 -0.00000000000E+00 -0.37948521127E+03  0.37948521127E+03  0.00000000000E+00 0. -1.
         23    2    1    2    0    0 -0.36621108785E+01  0.55729737253E+01 -0.29382126241E+03  0.30580002992E+03  0.84488194219E+02 0.  0.
         23    2    1    2    0    0  0.36621108785E+01 -0.55729737253E+01 -0.53825457240E+02  0.10552367296E+03  0.90518487703E+02 0.  0.
          5    1    4    4  502    0  0.34920579517E+02  0.27323328050E+02 -0.32427639035E+02  0.55133047285E+02  0.47000000000E+01 0. -1.
         -5    1    4    4    0  502 -0.31258468638E+02 -0.32896301776E+02 -0.21397818205E+02  0.50390625677E+02  0.47000000000E+01 0.  1.
          5    1    3    3  503    0  0.22975384653E+02  0.34830958207E+02 -0.19024553420E+03  0.19482432403E+03  0.47000000000E+01 0. -1.
         -5    1    3    3    0  503 -0.26637495532E+02 -0.29257984481E+02 -0.10357572821E+03  0.11097570589E+03  0.47000000000E+01 0.  1.
<mgrwt>
<rscale>  0 0.89221725E+02</rscale>
<asrwt>0</asrwt>
<pdfrwt beam="1">  1        2 0.58382339E-01 0.90763791E+02</pdfrwt>
<pdfrwt beam="2">  1       -2 0.48982296E-02 0.90763791E+02</pdfrwt>
<totfact> 0.15507510E+04</totfact>
</mgrwt>
</event>
<event>
 8    1  0.6396648E-004  0.1231070E+03  0.7546771E-02  0.1238241E+00
         -3   -1    0    0    0  501 -0.00000000000E+00  0.00000000000E+00  0.18246452186E+03  0.18246452186E+03  0.00000000000E+00 0.  1.
          3   -1    0    0  501    0  0.00000000000E+00 -0.00000000000E+00 -0.82806454622E+02  0.82806454622E+02  0.00000000000E+00 0. -1.
         23    2    1    2    0    0 -0.24109577392E+02  0.78448555869E+02  0.53214963700E+02  0.13369478641E+03  0.91142832479E+02 0.  0.
         23    2    1    2    0    0  0.24109577392E+02 -0.78448555869E+02  0.46443103541E+02  0.13157619007E+03  0.91759927461E+02 0.  0.
          5    1    3    3  502    0  0.19058289163E+02  0.73234267880E+02  0.18992939349E+02  0.78161999225E+02  0.47000000000E+01 0. -1.
         -5    1    3    3    0  502 -0.43167866554E+02  0.52142879883E+01  0.34222024351E+02  0.55532787187E+02  0.47000000000E+01 0.  1.
          5    1    4    4  503    0  0.26272998288E+02 -0.22553757281E+02 -0.23337495892E+02  0.42019889589E+02  0.47000000000E+01 0. -1.
         -5    1    4    4    0  503 -0.21634208969E+01 -0.55894798587E+02  0.69780599433E+02  0.89556300484E+02  0.47000000000E+01 0.  1.
<mgrwt>
<rscale>  0 0.12299201E+03</rscale>
<asrwt>0</asrwt>
<pdfrwt beam="1">  1        3 0.12739455E-01 0.12310699E+03</pdfrwt>
<pdfrwt beam="2">  1       -3 0.28071465E-01 0.12310699E+03</pdfrwt>
<totfact> 0.13489355E+03</totfact>
</mgrwt>
</event>
<event>
 8    1  0.6396648E-004  0.9441523E+02  0.7546771E-02  0.1292591E+00
         -1   -1    0    0    0  501 -0.00000000000E+00  0.00000000000E+00  0.32041860956E+02  0.32041860956E+02  0.00000000000E+00 0.  1.
          1   -1    0    0  501    0  0.00000000000E+00 -0.00000000000E+00 -0.29144404799E+03  0.29144404799E+03  0.00000000000E+00 0. -1.
         23    2    1    2    0    0 -0.20529463054E+02  0.21694270009E+02 -0.94508357445E+02  0.13347483040E+03  0.89395752239E+02 0.  0.
         23    2    1    2    0    0  0.20529463054E+02 -0.21694270009E+02 -0.16489382959E+03  0.19001107855E+03  0.89566370530E+02 0.  0.
          5    1    4    4  502    0  0.17536236233E+02  0.32741535490E+02 -0.47417176006E+02  0.60415282072E+02  0.47000000000E+01 0. -1.
         -5    1    4    4    0  502  0.29932268212E+01 -0.54435805499E+02 -0.11747665358E+03  0.12959579648E+03  0.47000000000E+01 0.  1.
          5    1    3    3  503    0 -0.96673596970E+01  0.41809464568E+02 -0.10049998090E+03  0.10937927286E+03  0.47000000000E+01 0. -1.
         -5    1    3    3    0  503 -0.10862103357E+02 -0.20115194558E+02  0.59916234529E+01  0.24095557538E+02  0.47000000000E+01 0.  1.
<mgrwt>
<rscale>  0 0.94374740E+02</rscale>
<asrwt>0</asrwt>
<pdfrwt beam="1">  1        1 0.44837546E-01 0.94415226E+02</pdfrwt>
<pdfrwt beam="2">  1       -1 0.49295171E-02 0.94415226E+02</pdfrwt>
<totfact> 0.14831415E+04</totfact>
</mgrwt>
</event>
<event>
 8    1  0.6396648E-004  0.1078512E+03  0.7546771E-02  0.1268764E+00
          3   -1    0    0  501    0  0.00000000000E+00  0.00000000000E+00  0.15596977078E+03  0.15596977078E+03  0.00000000000E+00 0. -1.
         -3   -1    0    0    0  501 -0.00000000000E+00 -0.00000000000E+00 -0.83180523758E+02  0.83180523758E+02  0.00000000000E+00 0.  1.
         23    2    1    2    0    0 -0.19214271872E+02 -0.34858037018E+02  0.87137210094E+02  0.13865343946E+03  0.10023777683E+03 0.  0.
         23    2    1    2    0    0  0.19214271872E+02  0.34858037018E+02 -0.14347963074E+02  0.10049685507E+03  0.91156364820E+02 0.  0.
          5    1    3    3  502    0 -0.51310240096E+02 -0.47418213327E+02  0.41949222247E+02  0.81627537883E+02  0.47000000000E+01 0. -1.
         -5    1    4    4    0  503  0.43771343534E+02  0.52757150374E+02 -0.10425555881E+02  0.69498414700E+02  0.47000000000E+01 0.  1.
          5    1    4    4  503    0 -0.24557071661E+02 -0.17899113356E+02 -0.39224071929E+01  0.30998440375E+02  0.47000000000E+01 0. -1.
         -5    1    3    3    0  502  0.32095968223E+02  0.12560176308E+02  0.45187987847E+02  0.57025901578E+02  0.47000000000E+01 0.  1.
<mgrwt>
<rscale>  0 0.10569122E+03</rscale>
<asrwt>0</asrwt>
<pdfrwt beam="1">  1        3 0.23995349E-01 0.10785121E+03</pdfrwt>
<pdfrwt beam="2">  1       -3 0.12797004E-01 0.10785121E+03</pdfrwt>
<totfact> 0.17368763E+03</totfact>
</mgrwt>
</event>
<event>
 8    1  0.6396648E-004  0.9691326E+02  0.7546771E-02  0.1294001E+00
          2   -1    0    0  501    0  0.00000000000E+00  0.00000000000E+00  0.44651715601E+03  0.44651715601E+03  0.00000000000E+00 0. -1.
         -2   -1    0    0    0  501 -0.00000000000E+00 -0.00000000000E+00 -0.36704103938E+02  0.36704103938E+02  0.00000000000E+00 0.  1.
         23    2    1    2    0    0 -0.90645086880E+01  0.32912872488E+02  0.41799028993E+02  0.10554306901E+03  0.90701477925E+02 0.  0.
         23    2    1    2    0    0  0.90645086880E+01 -0.32912872488E+02  0.36801402308E+03  0.37767819094E+03  0.77724334895E+02 0.  0.
          5    1    3    3  502    0 -0.29697784799E+02  0.37493610250E+02  0.60267639048E+02  0.77084418322E+02  0.47000000000E+01 0. -1.
         -5    1    3    3    0  502  0.20633276111E+02 -0.45807377611E+01 -0.18468610056E+02  0.28458650686E+02  0.47000000000E+01 0.  1.
          5    1    4    4  503    0 -0.24295822934E+02 -0.20444416434E+02  0.29022942523E+03  0.29199909323E+03  0.47000000000E+01 0. -1.
         -5    1    4    4    0  503  0.33360331622E+02 -0.12468456054E+02  0.77784597847E+02  0.85679097711E+02  0.47000000000E+01 0.  1.
<mgrwt>
<rscale>  0 0.93756832E+02</rscale>
<asrwt>0</asrwt>
<pdfrwt beam="1">  1        2 0.68694943E-01 0.96913263E+02</pdfrwt>
<pdfrwt beam="2">  1       -2 0.56467855E-02 0.96913263E+02</pdfrwt>
<totfact> 0.10623806E+04</totfact>
</mgrwt>
</event>
<event>
 8    1  0.6396648E-004  0.1062969E+03  0.7546771E-02  0.1269109E+00
          2   -1    0    0  501    0  0.00000000000E+00  0.00000000000E+00  0.85120715970E+03  0.85120715970E+03  0.00000000000E+00 0. -1.
         -2   -1    0    0    0  501 -0.00000000000E+00 -0.00000000000E+00 -0.36648415342E+02  0.36648415342E+02  0.00000000000E+00 0.  1.
         23    2    1    2    0    0  0.54121664940E+02 -0.37542681912E+00  0.51980908554E+02  0.11832597151E+03  0.91486201796E+02 0.  0.
         23    2    1    2    0    0 -0.54121664940E+02  0.37542681912E+00  0.76257783580E+03  0.76952960353E+03  0.87872404581E+02 0.  0.
          5    1    3    3  502    0  0.41493440925E+02 -0.36139710063E+02  0.57483585835E+02  0.79713467643E+02  0.47000000000E+01 0. -1.
         -5    1    3    3    0  502  0.12628224014E+02  0.35764283244E+02 -0.55026772812E+01  0.38612503868E+02  0.47000000000E+01 0.  1.
          5    1    4    4  503    0 -0.61806737476E+02  0.32284744825E+02  0.49693474856E+03  0.50182528022E+03  0.47000000000E+01 0. -1.
         -5    1    4    4    0  503  0.76850725367E+01 -0.31909318005E+02  0.26564308724E+03  0.26770432330E+03  0.47000000000E+01 0.  1.
<mgrwt>
<rscale>  0 0.10551480E+03</rscale>
<asrwt>0</asrwt>
<pdfrwt beam="1">  1        2 0.13095493E+00 0.10629685E+03</pdfrwt>
<pdfrwt beam="2">  1       -2 0.56382184E-02 0.10629685E+03</pdfrwt>
<totfact> 0.51259023E+03</totfact>
</mgrwt>
</event>
<event>
 8    1  0.6396648E-004  0.9480863E+02  0.7546771E-02  0.1292649E+00
         -2   -1    0    0    0  501 -0.00000000000E+00  0.00000000000E+00  0.52247749487E+02  0.52247749487E+02  0.00000000000E+00 0.  1.
          2   -1    0    0  501    0  0.00000000000E+00 -0.00000000000E+00 -0.20845795417E+03  0.20845795417E+03  0.00000000000E+00 0. -1.
         23    2    1    2    0    0  0.82454457349E+01  0.13252168270E+02 -0.20597400596E+02  0.95238157991E+02  0.91664859608E+02 0.  0.
         23    2    1    2    0    0 -0.82454457349E+01 -0.13252168270E+02 -0.13561280409E+03  0.16546754567E+03  0.93515072031E+02 0.  0.
          5    1    3    3  502    0 -0.25065208546E+02 -0.22076620083E+02  0.12844154206E+02  0.36092992824E+02  0.47000000000E+01 0. -1.
         -5    1    4    4    0  503  0.36548472876E+02 -0.22791835746E+02 -0.38365459016E+02  0.57872766408E+02  0.47000000000E+01 0.  1.
          5    1    4    4  503    0 -0.44793918611E+02  0.95396674765E+01 -0.97247345073E+02  0.10759477926E+03  0.47000000000E+01 0. -1.
         -5    1    3    3    0  502  0.33310654281E+02  0.35328788352E+02 -0.33441554802E+02  0.59145165167E+02  0.47000000000E+01 0.  1.
<mgrwt>
<rscale>  0 0.94349182E+02</rscale>
<asrwt>0</asrwt>
<pdfrwt beam="1">  1        2 0.32070455E-01 0.94808628E+02</pdfrwt>
<pdfrwt beam="2">  1       -2 0.80381152E-02 0.94808628E+02</pdfrwt>
<totfact> 0.13859350E+04</totfact>
</mgrwt>
</event>
<event>
 8    1  0.6396648E-004  0.9276869E+02  0.7546771E-02  0.1297173E+00
         -2   -1    0    0    0  501 -0.00000000000E+00  0.00000000000E+00  0.61853327996E+02  0.61853327996E+02  0.00000000000E+00 0.  1.
          2   -1    0    0  501    0  0.00000000000E+00 -0.00000000000E+00 -0.18349305334E+03  0.18349305334E+03  0.00000000000E+00 0. -1.
         23    2    1    2    0    0 -0.79117366271E+01  0.13017359557E+02 -0.12303053939E+03  0.15408615462E+03  0.91509465069E+02 0.  0.
         23    2    1    2    0    0  0.79117366271E+01 -0.13017359557E+02  0.13908140437E+01  0.91260226716E+02  0.89969146880E+02 0.  0.
          5    1    4    4  502    0  0.33312997418E+02 -0.31702650494E+02  0.24086277429E+02  0.52125354730E+02  0.47000000000E+01 0. -1.
         -5    1    3    3    0  503 -0.41872043206E+02  0.28519880572E+02 -0.92749475585E+02  0.10578850037E+03  0.47000000000E+01 0.  1.
          5    1    3    3  503    0  0.33960306579E+02 -0.15502521014E+02 -0.30281063805E+02  0.48297654248E+02  0.47000000000E+01 0. -1.
         -5    1    4    4    0  502 -0.25401260791E+02  0.18685290936E+02 -0.22695463385E+02  0.39134871987E+02  0.47000000000E+01 0.  1.
<mgrwt>
<rscale>  0 0.92386568E+02</rscale>
<asrwt>0</asrwt>
<pdfrwt beam="1">  1        2 0.28229700E-01 0.92768688E+02</pdfrwt>
<pdfrwt beam="2">  1       -2 0.95158967E-02 0.92768688E+02</pdfrwt>
<totfact> 0.12225722E+04</totfact>
</mgrwt>
</event>
<event>
 8    1  0.6396648E-004  0.1197331E+03  0.7546771E-02  0.1245480E+00
         -2   -1    0    0    0  501 -0.00000000000E+00  0.00000000000E+00  0.95791551724E+02  0.95791551724E+02  0.00000000000E+00 0.  1.
          2   -1    0    0  501    0  0.00000000000E+00 -0.00000000000E+00 -0.17899217736E+03  0.17899217736E+03  0.00000000000E+00 0. -1.
         23    2    1    2    0    0 -0.38903342016E+02 -0.58493757202E+02  0.18511542806E+02  0.12115565400E+03  0.96958886278E+02 0.  0.
         23    2    1    2    0    0  0.38903342016E+02  0.58493757202E+02 -0.10171216844E+03  0.15362807508E+03  0.91220779390E+02 0.  0.
          5    1    4    4  502    0  0.61157929732E+02  0.59481619726E+02 -0.98886317511E+02  0.13068645395E+03  0.47000000000E+01 0. -1.
         -5    1    4    4    0  502 -0.22254587717E+02 -0.98786252477E+00 -0.28258509322E+01  0.22941621135E+02  0.47000000000E+01 0.  1.
          5    1    3    3  503    0  0.21277199829E+02 -0.22330461089E+02 -0.23626203988E+02  0.39136380005E+02  0.47000000000E+01 0. -1.
         -5    1    3    3    0  503 -0.60180541844E+02 -0.36163296112E+02  0.42137746793E+02  0.82019273998E+02  0.47000000000E+01 0.  1.
<mgrwt>
<rscale>  0 0.11856681E+03</rscale>
<asrwt>0</asrwt>
<pdfrwt beam="1">  1        2 0.27537258E-01 0.11973310E+03</pdfrwt>
<pdfrwt beam="2">  1       -2 0.14737162E-01 0.11973310E+03</pdfrwt>
<totfact> 0.64095366E+03</totfact>
</mgrwt>
</event>
<event>
 8    1  0.6396648E-004  0.2350966E+03  0.7546771E-02  0.1123943E+00
          2   -1    0    0  501    0  0.00000000000E+00  0.00000000000E+00  0.34561971469E+03  0.34561971469E+03  0.00000000000E+00 0. -1.
         -2   -1    0    0    0  501 -0.00000000000E+00 -0.00000000000E+00 -0.15704815456E+03  0.15704815456E+03  0.00000000000E+00 0.  1.
         23    2    1    2    0    0 -0.24210235410E+02 -0.21449612775E+03  0.82339017185E+02  0.24909858681E+03  0.93143265360E+02 0.  0.
         23    2    1    2    0    0  0.24210235410E+02  0.21449612775E+03  0.10623254295E+03  0.25356928244E+03  0.80108073864E+02 0.  0.
          5    1    4    4  502    0 -0.28156972890E+01  0.19782251790E+03  0.87278585568E+02  0.21628989398E+03  0.47000000000E+01 0. -1.
         -5    1    4    4    0  502  0.27025932699E+02  0.16673609851E+02  0.18953957377E+02  0.37279388460E+02  0.47000000000E+01 0.  1.
          5    1    3    3  503    0 -0.46597726732E+02 -0.89490667245E+02  0.66741202211E+02  0.12106364332E+03  0.47000000000E+01 0. -1.
         -5    1    3    3    0  503  0.22387491322E+02 -0.12500546050E+03  0.15597814974E+02  0.12803494349E+03  0.47000000000E+01 0.  1.
<mgrwt>
<rscale>  0 0.23387376E+03</rscale>
<asrwt>0</asrwt>
<pdfrwt beam="1">  1        2 0.53172264E-01 0.23509656E+03</pdfrwt>
<pdfrwt beam="2">  1       -2 0.24161255E-01 0.23509656E+03</pdfrwt>
<totfact> 0.14110674E+03</totfact>
</mgrwt>
</event>
<event>
 8    1  0.6396648E-004  0.2539602E+03  0.7546771E-02  0.1110909E+00
         -3   -1    0    0    0  501 -0.00000000000E+00  0.00000000000E+00  0.56259334920E+03  0.56259334920E+03  0.00000000000E+00 0.  1.
          3   -1    0    0  501    0  0.00000000000E+00 -0.00000000000E+00 -0.17180693128E+03  0.17180693128E+03  0.00000000000E+00 0. -1.
         23    2    1    2    0    0  0.10626543063E+03  0.21227008821E+03  0.40777936923E+03  0.48039545552E+03  0.90248809568E+02 0.  0.
         23    2    1    2    0    0 -0.10626543063E+03 -0.21227008821E+03 -0.16992951299E+02  0.25400482496E+03  0.88762371608E+02 0.  0.
          5    1    3    3  502    0  0.45650906276E+02  0.11198577529E+03  0.12367742404E+03  0.17304049910E+03  0.47000000000E+01 0. -1.
         -5    1    4    4    0  503 -0.11460952819E+03 -0.17585668312E+03 -0.33992421723E+02  0.21269342182E+03  0.47000000000E+01 0.  1.
          5    1    4    4  503    0  0.83440975697E+01 -0.36413405090E+02  0.16999470424E+02  0.41311403137E+02  0.47000000000E+01 0. -1.
         -5    1    3    3    0  502  0.60614524349E+02  0.10028431291E+03  0.28410194519E+03  0.30735495642E+03  0.47000000000E+01 0.  1.
<mgrwt>
<rscale>  0 0.25382899E+03</rscale>
<asrwt>0</asrwt>
<pdfrwt beam="1">  1        3 0.26431836E-01 0.25396019E+03</pdfrwt>
<pdfrwt beam="2">  1       -3 0.86552822E-01 0.25396019E+03</pdfrwt>
<totfact> 0.42204154E+01</totfact>
</mgrwt>
</event>
<event>
 8    1  0.6396648E-004  0.1152842E+03  0.7546771E-02  0.1251550E+00
          2   -1    0    0  501    0  0.00000000000E+00  0.00000000000E+00  0.12642577274E+03  0.12642577274E+03  0.00000000000E+00 0. -1.
         -2   -1    0    0    0  501 -0.00000000000E+00 -0.00000000000E+00 -0.11309270763E+03  0.11309270763E+03  0.00000000000E+00 0.  1.
         23    2    1    2    0    0  0.55372922724E+02 -0.43812723682E+02 -0.26965786535E+02  0.11839596988E+03  0.91130328178E+02 0.  0.
         23    2    1    2    0    0 -0.55372922724E+02  0.43812723682E+02  0.40298851647E+02  0.12112251048E+03  0.89782792195E+02 0.  0.
          5    1    3    3  502    0  0.80238639088E+01  0.23462497911E+02  0.11167926552E+02  0.27598619236E+02  0.47000000000E+01 0. -1.
         -5    1    4    4    0  503  0.14315955146E+02 -0.15903159232E+02  0.11947905675E+02  0.24953947489E+02  0.47000000000E+01 0.  1.
          5    1    4    4  503    0 -0.69688877870E+02  0.59715882914E+02  0.28350945973E+02  0.96168562994E+02  0.47000000000E+01 0. -1.
         -5    1    3    3    0  502  0.47349058815E+02 -0.67275221592E+02 -0.38133713086E+02  0.90797350648E+02  0.47000000000E+01 0.  1.
<mgrwt>
<rscale>  0 0.11501774E+03</rscale>
<asrwt>0</asrwt>
<pdfrwt beam="1">  1        2 0.19450119E-01 0.11528422E+03</pdfrwt>
<pdfrwt beam="2">  1       -2 0.17398878E-01 0.11528422E+03</pdfrwt>
<totfact> 0.71547571E+03</totfact>
</mgrwt>
</event>
<event>
 8    1  0.6396648E-004  0.9335078E+02  0.7546771E-02  0.1295498E+00
          1   -1    0    0  501    0  0.00000000000E+00  0.00000000000E+00  0.50082393041E+02  0.50082393041E+02  0.00000000000E+00 0. -1.
         -1   -1    0    0    0  501 -0.00000000000E+00 -0.00000000000E+00 -0.30134358299E+03  0.30134358299E+03  0.00000000000E+00 0.  1.
         23    2    1    2    0    0  0.12528332712E+02 -0.76936833307E+01 -0.24028685056E+03  0.25743234039E+03  0.91200260098E+02 0.  0.
         23    2    1    2    0    0 -0.12528332712E+02  0.76936833307E+01 -0.10974339395E+02  0.93993635648E+02  0.92185766437E+02 0.  0.
          5    1    4    4  502    0 -0.46816860313E+02  0.26159577203E+02 -0.99879885122E+01  0.54753920440E+02  0.47000000000E+01 0. -1.
         -5    1    4    4    0  502  0.34288527601E+02 -0.18465893872E+02 -0.98635088276E+00  0.39239715208E+02  0.47000000000E+01 0.  1.
          5    1    3    3  503    0 -0.26396862836E+02 -0.33018517177E+02 -0.81552487631E+02  0.91977796685E+02  0.47000000000E+01 0. -1.
         -5    1    3    3    0  503  0.38925195548E+02  0.25324833846E+02 -0.15873436293E+03  0.16545454370E+03  0.47000000000E+01 0.  1.
<mgrwt>
<rscale>  0 0.93106550E+02</rscale>
<asrwt>0</asrwt>
<pdfrwt beam="1">  1        1 0.77049836E-02 0.93350776E+02</pdfrwt>
<pdfrwt beam="2">  1       -1 0.46360551E-01 0.93350776E+02</pdfrwt>
<totfact> 0.40395890E+03</totfact>
</mgrwt>
</event>
<event>
 8    1  0.6396648E-004  0.1099830E+03  0.7546771E-02  0.1260910E+00
          2   -1    0    0  501    0  0.00000000000E+00  0.00000000000E+00  0.72936837710E+03  0.72936837710E+03  0.00000000000E+00 0. -1.
         -2   -1    0    0    0  501 -0.00000000000E+00 -0.00000000000E+00 -0.17492341152E+02  0.17492341152E+02  0.00000000000E+00 0.  1.
         23    2    1    2    0    0  0.16514576219E+01  0.61835837881E+02  0.26732581544E+03  0.28906635736E+03  0.90938821190E+02 0.  0.
         23    2    1    2    0    0 -0.16514576219E+01 -0.61835837881E+02  0.44455022051E+03  0.45779436089E+03  0.90135343514E+02 0.  0.
          5    1    3    3  502    0 -0.21284851589E+02  0.78348628438E+02  0.19924882011E+03  0.21520626106E+03  0.47000000000E+01 0. -1.
         -5    1    4    4    0  503  0.25920626629E+02  0.34110529429E+01  0.47276890337E+02  0.54228300056E+02  0.47000000000E+01 0.  1.
          5    1    4    4  503    0 -0.27572084251E+02 -0.65246890823E+02  0.39727333017E+03  0.40356606084E+03  0.47000000000E+01 0. -1.
         -5    1    3    3    0  502  0.22936309211E+02 -0.16512790558E+02  0.68076995334E+02  0.73860096304E+02  0.47000000000E+01 0.  1.
<mgrwt>
<rscale>  0 0.10981680E+03</rscale>
<asrwt>0</asrwt>
<pdfrwt beam="1">  1        2 0.11221050E+00 0.10998303E+03</pdfrwt>
<pdfrwt beam="2">  1       -2 0.26911300E-02 0.10998303E+03</pdfrwt>
<totfact> 0.18504249E+04</totfact>
</mgrwt>
</event>
<event>
 8    1  0.6396648E-004  0.1049150E+03  0.7546771E-02  0.1271411E+00
          1   -1    0    0  501    0  0.00000000000E+00  0.00000000000E+00  0.18540311864E+03  0.18540311864E+03  0.00000000000E+00 0. -1.
         -1   -1    0    0    0  501 -0.00000000000E+00 -0.00000000000E+00 -0.58249995365E+02  0.58249995365E+02  0.00000000000E+00 0.  1.
         23    2    1    2    0    0  0.37671665970E+02 -0.29843230558E+02  0.69041810210E+02  0.12371943271E+03  0.90719091960E+02 0.  0.
         23    2    1    2    0    0 -0.37671665970E+02  0.29843230558E+02  0.58111313067E+02  0.11993368130E+03  0.93259800426E+02 0.  0.
          5    1    4    4  502    0 -0.43161600239E+02 -0.24280216060E+02  0.33933502785E+02  0.60216486433E+02  0.47000000000E+01 0. -1.
         -5    1    4    4    0  502  0.54899342690E+01  0.54123446619E+02  0.24177810282E+02  0.59717194862E+02  0.47000000000E+01 0.  1.
          5    1    3    3  503    0  0.31127485869E+02 -0.51780217006E+02  0.11590934454E+02  0.61697252866E+02  0.47000000000E+01 0. -1.
         -5    1    3    3    0  503  0.65441801010E+01  0.21936986448E+02  0.57450875756E+02  0.62022179845E+02  0.47000000000E+01 0.  1.
<mgrwt>
<rscale>  0 0.10434748E+03</rscale>
<asrwt>0</asrwt>
<pdfrwt beam="1">  1        1 0.28523556E-01 0.10491503E+03</pdfrwt>
<pdfrwt beam="2">  1       -1 0.89615378E-02 0.10491503E+03</pdfrwt>
<totfact> 0.10742440E+04</totfact>
</mgrwt>
</event>
<event>
 8    1  0.6396648E-004  0.1107980E+03  0.7546771E-02  0.1263451E+00
          2   -1    0    0  501    0  0.00000000000E+00  0.00000000000E+00  0.16338955398E+03  0.16338955398E+03  0.00000000000E+00 0. -1.
         -2   -1    0    0    0  501 -0.00000000000E+00 -0.00000000000E+00 -0.96643383147E+02  0.96643383147E+02  0.00000000000E+00 0.  1.
         23    2    1    2    0    0 -0.15771956153E+02  0.48415529512E+02 -0.36993436225E+02  0.10824989218E+03  0.88072167758E+02 0.  0.
         23    2    1    2    0    0  0.15771956153E+02 -0.48415529512E+02  0.10373960706E+03  0.15178304495E+03  0.98404108468E+02 0.  0.
          5    1    3    3  502    0  0.31836093200E+02  0.68852014250E+01  0.34498172334E+01  0.33089787969E+02  0.47000000000E+01 0. -1.
         -5    1    4    4    0  503 -0.40117790069E+02 -0.68059744538E+01  0.38250462604E+02  0.56044145615E+02  0.47000000000E+01 0.  1.
          5    1    4    4  503    0  0.55889746222E+02 -0.41609555058E+02  0.65489144454E+02  0.95738899336E+02  0.47000000000E+01 0. -1.
         -5    1    3    3    0  502 -0.47608049353E+02  0.41530328087E+02 -0.40443253458E+02  0.75160104207E+02  0.47000000000E+01 0.  1.
<mgrwt>
<rscale>  0 0.10845857E+03</rscale>
<asrwt>0</asrwt>
<pdfrwt beam="1">  1        2 0.25136854E-01 0.11079795E+03</pdfrwt>
<pdfrwt beam="2">  1       -2 0.14868213E-01 0.11079795E+03</pdfrwt>
<totfact> 0.69405143E+03</totfact>
</mgrwt>
</event>
<event>
 8    1  0.6396648E-004  0.1093122E+03  0.7546771E-02  0.1267614E+00
          2   -1    0    0  501    0  0.00000000000E+00  0.00000000000E+00  0.66990233042E+03  0.66990233042E+03  0.00000000000E+00 0. -1.
         -2   -1    0    0    0  501 -0.00000000000E+00 -0.00000000000E+00 -0.16283962812E+02  0.16283962812E+02  0.00000000000E+00 0.  1.
         23    2    1    2    0    0 -0.40160186982E+02 -0.51860390213E+02  0.26279157333E+03  0.28036028668E+03  0.72388801937E+02 0.  0.
         23    2    1    2    0    0  0.40160186982E+02  0.51860390213E+02  0.39082679428E+03  0.40582600655E+03  0.87446119250E+02 0.  0.
          5    1    4    4  502    0  0.63049625131E+02  0.47592587218E+02  0.22951384151E+03  0.24277356329E+03  0.47000000000E+01 0. -1.
         -5    1    4    4    0  502 -0.22889438150E+02  0.42678029949E+01  0.16131295278E+03  0.16305244327E+03  0.47000000000E+01 0.  1.
          5    1    3    3  503    0  0.10760911193E+02 -0.32884993460E+02  0.52074707192E+02  0.62698366276E+02  0.47000000000E+01 0.  1.
         -5    1    3    3    0  503 -0.50921098175E+02 -0.18975396752E+02  0.21071686613E+03  0.21766192041E+03  0.47000000000E+01 0. -1.
<mgrwt>
<rscale>  0 0.10628188E+03</rscale>
<asrwt>0</asrwt>
<pdfrwt beam="1">  1        2 0.10306188E+00 0.10931223E+03</pdfrwt>
<pdfrwt beam="2">  1       -2 0.25052256E-02 0.10931223E+03</pdfrwt>
<totfact> 0.22682711E+04</totfact>
</mgrwt>
</event>
<event>
 8    1  0.6396648E-004  0.1787248E+03  0.7546771E-02  0.1169670E+00
          1   -1    0    0  501    0  0.00000000000E+00  0.00000000000E+00  0.10699302078E+04  0.10699302078E+04  0.00000000000E+00 0. -1.
         -1   -1    0    0    0  501 -0.00000000000E+00 -0.00000000000E+00 -0.30767227979E+02  0.30767227979E+02  0.00000000000E+00 0.  1.
         23    2    1    2    0    0 -0.14590045190E+03 -0.49662994996E+02  0.63784062433E+03  0.66240713822E+03  0.90494197545E+02 0.  0.
         23    2    1    2    0    0  0.14590045190E+03  0.49662994996E+02  0.40132235550E+03  0.43829029756E+03  0.85354536952E+02 0.  0.
          5    1    4    4  502    0  0.64194347104E+02  0.41328651449E+02  0.99770625347E+02  0.12571889004E+03  0.47000000000E+01 0. -1.
         -5    1    4    4    0  502  0.81706104791E+02  0.83343435462E+01  0.30155173015E+03  0.31257140752E+03  0.47000000000E+01 0.  1.
          5    1    3    3  503    0 -0.73002260311E+02 -0.21917521984E+02  0.48264829744E+03  0.48865240898E+03  0.47000000000E+01 0. -1.
         -5    1    3    3    0  503 -0.72898191585E+02 -0.27745473012E+02  0.15519232689E+03  0.17375472924E+03  0.47000000000E+01 0.  1.
<mgrwt>
<rscale>  0 0.17808472E+03</rscale>
<asrwt>0</asrwt>
<pdfrwt beam="1">  1        1 0.16460462E+00 0.17872480E+03</pdfrwt>
<pdfrwt beam="2">  1       -1 0.47334205E-02 0.17872480E+03</pdfrwt>
<totfact> 0.26936392E+03</totfact>
</mgrwt>
</event>
<event>
 8    1  0.6396648E-004  0.9361960E+02  0.7546771E-02  0.1295299E+00
          2   -1    0    0  501    0  0.00000000000E+00  0.00000000000E+00  0.66166625627E+03  0.66166625627E+03  0.00000000000E+00 0. -1.
         -2   -1    0    0    0  501 -0.00000000000E+00 -0.00000000000E+00 -0.29995576989E+02  0.29995576989E+02  0.00000000000E+00 0.  1.
         23    2    1    2    0    0 -0.83784035715E+01 -0.13397160006E+02  0.54329081280E+02  0.10677898166E+03  0.90556172118E+02 0.  0.
         23    2    1    2    0    0  0.83784035715E+01  0.13397160006E+02  0.57734159800E+03  0.58488285160E+03  0.92276474636E+02 0.  0.
          5    1    3    3  502    0 -0.25073677692E+02  0.26070320733E+02 -0.11815169116E+01  0.36494340908E+02  0.47000000000E+01 0. -1.
         -5    1    4    4    0  503 -0.18220117775E+02  0.45552794768E+02  0.24583055333E+03  0.25072251745E+03  0.47000000000E+01 0.  1.
          5    1    4    4  503    0  0.26598521347E+02 -0.32155634762E+02  0.33151104467E+03  0.33416033416E+03  0.47000000000E+01 0. -1.
         -5    1    3    3    0  502  0.16695274120E+02 -0.39467480739E+02  0.55510598191E+02  0.70284640750E+02  0.47000000000E+01 0.  1.
<mgrwt>
<rscale>  0 0.93192900E+02</rscale>
<asrwt>0</asrwt>
<pdfrwt beam="1">  1        2 0.10179480E+00 0.93619599E+02</pdfrwt>
<pdfrwt beam="2">  1       -2 0.46147046E-02 0.93619599E+02</pdfrwt>
<totfact> 0.92798729E+03</totfact>
</mgrwt>
</event>
<event>
 8    1  0.6396648E-004  0.1046874E+03  0.7546771E-02  0.1272270E+00
          1   -1    0    0  501    0  0.00000000000E+00  0.00000000000E+00  0.21719403243E+03  0.21719403243E+03  0.00000000000E+00 0. -1.
         -1   -1    0    0    0  501 -0.00000000000E+00 -0.00000000000E+00 -0.85720374695E+02  0.85720374695E+02  0.00000000000E+00 0.  1.
         23    2    1    2    0    0 -0.52291463076E+02 -0.29761025874E+01  0.16430542821E+03  0.19319938441E+03  0.87100367967E+02 0.  0.
         23    2    1    2    0    0  0.52291463076E+02  0.29761025874E+01 -0.32831770474E+02  0.10971502271E+03  0.90643294069E+02 0.  0.
          5    1    3    3  502    0  0.17384381494E+02 -0.12553802933E+02  0.11193616148E+02  0.24641463643E+02  0.47000000000E+01 0. -1.
         -5    1    4    4    0  503  0.41333399850E+02  0.23017080310E+02 -0.58270592177E+02  0.75204972188E+02  0.47000000000E+01 0.  1.
          5    1    4    4  503    0  0.10958063226E+02 -0.20040977723E+02  0.25438821702E+02  0.34510050527E+02  0.47000000000E+01 0. -1.
         -5    1    3    3    0  502 -0.69675844570E+02  0.95777003455E+01  0.15311181206E+03  0.16855792077E+03  0.47000000000E+01 0.  1.
<mgrwt>
<rscale>  0 0.10391591E+03</rscale>
<asrwt>0</asrwt>
<pdfrwt beam="1">  1        1 0.33414466E-01 0.10468744E+03</pdfrwt>
<pdfrwt beam="2">  1       -1 0.13187750E-01 0.10468744E+03</pdfrwt>
<totfact> 0.49055022E+03</totfact>
</mgrwt>
</event>
<event>
 8    1  0.6396648E-004  0.1698415E+03  0.7546771E-02  0.1178151E+00
          1   -1    0    0  501    0  0.00000000000E+00  0.00000000000E+00  0.22509152244E+03  0.22509152244E+03  0.00000000000E+00 0. -1.
         -1   -1    0    0    0  501 -0.00000000000E+00 -0.00000000000E+00 -0.12778264333E+03  0.12778264333E+03  0.00000000000E+00 0.  1.
         23    2    1    2    0    0 -0.13575009617E+03  0.44348931293E+02  0.51324518689E+02  0.17742702497E+03  0.91930553437E+02 0.  0.
         23    2    1    2    0    0  0.13575009617E+03 -0.44348931293E+02  0.45984360416E+02  0.17544714080E+03  0.90951753671E+02 0.  0.
          5    1    4    4  502    0  0.14298173445E+03 -0.23593104189E+02  0.30531458339E+02  0.14817108659E+03  0.47000000000E+01 0. -1.
         -5    1    4    4    0  502 -0.72316382809E+01 -0.20755827104E+02  0.15452902077E+02  0.27276054216E+02  0.47000000000E+01 0.  1.
          5    1    3    3  503    0 -0.46992542924E+02  0.18145343703E+02  0.66469566675E+02  0.83533501558E+02  0.47000000000E+01 0. -1.
         -5    1    3    3    0  503 -0.88757553245E+02  0.26203587590E+02 -0.15145047986E+02  0.93893523414E+02  0.47000000000E+01 0.  1.
<mgrwt>
<rscale>  0 0.16970942E+03</rscale>
<asrwt>0</asrwt>
<pdfrwt beam="1">  1        1 0.34629465E-01 0.16984152E+03</pdfrwt>
<pdfrwt beam="2">  1       -1 0.19658868E-01 0.16984152E+03</pdfrwt>
<totfact> 0.25651711E+03</totfact>
</mgrwt>
</event>
<event>
 8    1  0.6396648E-004  0.9784944E+02  0.7546771E-02  0.1285286E+00
          3   -1    0    0  501    0  0.00000000000E+00  0.00000000000E+00  0.25106536555E+02  0.25106536555E+02  0.00000000000E+00 0. -1.
         -3   -1    0    0    0  501 -0.00000000000E+00 -0.00000000000E+00 -0.38481251747E+03  0.38481251747E+03  0.00000000000E+00 0.  1.
         23    2    1    2    0    0 -0.20005436012E+02  0.27685644839E+02 -0.20547944558E+03  0.22727092771E+03  0.90904123270E+02 0.  0.
         23    2    1    2    0    0  0.20005436012E+02 -0.27685644839E+02 -0.15422653533E+03  0.18264812631E+03  0.91694064384E+02 0.  0.
          5    1    3    3  502    0 -0.13289498996E+02 -0.15229222738E+02 -0.40316024861E+01  0.21139626945E+02  0.47000000000E+01 0. -1.
         -5    1    3    3    0  502 -0.67159370152E+01  0.42914867577E+02 -0.20144784310E+03  0.20613130077E+03  0.47000000000E+01 0.  1.
          5    1    4    4  503    0 -0.19580445491E+02 -0.48694329529E+02 -0.87128331232E+02  0.10182321777E+03  0.47000000000E+01 0. -1.
         -5    1    4    4    0  503  0.39585881503E+02  0.21008684690E+02 -0.67098204098E+02  0.80824908536E+02  0.47000000000E+01 0.  1.
<mgrwt>
<rscale>  0 0.97663954E+02</rscale>
<asrwt>0</asrwt>
<pdfrwt beam="1">  1        3 0.38625445E-02 0.97849445E+02</pdfrwt>
<pdfrwt beam="2">  1       -3 0.59201919E-01 0.97849445E+02</pdfrwt>
<totfact> 0.20936126E+03</totfact>
</mgrwt>
</event>
<event>
 8    1  0.6396648E-004  0.1200090E+03  0.7546771E-02  0.1244178E+00
         -1   -1    0    0    0  501 -0.00000000000E+00  0.00000000000E+00  0.10443467664E+03  0.10443467664E+03  0.00000000000E+00 0.  1.
          1   -1    0    0  501    0  0.00000000000E+00 -0.00000000000E+00 -0.20661621287E+03  0.20661621287E+03  0.00000000000E+00 0. -1.
         23    2    1    2    0    0 -0.63495675423E+02 -0.35906046570E+02 -0.14308065624E+03  0.18674647028E+03  0.95295461549E+02 0.  0.
         23    2    1    2    0    0  0.63495675423E+02  0.35906046570E+02  0.40899120015E+02  0.12430441924E+03  0.91966872551E+02 0.  0.
          5    1    4    4  502    0 -0.17492016518E+02  0.23762118683E+02  0.28599094403E+02  0.41359486540E+02  0.47000000000E+01 0. -1.
         -5    1    4    4    0  502  0.80987691941E+02  0.12143927887E+02  0.12300025612E+02  0.82944932699E+02  0.47000000000E+01 0.  1.
          5    1    3    3  503    0 -0.87190896253E+02 -0.37615135320E+02 -0.10530322694E+03  0.14187321946E+03  0.47000000000E+01 0. -1.
         -5    1    3    3    0  503  0.23695220830E+02  0.17090887491E+01 -0.37777429299E+02  0.44873250818E+02  0.47000000000E+01 0.  1.
<mgrwt>
<rscale>  0 0.11934716E+03</rscale>
<asrwt>0</asrwt>
<pdfrwt beam="1">  1        1 0.31787110E-01 0.12000904E+03</pdfrwt>
<pdfrwt beam="2">  1       -1 0.16066873E-01 0.12000904E+03</pdfrwt>
<totfact> 0.38689571E+03</totfact>
</mgrwt>
</event>
<event>
 8    1  0.6396648E-004  0.1128076E+03  0.7546771E-02  0.1256614E+00
         -2   -1    0    0    0  501 -0.00000000000E+00  0.00000000000E+00  0.14952436611E+03  0.14952436611E+03  0.00000000000E+00 0.  1.
          2   -1    0    0  501    0  0.00000000000E+00 -0.00000000000E+00 -0.94403484282E+02  0.94403484282E+02  0.00000000000E+00 0. -1.
         23    2    1    2    0    0 -0.62930568994E+02  0.12091585489E+02  0.69867352772E+02  0.13269134060E+03  0.92839010839E+02 0.  0.
         23    2    1    2    0    0  0.62930568994E+02 -0.12091585489E+02 -0.14746470942E+02  0.11123650979E+03  0.89719784621E+02 0.  0.
          5    1    3    3  502    0  0.52516242589E+01  0.22283177671E+02 -0.11412469172E+02  0.26008729632E+02  0.47000000000E+01 0. -1.
         -5    1    4    4    0  503  0.53997437104E+02  0.33374367201E+02 -0.97766132591E+01  0.64399097561E+02  0.47000000000E+01 0.  1.
          5    1    4    4  503    0  0.89331318894E+01 -0.45465952689E+02 -0.49698576827E+01  0.46837412233E+02  0.47000000000E+01 0. -1.
         -5    1    3    3    0  502 -0.68182193253E+02 -0.10191592182E+02  0.81279821944E+02  0.10668261097E+03  0.47000000000E+01 0.  1.
<mgrwt>
<rscale>  0 0.11216386E+03</rscale>
<asrwt>0</asrwt>
<pdfrwt beam="1">  1        2 0.14523613E-01 0.11280756E+03</pdfrwt>
<pdfrwt beam="2">  1       -2 0.23003749E-01 0.11280756E+03</pdfrwt>
<totfact> 0.62396379E+03</totfact>
</mgrwt>
</event>
<event>
 8    1  0.6396648E-004  0.9214045E+02  0.7546771E-02  0.1298582E+00
          1   -1    0    0  501    0  0.00000000000E+00  0.00000000000E+00  0.37713676783E+02  0.37713676783E+02  0.00000000000E+00 0. -1.
         -1   -1    0    0    0  501 -0.00000000000E+00 -0.00000000000E+00 -0.22326494113E+03  0.22326494113E+03  0.00000000000E+00 0.  1.
         23    2    1    2    0    0 -0.25988453781E+01  0.22495194317E+01 -0.82516353630E+02  0.12368836392E+03  0.92076318439E+02 0.  0.
         23    2    1    2    0    0  0.25988453781E+01 -0.22495194317E+01 -0.10303491072E+03  0.13729025400E+03  0.90667561349E+02 0.  0.
          5    1    4    4  502    0 -0.21895728267E+02  0.36951361295E+02 -0.60157046253E+02  0.74066093672E+02  0.47000000000E+01 0. -1.
         -5    1    3    3    0  503  0.28190669597E+02  0.35951602572E+02 -0.36102104676E+02  0.58418178179E+02  0.47000000000E+01 0.  1.
          5    1    3    3  503    0 -0.30789514975E+02 -0.33702083140E+02 -0.46414248954E+02  0.65270185738E+02  0.47000000000E+01 0. -1.
         -5    1    4    4    0  502  0.24494573645E+02 -0.39200880727E+02 -0.42877864466E+02  0.63224160327E+02  0.47000000000E+01 0.  1.
<mgrwt>
<rscale>  0 0.91786476E+02</rscale>
<asrwt>0</asrwt>
<pdfrwt beam="1">  1        1 0.58021042E-02 0.92140451E+02</pdfrwt>
<pdfrwt beam="2">  1       -1 0.34348452E-01 0.92140451E+02</pdfrwt>
<totfact> 0.99205415E+03</totfact>
</mgrwt>
</event>
<event>
 8    1  0.6396648E-004  0.1091351E+03  0.7546771E-02  0.1265930E+00
          4   -1    0    0  501    0  0.00000000000E+00  0.00000000000E+00  0.51635073161E+03  0.51635073161E+03  0.00000000000E+00 0. -1.
         -4   -1    0    0    0  501 -0.00000000000E+00 -0.00000000000E+00 -0.25463494116E+02  0.25463494116E+02  0.00000000000E+00 0.  1.
         23    2    1    2    0    0  0.38453826724E+02 -0.12723680402E+02  0.36028434017E+03  0.37645088322E+03  0.10134038125E+03 0.  0.
         23    2    1    2    0    0 -0.38453826724E+02  0.12723680402E+02  0.13060289733E+03  0.16536334251E+03  0.92991017969E+02 0.  0.
          5    1    3    3  502    0 -0.96334257620E+01 -0.47465969258E+02  0.18722273641E+03  0.19344318070E+03  0.47000000000E+01 0. -1.
         -5    1    4    4    0  503 -0.40042745247E+02  0.42539043959E+02  0.11961594185E+03  0.13320306022E+03  0.47000000000E+01 0.  1.
          5    1    4    4  503    0  0.15889185232E+01 -0.29815363557E+02  0.10986955477E+02  0.32160282287E+02  0.47000000000E+01 0. -1.
         -5    1    3    3    0  502  0.48087252486E+02  0.34742288856E+02  0.17306160376E+03  0.18300770252E+03  0.47000000000E+01 0.  1.
<mgrwt>
<rscale>  0 0.10715542E+03</rscale>
<asrwt>0</asrwt>
<pdfrwt beam="1">  1        4 0.79438566E-01 0.10913506E+03</pdfrwt>
<pdfrwt beam="2">  1       -4 0.39174610E-02 0.10913506E+03</pdfrwt>
<totfact> 0.80640164E+02</totfact>
</mgrwt>
</event>
<event>
 8    1  0.6396648E-004  0.1490239E+03  0.7546771E-02  0.1208485E+00
         -1   -1    0    0    0  501 -0.00000000000E+00  0.00000000000E+00  0.22921931760E+03  0.22921931760E+03  0.00000000000E+00 0.  1.
          1   -1    0    0  501    0  0.00000000000E+00 -0.00000000000E+00 -0.86402350082E+02  0.86402350082E+02  0.00000000000E+00 0. -1.
         23    2    1    2    0    0 -0.12466732886E+02 -0.90254549528E+02  0.50953015699E+02  0.15749390028E+03  0.11792716259E+03 0.  0.
         23    2    1    2    0    0  0.12466732886E+02  0.90254549528E+02  0.91863951819E+02  0.15812776741E+03  0.90907106661E+02 0.  0.
          5    1    3    3  502    0  0.70184771765E-01  0.24288929508E+02  0.32277834250E+02  0.40668238300E+02  0.47000000000E+01 0. -1.
         -5    1    3    3    0  502 -0.12536917657E+02 -0.11454347904E+03  0.18675181450E+02  0.11682566198E+03  0.47000000000E+01 0.  1.
          5    1    4    4  503    0  0.28824008851E+02  0.69968729595E+02  0.15613072349E+02  0.77409977623E+02  0.47000000000E+01 0. -1.
         -5    1    4    4    0  503 -0.16357275965E+02  0.20285819933E+02  0.76250879470E+02  0.80717789782E+02  0.47000000000E+01 0.  1.
<mgrwt>
<rscale>  0 0.14366209E+03</rscale>
<asrwt>0</asrwt>
<pdfrwt beam="1">  1        1 0.13292669E-01 0.14902389E+03</pdfrwt>
<pdfrwt beam="2">  1       -1 0.35264510E-01 0.14902389E+03</pdfrwt>
<totfact> 0.32684341E+03</totfact>
</mgrwt>
</event>
<event>
 8    1  0.6396648E-004  0.1175667E+03  0.7546771E-02  0.1247932E+00
          2   -1    0    0  501    0  0.00000000000E+00  0.00000000000E+00  0.36076750265E+02  0.36076750265E+02  0.00000000000E+00 0. -1.
         -2   -1    0    0    0  501 -0.00000000000E+00 -0.00000000000E+00 -0.60433170530E+03  0.60433170530E+03  0.00000000000E+00 0.  1.
         23    2    1    2    0    0  0.64786139864E+02  0.30441826569E+02 -0.48174545770E+03  0.49588366551E+03  0.93262934660E+02 0.  0.
         23    2    1    2    0    0 -0.64786139864E+02 -0.30441826569E+02 -0.86509497329E+02  0.14452479005E+03  0.90992159482E+02 0.  0.
          5    1    4    4  502    0 -0.43838520830E+02 -0.60488793417E+02 -0.39157684287E+02  0.84475583907E+02  0.47000000000E+01 0. -1.
         -5    1    4    4    0  502 -0.20947619034E+02  0.30046966848E+02 -0.47351813041E+02  0.60049206142E+02  0.47000000000E+01 0.  1.
          5    1    3    3  503    0  0.32923380151E+02 -0.31738675924E+01 -0.41933592795E+02  0.53614723732E+02  0.47000000000E+01 0. -1.
         -5    1    3    3    0  503  0.31862759712E+02  0.33615694162E+02 -0.43981186491E+03  0.44226894178E+03  0.47000000000E+01 0.  1.
<mgrwt>
<rscale>  0 0.11711582E+03</rscale>
<asrwt>0</asrwt>
<pdfrwt beam="1">  1        2 0.55502693E-02 0.11756668E+03</pdfrwt>
<pdfrwt beam="2">  1       -2 0.92974109E-01 0.11756668E+03</pdfrwt>
<totfact> 0.13333860E+03</totfact>
</mgrwt>
</event>
<event>
 8    1  0.6396648E-004  0.9360817E+02  0.7546771E-02  0.1295361E+00
         -2   -1    0    0    0  501 -0.00000000000E+00  0.00000000000E+00  0.10136026881E+02  0.10136026881E+02  0.00000000000E+00 0.  1.
          2   -1    0    0  501    0  0.00000000000E+00 -0.00000000000E+00 -0.10755878863E+04  0.10755878863E+04  0.00000000000E+00 0. -1.
         23    2    1    2    0    0 -0.55611438076E+01 -0.10463827697E+02 -0.77825991734E+03  0.78366150064E+03  0.91084744244E+02 0.  0.
         23    2    1    2    0    0  0.55611438076E+01  0.10463827697E+02 -0.28719194205E+03  0.30206241251E+03  0.92855110061E+02 0.  0.
          5    1    4    4  502    0  0.37672412157E+00 -0.26133932705E+02 -0.24216921986E+03  0.24362090511E+03  0.47000000000E+01 0. -1.
         -5    1    4    4    0  502  0.51844196860E+01  0.36597760402E+02 -0.45022722186E+02  0.58441507399E+02  0.47000000000E+01 0.  1.
          5    1    3    3  503    0 -0.33209454316E+02 -0.39056350172E+02 -0.46981791515E+03  0.47263011937E+03  0.47000000000E+01 0. -1.
         -5    1    3    3    0  503  0.27648310509E+02  0.28592522474E+02 -0.30844200219E+03  0.31103138126E+03  0.47000000000E+01 0.  1.
<mgrwt>
<rscale>  0 0.93166085E+02</rscale>
<asrwt>0</asrwt>
<pdfrwt beam="1">  1        2 0.16547494E+00 0.93608170E+02</pdfrwt>
<pdfrwt beam="2">  1       -2 0.15593899E-02 0.93608170E+02</pdfrwt>
<totfact> 0.24315437E+04</totfact>
</mgrwt>
</event>
<event>
 8    1  0.6396648E-004  0.9351609E+02  0.7546771E-02  0.1295365E+00
         -2   -1    0    0    0  501 -0.00000000000E+00  0.00000000000E+00  0.14438833445E+03  0.14438833445E+03  0.00000000000E+00 0. -1.
          2   -1    0    0  501    0  0.00000000000E+00 -0.00000000000E+00 -0.93345657573E+02  0.93345657573E+02  0.00000000000E+00 0.  1.
         23    2    1    2    0    0  0.25891205086E+01 -0.18081924464E+02  0.97044955977E+02  0.13477010920E+03  0.91714771532E+02 0.  0.
         23    2    1    2    0    0 -0.25891205086E+01  0.18081924464E+02 -0.46002279104E+02  0.10296388281E+03  0.90286720752E+02 0.  0.
          5    1    4    4  502    0  0.23190336461E+02  0.57517602879E+01  0.19596514488E+02  0.31256804566E+02  0.47000000000E+01 0. -1.
         -5    1    3    3    0  503 -0.12144103426E+02  0.29513057464E+02  0.89895089812E+01  0.33487327164E+02  0.47000000000E+01 0.  1.
          5    1    3    3  503    0  0.14733223934E+02 -0.47594981928E+02  0.88055446996E+02  0.10128278204E+03  0.47000000000E+01 0. -1.
         -5    1    4    4    0  502 -0.25779456970E+02  0.12330164176E+02 -0.65598793592E+02  0.71707078249E+02  0.47000000000E+01 0.  1.
<mgrwt>
<rscale>  0 0.93164076E+02</rscale>
<asrwt>0</asrwt>
<pdfrwt beam="1">  1        2 0.14360870E-01 0.93516089E+02</pdfrwt>
<pdfrwt beam="2">  1       -2 0.22213590E-01 0.93516089E+02</pdfrwt>
<totfact> 0.66112694E+03</totfact>
</mgrwt>
</event>
<event>
 7    1  0.6396648E-004  0.2011642E+03  0.7546771E-02  0.1169073E+00
          1   -1    0    0  501    0  0.00000000000E+00  0.00000000000E+00  0.37393929352E+02  0.37393929352E+02  0.00000000000E+00 0. -1.
         -1   -1    0    0    0  501 -0.00000000000E+00 -0.00000000000E+00 -0.77185209090E+03  0.77185209090E+03  0.00000000000E+00 0.  1.
         23    2    1    2    0    0  0.18544679158E+02 -0.84943085773E+02 -0.17889792062E+03  0.21838715251E+03  0.90162350413E+02 0.  0.
          5    1    3    3  502    0  0.49672213094E+02 -0.38489725667E+02 -0.60462388543E+02  0.87330282055E+02  0.47000000000E+01 0. -1.
         -5    1    3    3    0  502 -0.31127533936E+02 -0.46453360106E+02 -0.11843553208E+03  0.13105687045E+03  0.47000000000E+01 0.  1.
          5    1    1    2  503    0  0.54538306009E+02  0.60446206389E+02 -0.10112787157E+03  0.12991192054E+03  0.47000000000E+01 0. -1.
         -5    1    1    2    0  503 -0.73082985167E+02  0.24496879384E+02 -0.45443236936E+03  0.46094694721E+03  0.47000000000E+01 0.  1.
<mgrwt>
<rscale>  0 0.17869425E+03</rscale>
<asrwt>0</asrwt>
<pdfrwt beam="1">  1        1 0.57529124E-02 0.20116416E+03</pdfrwt>
<pdfrwt beam="2">  1       -1 0.11874647E+00 0.20116416E+03</pdfrwt>
<totfact> 0.92335332E+02</totfact>
</mgrwt>
</event>
<event>
 8    1  0.6396648E-004  0.1141260E+03  0.7546771E-02  0.1253677E+00
         -2   -1    0    0    0  501 -0.00000000000E+00  0.00000000000E+00  0.16196514627E+03  0.16196514627E+03  0.00000000000E+00 0.  1.
          2   -1    0    0  501    0  0.00000000000E+00 -0.00000000000E+00 -0.79543533693E+02  0.79543533693E+02  0.00000000000E+00 0. -1.
         23    2    1    2    0    0 -0.48330295417E+02 -0.43266569852E+02  0.39167559511E+02  0.11946091256E+03  0.92352576513E+02 0.  0.
         23    2    1    2    0    0  0.48330295417E+02  0.43266569852E+02  0.43254053062E+02  0.12204776740E+03  0.93898513834E+02 0.  0.
          5    1    3    3  502    0 -0.47057511787E+02 -0.70349811471E+02  0.34644326088E+02  0.91574148752E+02  0.47000000000E+01 0. -1.
         -5    1    4    4    0  503  0.48681320509E+02  0.66245437682E+02  0.51571183557E+02  0.97159693050E+02  0.47000000000E+01 0.  1.
          5    1    4    4  503    0 -0.35102509268E+00 -0.22978867830E+02 -0.83171304953E+01  0.24888074354E+02  0.47000000000E+01 0. -1.
         -5    1    3    3    0  502 -0.12727836293E+01  0.27083241619E+02  0.45232334237E+01  0.27886763803E+02  0.47000000000E+01 0.  1.
<mgrwt>
<rscale>  0 0.11380754E+03</rscale>
<asrwt>0</asrwt>
<pdfrwt beam="1">  1        2 0.12237467E-01 0.11412600E+03</pdfrwt>
<pdfrwt beam="2">  1       -2 0.24917715E-01 0.11412600E+03</pdfrwt>
<totfact> 0.66589591E+03</totfact>
</mgrwt>
</event>
<event>
 8    1  0.6396648E-004  0.9217820E+02  0.7546771E-02  0.1297730E+00
          1   -1    0    0  501    0  0.00000000000E+00  0.00000000000E+00  0.52131133289E+03  0.52131133289E+03  0.00000000000E+00 0. -1.
         -1   -1    0    0    0  501 -0.00000000000E+00 -0.00000000000E+00 -0.28780109188E+03  0.28780109188E+03  0.00000000000E+00 0.  1.
         23    2    1    2    0    0 -0.72137275529E+01  0.92258562148E+01 -0.27618937129E+03  0.29116557036E+03  0.91431210563E+02 0.  0.
         23    2    1    2    0    0  0.72137275529E+01 -0.92258562148E+01  0.50969961230E+03  0.51794685441E+03  0.91313169521E+02 0.  0.
          5    1    4    4  502    0  0.33457509489E+02 -0.39313924683E+02  0.28129911032E+03  0.28603543326E+03  0.47000000000E+01 0. -1.
         -5    1    3    3    0  503  0.23599961833E+02  0.55059131038E+01 -0.24722138480E+03  0.24845075243E+03  0.47000000000E+01 0.  1.
          5    1    3    3  503    0 -0.30813689386E+02  0.37199431111E+01 -0.28967986482E+02  0.42714817934E+02  0.47000000000E+01 0. -1.
         -5    1    4    4    0  502 -0.26243781936E+02  0.30088068468E+02  0.22840050197E+03  0.23191142114E+03  0.47000000000E+01 0.  1.
<mgrwt>
<rscale>  0 0.92148915E+02</rscale>
<asrwt>0</asrwt>
<pdfrwt beam="1">  1        1 0.80201743E-01 0.92178200E+02</pdfrwt>
<pdfrwt beam="2">  1       -1 0.44277091E-01 0.92178200E+02</pdfrwt>
<totfact> 0.22841590E+02</totfact>
</mgrwt>
</event>
<event>
 8    1  0.6396648E-004  0.9541385E+02  0.7546771E-02  0.1291319E+00
         -1   -1    0    0    0  501 -0.00000000000E+00  0.00000000000E+00  0.28566965464E+03  0.28566965464E+03  0.00000000000E+00 0.  1.
          1   -1    0    0  501    0  0.00000000000E+00 -0.00000000000E+00 -0.31552827487E+02  0.31552827487E+02  0.00000000000E+00 0. -1.
         23    2    1    2    0    0 -0.12591372451E+02 -0.18946127592E+02  0.14162543714E+03  0.16971615828E+03  0.90710040937E+02 0.  0.
         23    2    1    2    0    0  0.12591372451E+02  0.18946127592E+02  0.11249139001E+03  0.14750632384E+03  0.92662313459E+02 0.  0.
          5    1    3    3  502    0 -0.90924037986E+01  0.19136516451E+02 -0.12486550975E+01  0.21737690960E+02  0.47000000000E+01 0. -1.
         -5    1    3    3    0  502 -0.34989686522E+01 -0.38082644043E+02  0.14287409224E+03  0.14797846732E+03  0.47000000000E+01 0.  1.
          5    1    4    4  503    0 -0.22748136445E+02  0.44697533519E+02  0.49022482888E+02  0.70289693718E+02  0.47000000000E+01 0. -1.
         -5    1    4    4    0  503  0.35339508896E+02 -0.25751405927E+02  0.63468907124E+02  0.77216630124E+02  0.47000000000E+01 0.  1.
<mgrwt>
<rscale>  0 0.94936577E+02</rscale>
<asrwt>0</asrwt>
<pdfrwt beam="1">  1        1 0.48542813E-02 0.95413850E+02</pdfrwt>
<pdfrwt beam="2">  1       -1 0.43949176E-01 0.95413850E+02</pdfrwt>
<totfact> 0.82694024E+03</totfact>
</mgrwt>
</event>
<event>
 8    1  0.6396648E-004  0.9362341E+02  0.7546771E-02  0.1299036E+00
         -1   -1    0    0    0  501 -0.00000000000E+00  0.00000000000E+00  0.84291963911E+02  0.84291963911E+02  0.00000000000E+00 0.  1.
          1   -1    0    0  501    0  0.00000000000E+00 -0.00000000000E+00 -0.11046887315E+03  0.11046887315E+03  0.00000000000E+00 0. -1.
         23    2    1    2    0    0  0.20250913054E+02 -0.14552001572E+02 -0.49465441417E+02  0.10588754476E+03  0.90241243403E+02 0.  0.
         23    2    1    2    0    0 -0.20250913054E+02  0.14552001572E+02  0.23288532181E+02  0.88873292301E+02  0.82062452583E+02 0.  0.
          5    1    3    3  502    0  0.44064993094E+02  0.20084520901E+02 -0.38899131299E+02  0.62292407338E+02  0.47000000000E+01 0. -1.
         -5    1    3    3    0  502 -0.23814080039E+02 -0.34636522473E+02 -0.10566310118E+02  0.43595137420E+02  0.47000000000E+01 0.  1.
          5    1    4    4  503    0  0.79918807518E+01  0.18630644841E+02 -0.25036269936E+02  0.32555735247E+02  0.47000000000E+01 0. -1.
         -5    1    4    4    0  503 -0.28242793806E+02 -0.40786432689E+01  0.48324802117E+02  0.56317557054E+02  0.47000000000E+01 0.  1.
<mgrwt>
<rscale>  0 0.91594486E+02</rscale>
<asrwt>0</asrwt>
<pdfrwt beam="1">  1        1 0.16995211E-01 0.93623406E+02</pdfrwt>
<pdfrwt beam="2">  1       -1 0.12967994E-01 0.93623406E+02</pdfrwt>
<totfact> 0.11591999E+04</totfact>
</mgrwt>
</event>
<event>
 8    1  0.6396648E-004  0.2087259E+03  0.7546771E-02  0.1142756E+00
         -1   -1    0    0    0  501 -0.00000000000E+00  0.00000000000E+00  0.99118523664E+02  0.99118523664E+02  0.00000000000E+00 0.  1.
          1   -1    0    0  501    0  0.00000000000E+00 -0.00000000000E+00 -0.60937909226E+03  0.60937909226E+03  0.00000000000E+00 0. -1.
         23    2    1    2    0    0 -0.18360011229E+03 -0.45059117448E+02 -0.44355729847E+03  0.49021381247E+03  0.88471349129E+02 0.  0.
         23    2    1    2    0    0  0.18360011229E+03  0.45059117448E+02 -0.66703270130E+02  0.21828380345E+03  0.86366470970E+02 0.  0.
          5    1    4    4  502    0  0.22293999869E+02  0.17426552381E+02  0.18083544774E+02  0.33908874202E+02  0.47000000000E+01 0. -1.
         -5    1    4    4    0  502  0.16130611242E+03  0.27632565067E+02 -0.84786814904E+02  0.18437492925E+03  0.47000000000E+01 0.  1.
          5    1    3    3  503    0 -0.55087298398E+02 -0.34332214675E+02 -0.24429516695E+03  0.25281520920E+03  0.47000000000E+01 0. -1.
         -5    1    3    3    0  503 -0.12851281389E+03 -0.10726902773E+02 -0.19926213152E+03  0.23739860327E+03  0.47000000000E+01 0.  1.
<mgrwt>
<rscale>  0 0.20850470E+03</rscale>
<asrwt>0</asrwt>
<pdfrwt beam="1">  1        1 0.93750628E-01 0.20872591E+03</pdfrwt>
<pdfrwt beam="2">  1       -1 0.15249004E-01 0.20872591E+03</pdfrwt>
<totfact> 0.10779892E+03</totfact>
</mgrwt>
</event>
<event>
 8    1  0.6396648E-004  0.1041328E+03  0.7546771E-02  0.1274734E+00
          1   -1    0    0  501    0  0.00000000000E+00  0.00000000000E+00  0.32867354733E+02  0.32867354733E+02  0.00000000000E+00 0. -1.
         -1   -1    0    0    0  501 -0.00000000000E+00 -0.00000000000E+00 -0.32896077977E+03  0.32896077977E+03  0.00000000000E+00 0.  1.
         23    2    1    2    0    0  0.16790817687E+02 -0.33038852043E+02 -0.19267853126E+03  0.21901748682E+03  0.97314674232E+02 0.  0.
         23    2    1    2    0    0 -0.16790817687E+02  0.33038852043E+02 -0.10341489377E+03  0.14281064768E+03  0.91250991963E+02 0.  0.
          5    1    3    3  502    0 -0.37119919573E+01  0.25757772708E+02 -0.14384054142E+02  0.30103699984E+02  0.47000000000E+01 0. -1.
         -5    1    3    3    0  502  0.20502809645E+02 -0.58796624750E+02 -0.17829447712E+03  0.18891378683E+03  0.47000000000E+01 0.  1.
          5    1    4    4  503    0 -0.27551262287E+02  0.53408416863E+02 -0.10294422133E+03  0.11929431567E+03  0.47000000000E+01 0. -1.
         -5    1    4    4    0  503  0.10760444600E+02 -0.20369564820E+02 -0.47067244656E+00  0.23516332016E+02  0.47000000000E+01 0.  1.
<mgrwt>
<rscale>  0 0.10269245E+03</rscale>
<asrwt>0</asrwt>
<pdfrwt beam="1">  1        1 0.50565161E-02 0.10413281E+03</pdfrwt>
<pdfrwt beam="2">  1       -1 0.50609351E-01 0.10413281E+03</pdfrwt>
<totfact> 0.61240213E+03</totfact>
</mgrwt>
</event>
<event>
 8    1  0.6396648E-004  0.1025422E+03  0.7546771E-02  0.1275396E+00
         -1   -1    0    0    0  501 -0.00000000000E+00  0.00000000000E+00  0.83261659899E+03  0.83261659899E+03  0.00000000000E+00 0.  1.
          1   -1    0    0  501    0  0.00000000000E+00 -0.00000000000E+00 -0.15768628799E+02  0.15768628799E+02  0.00000000000E+00 0. -1.
         23    2    1    2    0    0 -0.40009998688E+02  0.23811766439E+02  0.59917275359E+03  0.60776642370E+03  0.90577242851E+02 0.  0.
         23    2    1    2    0    0  0.40009998688E+02 -0.23811766439E+02  0.21767521660E+03  0.24061880408E+03  0.91362512777E+02 0.  0.
          5    1    3    3  502    0  0.23644724313E+02 -0.11387670476E+02  0.10954543521E+03  0.11274326766E+03  0.47000000000E+01 0. -1.
         -5    1    3    3    0  502 -0.63654723001E+02  0.35199436915E+02  0.48962731838E+03  0.49502315605E+03  0.47000000000E+01 0.  1.
          5    1    4    4  503    0 -0.18415458157E+02 -0.35126786810E+02  0.60550674769E+02  0.72536159711E+02  0.47000000000E+01 0. -1.
         -5    1    4    4    0  503  0.58425456845E+02  0.11315020372E+02  0.15712454183E+03  0.16808264437E+03  0.47000000000E+01 0.  1.
<mgrwt>
<rscale>  0 0.10236702E+03</rscale>
<asrwt>0</asrwt>
<pdfrwt beam="1">  1        1 0.24259436E-02 0.10254223E+03</pdfrwt>
<pdfrwt beam="2">  1       -1 0.12809483E+00 0.10254223E+03</pdfrwt>
<totfact> 0.24679035E+03</totfact>
</mgrwt>
</event>
<event>
 8    1  0.6396648E-004  0.1006328E+03  0.7546771E-02  0.1280567E+00
          2   -1    0    0  501    0  0.00000000000E+00  0.00000000000E+00  0.11406954767E+03  0.11406954767E+03  0.00000000000E+00 0. -1.
         -2   -1    0    0    0  501 -0.00000000000E+00 -0.00000000000E+00 -0.13385017730E+03  0.13385017730E+03  0.00000000000E+00 0.  1.
         23    2    1    2    0    0  0.33790863880E+02  0.22517660025E+02 -0.83794391407E+02  0.12865231936E+03  0.88775287954E+02 0.  0.
         23    2    1    2    0    0 -0.33790863880E+02 -0.22517660025E+02  0.64013761785E+02  0.11926740561E+03  0.92076516267E+02 0.  0.
          5    1    4    4  502    0 -0.31886240919E+02  0.98715197087E+01  0.76961134694E+02  0.84019554359E+02  0.47000000000E+01 0. -1.
         -5    1    3    3    0  503  0.62851066314E+02  0.17647579792E+02 -0.69831187240E+02  0.95708820496E+02  0.47000000000E+01 0.  1.
          5    1    3    3  503    0 -0.29060202434E+02  0.48700802327E+01 -0.13963204167E+02  0.32943498867E+02  0.47000000000E+01 0. -1.
         -5    1    4    4    0  502 -0.19046229618E+01 -0.32389179734E+02 -0.12947372909E+02  0.35247851249E+02  0.47000000000E+01 0.  1.
<mgrwt>
<rscale>  0 0.99871297E+02</rscale>
<asrwt>0</asrwt>
<pdfrwt beam="1">  1        2 0.17549161E-01 0.10063276E+03</pdfrwt>
<pdfrwt beam="2">  1       -2 0.20592335E-01 0.10063276E+03</pdfrwt>
<totfact> 0.60030510E+03</totfact>
</mgrwt>
</event>
<event>
 8    1  0.6396648E-004  0.9745462E+02  0.7546771E-02  0.1286509E+00
         -1   -1    0    0    0  501 -0.00000000000E+00  0.00000000000E+00  0.23567620794E+02  0.23567620794E+02  0.00000000000E+00 0.  1.
          1   -1    0    0  501    0  0.00000000000E+00 -0.00000000000E+00 -0.39812755784E+03  0.39812755784E+03  0.00000000000E+00 0. -1.
         23    2    1    2    0    0 -0.28413900371E+02  0.22193173024E+02 -0.17583794964E+03  0.20036323274E+03  0.89031195849E+02 0.  0.
         23    2    1    2    0    0  0.28413900371E+02 -0.22193173024E+02 -0.19872198740E+03  0.22133194589E+03  0.90540131070E+02 0.  0.
          5    1    3    3  502    0 -0.47578821145E+01  0.48190519938E+02 -0.50575730500E+02  0.70178046209E+02  0.47000000000E+01 0. -1.
         -5    1    4    4    0  503  0.46701559485E+02 -0.43805106555E+02 -0.10273490295E+03  0.12114649522E+03  0.47000000000E+01 0.  1.
          5    1    4    4  503    0 -0.18287659115E+02  0.21611933531E+02 -0.95987084447E+02  0.10018545068E+03  0.47000000000E+01 0. -1.
         -5    1    3    3    0  502 -0.23656018256E+02 -0.25997346914E+02 -0.12526221914E+03  0.13018518653E+03  0.47000000000E+01 0.  1.
<mgrwt>
<rscale>  0 0.97102650E+02</rscale>
<asrwt>0</asrwt>
<pdfrwt beam="1">  1        1 0.61250390E-01 0.97454615E+02</pdfrwt>
<pdfrwt beam="2">  1       -1 0.36257880E-02 0.97454615E+02</pdfrwt>
<totfact> 0.15852063E+04</totfact>
</mgrwt>
</event>
<event>
 8    1  0.6396648E-004  0.1095705E+03  0.7546771E-02  0.1263348E+00
          1   -1    0    0  501    0  0.00000000000E+00  0.00000000000E+00  0.15653729265E+03  0.15653729265E+03  0.00000000000E+00 0. -1.
         -1   -1    0    0    0  501 -0.00000000000E+00 -0.00000000000E+00 -0.76593944820E+02  0.76593944820E+02  0.00000000000E+00 0.  1.
         23    2    1    2    0    0  0.52102533775E+02  0.38382888729E+01  0.18484613781E+02  0.11111869737E+03  0.96313433488E+02 0.  0.
         23    2    1    2    0    0 -0.52102533775E+02 -0.38382888729E+01  0.61458734045E+02  0.12201254010E+03  0.91544947780E+02 0.  0.
          5    1    4    4  502    0 -0.55290178605E+02 -0.34006236153E+02  0.15762398070E+02  0.66962460680E+02  0.47000000000E+01 0. -1.
         -5    1    4    4    0  502  0.31876448294E+01  0.30167947280E+02  0.45696335975E+02  0.55050079420E+02  0.47000000000E+01 0.  1.
          5    1    3    3  503    0  0.35814141449E+02 -0.31924087860E+02  0.42971425993E+02  0.64578894116E+02  0.47000000000E+01 0. -1.
         -5    1    3    3    0  503  0.16288392326E+02  0.35762376733E+02 -0.24486812212E+02  0.46539803249E+02  0.47000000000E+01 0.  1.
<mgrwt>
<rscale>  0 0.10851350E+03</rscale>
<asrwt>0</asrwt>
<pdfrwt beam="1">  1        1 0.24082660E-01 0.10957045E+03</pdfrwt>
<pdfrwt beam="2">  1       -1 0.11783684E-01 0.10957045E+03</pdfrwt>
<totfact> 0.87792045E+03</totfact>
</mgrwt>
</event>
<event>
 8    1  0.6396648E-004  0.1485041E+03  0.7546771E-02  0.1203344E+00
          1   -1    0    0  501    0  0.00000000000E+00  0.00000000000E+00  0.11747644019E+04  0.11747644019E+04  0.00000000000E+00 0. -1.
         -1   -1    0    0    0  501 -0.00000000000E+00 -0.00000000000E+00 -0.19197981201E+02  0.19197981201E+02  0.00000000000E+00 0.  1.
         23    2    1    2    0    0  0.11003734992E+03 -0.27532097051E+02  0.45955367014E+03  0.48295240841E+03  0.95849978119E+02 0.  0.
         23    2    1    2    0    0 -0.11003734992E+03  0.27532097051E+02  0.69601275056E+03  0.71100997469E+03  0.90748005076E+02 0.  0.
          5    1    4    4  502    0 -0.63387992594E+02 -0.14571323538E+02  0.51968390629E+03  0.52375930877E+03  0.47000000000E+01 0. -1.
         -5    1    3    3    0  503  0.70492932356E+02 -0.63198288587E+02  0.30715942873E+03  0.32145338985E+03  0.47000000000E+01 0.  1.
          5    1    3    3  503    0  0.39544417561E+02  0.35666191536E+02  0.15239424142E+03  0.16149901856E+03  0.47000000000E+01 0. -1.
         -5    1    4    4    0  502 -0.46649357322E+02  0.42103420588E+02  0.17632884427E+03  0.18725066592E+03  0.47000000000E+01 0.  1.
<mgrwt>
<rscale>  0 0.14768715E+03</rscale>
<asrwt>0</asrwt>
<pdfrwt beam="1">  1        1 0.18073293E+00 0.14850405E+03</pdfrwt>
<pdfrwt beam="2">  1       -1 0.29535365E-02 0.14850405E+03</pdfrwt>
<totfact> 0.45297469E+03</totfact>
</mgrwt>
</event>
<event>
 7    1  0.6396648E-004  0.3410740E+03  0.7546771E-02  0.1072569E+00
          1   -1    0    0  501    0  0.00000000000E+00  0.00000000000E+00  0.67464575683E+03  0.67464575683E+03  0.00000000000E+00 0. -1.
         -1   -1    0    0    0  501 -0.00000000000E+00 -0.00000000000E+00 -0.47877460505E+03  0.47877460505E+03  0.00000000000E+00 0.  1.
         23    2    1    2    0    0 -0.14694077999E+03 -0.23029134086E+03  0.57537944633E+03  0.64316747063E+03  0.89315136014E+02 0.  0.
          5    1    3    3  502    0 -0.12404066555E+03 -0.20798945344E+03  0.55341523304E+03  0.60409950308E+03  0.47000000000E+01 0. -1.
         -5    1    1    2    0  503  0.14926078836E+03  0.58630880826E+02 -0.24150125831E+03  0.28993328697E+03  0.47000000000E+01 0.  1.
          5    1    1    2  503    0 -0.23200083699E+01  0.17166046003E+03 -0.13800703624E+03  0.22031960428E+03  0.47000000000E+01 0. -1.
         -5    1    3    3    0  502 -0.22900114437E+02 -0.22301887417E+02  0.21964213288E+02  0.39067967556E+02  0.47000000000E+01 0.  1.
<mgrwt>
<rscale>  0 0.32678405E+03</rscale>
<asrwt>0</asrwt>
<pdfrwt beam="1">  1        1 0.10379165E+00 0.34107399E+03</pdfrwt>
<pdfrwt beam="2">  1       -1 0.73657632E-01 0.34107399E+03</pdfrwt>
<totfact> 0.57537793E+01</totfact>
</mgrwt>
</event>
<event>
 8    1  0.2595922E-003  0.1147280E+03  0.7546771E-02  0.1253038E+00
          4   -1    0    0  501    0  0.00000000000E+00  0.00000000000E+00  0.54951453800E+03  0.54951453800E+03  0.00000000000E+00 0. -1.
         -4   -1    0    0    0  501 -0.00000000000E+00 -0.00000000000E+00 -0.12635902834E+03  0.12635902834E+03  0.00000000000E+00 0.  1.
         23    2    1    2    0    0  0.64520248030E+02 -0.17092122732E+02  0.51609990924E+03  0.52822134268E+03  0.90574099367E+02 0.  0.
         23    2    1    2    0    0 -0.64520248030E+02  0.17092122732E+02 -0.92944399581E+02  0.14765222366E+03  0.93314064706E+02 0.  0.
          5    1    3    3  502    0  0.53820032341E+02 -0.48517321463E+02  0.26046729637E+03  0.27039938765E+03  0.47000000000E+01 0. -1.
         -5    1    3    3    0  502  0.10700215689E+02  0.31425198731E+02  0.25563261287E+03  0.25782195503E+03  0.47000000000E+01 0.  1.
          5    1    4    4  503    0  0.20573801548E+02 -0.17788793837E+01 -0.14947607666E+01  0.21231345501E+02  0.47000000000E+01 0. -1.
         -5    1    4    4    0  503 -0.85094049579E+02  0.18871002115E+02 -0.91449638815E+02  0.12642087816E+03  0.47000000000E+01 0.  1.
<mgrwt>
<rscale>  0 0.11416964E+03</rscale>
<asrwt>0</asrwt>
<pdfrwt beam="1">  1        4 0.84540697E-01 0.11472802E+03</pdfrwt>
<pdfrwt beam="2">  1       -4 0.19439851E-01 0.11472802E+03</pdfrwt>
<totfact> 0.49044044E+01</totfact>
</mgrwt>
</event>
<event>
 8    1  0.9090981E-004  0.9910349E+02  0.7546771E-02  0.1282269E+00
          1   -1    0    0  501    0  0.00000000000E+00  0.00000000000E+00  0.15025840772E+03  0.15025840772E+03  0.00000000000E+00 0. -1.
         -1   -1    0    0    0  501 -0.00000000000E+00 -0.00000000000E+00 -0.15103778554E+03  0.15103778554E+03  0.00000000000E+00 0.  1.
         23    2    1    2    0    0 -0.38454986906E+02 -0.39427723018E+01  0.11313321622E+03  0.15030751801E+03  0.91098265001E+02 0.  0.
         23    2    1    2    0    0  0.38454986906E+02  0.39427723018E+01 -0.11391259404E+03  0.15098867526E+03  0.91253325990E+02 0.  0.
          5    1    3    3  502    0 -0.64192928791E+02 -0.12467251806E+02  0.53456908454E+02  0.84592526477E+02  0.47000000000E+01 0. -1.
         -5    1    4    4    0  503  0.55011270782E+02  0.25406374378E+02 -0.10629224756E+03  0.12244123351E+03  0.47000000000E+01 0.  1.
          5    1    4    4  503    0 -0.16556283876E+02 -0.21463602076E+02 -0.76203464770E+01  0.28547441747E+02  0.47000000000E+01 0. -1.
         -5    1    3    3    0  502  0.25737941885E+02  0.85244795043E+01  0.59676307767E+02  0.65714991531E+02  0.47000000000E+01 0.  1.
<mgrwt>
<rscale>  0 0.99067777E+02</rscale>
<asrwt>0</asrwt>
<pdfrwt beam="1">  1        1 0.23116678E-01 0.99103486E+02</pdfrwt>
<pdfrwt beam="2">  1       -1 0.23236583E-01 0.99103486E+02</pdfrwt>
<totfact> 0.31588618E+03</totfact>
</mgrwt>
</event>
<event>
 8    1  0.6396648E-004  0.1008854E+03  0.7546771E-02  0.1280312E+00
          2   -1    0    0  501    0  0.00000000000E+00  0.00000000000E+00  0.27104890697E+03  0.27104890697E+03  0.00000000000E+00 0. -1.
         -2   -1    0    0    0  501 -0.00000000000E+00 -0.00000000000E+00 -0.37439001611E+02  0.37439001611E+02  0.00000000000E+00 0.  1.
         23    2    1    2    0    0 -0.22714114044E+02  0.21897847491E+02  0.91323882771E+02  0.13608052545E+03  0.95824898331E+02 0.  0.
         23    2    1    2    0    0  0.22714114044E+02 -0.21897847491E+02  0.14228602259E+03  0.17240738314E+03  0.92106171528E+02 0.  0.
          5    1    3    3  502    0  0.21697753921E+02  0.89661151138E+01  0.86013502023E+02  0.89283796266E+02  0.47000000000E+01 0. -1.
         -5    1    3    3    0  502 -0.44411867965E+02  0.12931732377E+02  0.53103807482E+01  0.46796729182E+02  0.47000000000E+01 0.  1.
          5    1    4    4  503    0  0.49213910574E+02 -0.65872159271E+01  0.35489323040E+02  0.61212600480E+02  0.47000000000E+01 0. -1.
         -5    1    4    4    0  503 -0.26499796530E+02 -0.15310631564E+02  0.10679669955E+03  0.11119478266E+03  0.47000000000E+01 0.  1.
<mgrwt>
<rscale>  0 0.99992268E+02</rscale>
<asrwt>0</asrwt>
<pdfrwt beam="1">  1        2 0.41699831E-01 0.10088537E+03</pdfrwt>
<pdfrwt beam="2">  1       -2 0.57598466E-02 0.10088537E+03</pdfrwt>
<totfact> 0.17503545E+04</totfact>
</mgrwt>
</event>
<event>
 8    1  0.6396648E-004  0.1232652E+03  0.7546771E-02  0.1249576E+00
         -1   -1    0    0    0  501 -0.00000000000E+00  0.00000000000E+00  0.12353739313E+02  0.12353739313E+02  0.00000000000E+00 0.  1.
          1   -1    0    0  501    0  0.00000000000E+00 -0.00000000000E+00 -0.11849147506E+04  0.11849147506E+04  0.00000000000E+00 0. -1.
         23    2    1    2    0    0  0.39171640520E+01  0.35968119431E+02 -0.77405963923E+03  0.78013823667E+03  0.90212490501E+02 0.  0.
         23    2    1    2    0    0 -0.39171640520E+01 -0.35968119431E+02 -0.39850137210E+03  0.41713025328E+03  0.11783571127E+03 0.  0.
          5    1    3    3  502    0 -0.42339135338E+02  0.12238788094E+02 -0.31013407306E+03  0.31328521125E+03  0.47000000000E+01 0. -1.
         -5    1    3    3    0  502  0.46256299390E+02  0.23729331337E+02 -0.46392556618E+03  0.46685302543E+03  0.47000000000E+01 0.  1.
          5    1    4    4  503    0 -0.25252687498E+02  0.16059202598E+02 -0.24680489341E+02  0.39074451603E+02  0.47000000000E+01 0. -1.
         -5    1    4    4    0  503  0.21335523446E+02 -0.52027322029E+02 -0.37382088276E+03  0.37805580168E+03  0.47000000000E+01 0.  1.
<mgrwt>
<rscale>  0 0.11615664E+03</rscale>
<asrwt>0</asrwt>
<pdfrwt beam="1">  1        1 0.18229458E+00 0.12326518E+03</pdfrwt>
<pdfrwt beam="2">  1       -1 0.19005752E-02 0.12326518E+03</pdfrwt>
<totfact> 0.83739712E+03</totfact>
</mgrwt>
</event>
<event>
 8    1  0.6396648E-004  0.2957680E+03  0.7546771E-02  0.1087999E+00
         -1   -1    0    0    0  501 -0.00000000000E+00  0.00000000000E+00  0.14885821354E+03  0.14885821354E+03  0.00000000000E+00 0.  1.
          1   -1    0    0  501    0  0.00000000000E+00 -0.00000000000E+00 -0.57819070521E+03  0.57819070521E+03  0.00000000000E+00 0. -1.
         23    2    1    2    0    0  0.18445482868E+03 -0.20580760891E+03 -0.22187866623E+03  0.36974159712E+03  0.10534870861E+03 0.  0.
         23    2    1    2    0    0 -0.18445482868E+03  0.20580760891E+03 -0.20745382545E+03  0.35730732163E+03  0.90835437435E+02 0.  0.
          5    1    4    4  502    0 -0.13823331403E+03  0.92889734611E+02 -0.14115818657E+03  0.21836821092E+03  0.47000000000E+01 0. -1.
         -5    1    4    4    0  502 -0.46221514643E+02  0.11291787430E+03 -0.66295638876E+02  0.13893911071E+03  0.47000000000E+01 0.  1.
          5    1    3    3  503    0  0.16178312517E+02 -0.53652266855E+02 -0.93279995781E+02  0.10891992998E+03  0.47000000000E+01 0. -1.
         -5    1    3    3    0  503  0.16827651616E+03 -0.15215534205E+03 -0.12859867045E+03  0.26082166713E+03  0.47000000000E+01 0.  1.
<mgrwt>
<rscale>  0 0.29454716E+03</rscale>
<asrwt>0</asrwt>
<pdfrwt beam="1">  1        1 0.88952416E-01 0.29576799E+03</pdfrwt>
<pdfrwt beam="2">  1       -1 0.22901264E-01 0.29576799E+03</pdfrwt>
<totfact> 0.59917636E+02</totfact>
</mgrwt>
</event>
<event>
 8    1  0.6396648E-004  0.9846233E+02  0.7546771E-02  0.1285767E+00
          2   -1    0    0  501    0  0.00000000000E+00  0.00000000000E+00  0.37104812023E+03  0.37104812023E+03  0.00000000000E+00 0. -1.
         -2   -1    0    0    0  501 -0.00000000000E+00 -0.00000000000E+00 -0.54447873197E+02  0.54447873197E+02  0.00000000000E+00 0.  1.
         23    2    1    2    0    0 -0.14629762493E+02 -0.23650237680E+02  0.35693315159E+01  0.98527005247E+02  0.94453517364E+02 0.  0.
         23    2    1    2    0    0  0.14629762493E+02  0.23650237680E+02  0.31303091551E+03  0.32696898818E+03  0.90260741572E+02 0.  0.
          5    1    4    4  502    0  0.40293037993E+02  0.31598469352E+02  0.27725228714E+03  0.28198034134E+03  0.47000000000E+01 0. -1.
         -5    1    3    3    0  503 -0.11196456755E+02 -0.60220074541E+02  0.21746855930E+01  0.61470621268E+02  0.47000000000E+01 0.  1.
          5    1    3    3  503    0 -0.34333057384E+01  0.36569836861E+02  0.13946459229E+01  0.37056383979E+02  0.47000000000E+01 0. -1.
         -5    1    4    4    0  502 -0.25663275500E+02 -0.79482316723E+01  0.35778628368E+02  0.44988646835E+02  0.47000000000E+01 0.  1.
<mgrwt>
<rscale>  0 0.97442948E+02</rscale>
<asrwt>0</asrwt>
<pdfrwt beam="1">  1        2 0.57084325E-01 0.98462331E+02</pdfrwt>
<pdfrwt beam="2">  1       -2 0.83765961E-02 0.98462331E+02</pdfrwt>
<totfact> 0.71150853E+03</totfact>
</mgrwt>
</event>
<event>
 8    1  0.6396648E-004  0.1060978E+03  0.7546771E-02  0.1271017E+00
          3   -1    0    0  501    0  0.00000000000E+00  0.00000000000E+00  0.21011223974E+03  0.21011223974E+03  0.00000000000E+00 0. -1.
         -3   -1    0    0    0  501 -0.00000000000E+00 -0.00000000000E+00 -0.18131162793E+03  0.18131162793E+03  0.00000000000E+00 0.  1.
         23    2    1    2    0    0  0.18697543080E+02  0.41024701827E+02 -0.15190150121E+03  0.18187673539E+03  0.89288613647E+02 0.  0.
         23    2    1    2    0    0 -0.18697543080E+02 -0.41024701827E+02  0.18070211302E+03  0.20954713228E+03  0.96042296524E+02 0.  0.
          5    1    4    4  502    0 -0.55425556079E+02 -0.13539377667E+02  0.12309638780E+03  0.13575756960E+03  0.47000000000E+01 0. -1.
         -5    1    3    3    0  503  0.12014076721E+02  0.69067853089E+02 -0.98235713183E+02  0.12077686746E+03  0.47000000000E+01 0.  1.
          5    1    3    3  503    0  0.66834663592E+01 -0.28043151262E+02 -0.53665788029E+02  0.61099867922E+02  0.47000000000E+01 0. -1.
         -5    1    4    4    0  502  0.36728012999E+02 -0.27485324160E+02  0.57605725220E+02  0.73789562685E+02  0.47000000000E+01 0.  1.
<mgrwt>
<rscale>  0 0.10454600E+03</rscale>
<asrwt>0</asrwt>
<pdfrwt beam="1">  1        3 0.32324960E-01 0.10609782E+03</pdfrwt>
<pdfrwt beam="2">  1       -3 0.27894097E-01 0.10609782E+03</pdfrwt>
<totfact> 0.25875287E+02</totfact>
</mgrwt>
</event>
<event>
 8    1  0.6396648E-004  0.9833117E+02  0.7546771E-02  0.1284978E+00
          1   -1    0    0  501    0  0.00000000000E+00  0.00000000000E+00  0.46173715829E+02  0.46173715829E+02  0.00000000000E+00 0. -1.
         -1   -1    0    0    0  501 -0.00000000000E+00 -0.00000000000E+00 -0.30436005380E+03  0.30436005380E+03  0.00000000000E+00 0.  1.
         23    2    1    2    0    0  0.23439604938E+02 -0.25511336291E+02 -0.28022263894E+02  0.10024489825E+03  0.89797266065E+02 0.  0.
         23    2    1    2    0    0 -0.23439604938E+02  0.25511336291E+02 -0.23016407408E+03  0.25028887138E+03  0.92025946235E+02 0.  0.
          5    1    3    3  502    0  0.42103309768E+02  0.30409862939E+01  0.15085269048E+02  0.45073180866E+02  0.47000000000E+01 0. -1.
         -5    1    3    3    0  502 -0.18663704830E+02 -0.28552322585E+02 -0.43107532942E+02  0.55171717386E+02  0.47000000000E+01 0.  1.
          5    1    4    4  503    0 -0.19332561530E+02  0.54331995669E+02 -0.89551476427E+02  0.10661740298E+03  0.47000000000E+01 0. -1.
         -5    1    4    4    0  503 -0.41070434087E+01 -0.28820659378E+02 -0.14061259765E+03  0.14367146839E+03  0.47000000000E+01 0.  1.
<mgrwt>
<rscale>  0 0.97806337E+02</rscale>
<asrwt>0</asrwt>
<pdfrwt beam="1">  1        1 0.71036485E-02 0.98331166E+02</pdfrwt>
<pdfrwt beam="2">  1       -1 0.46824624E-01 0.98331166E+02</pdfrwt>
<totfact> 0.44384962E+03</totfact>
</mgrwt>
</event>
<event>
 8    1  0.6396648E-004  0.1094677E+03  0.7546771E-02  0.1268863E+00
         -1   -1    0    0    0  501 -0.00000000000E+00  0.00000000000E+00  0.31553159979E+03  0.31553159979E+03  0.00000000000E+00 0.  1.
          1   -1    0    0  501    0  0.00000000000E+00 -0.00000000000E+00 -0.38962207265E+02  0.38962207265E+02  0.00000000000E+00 0. -1.
         23    2    1    2    0    0 -0.26266198744E+02 -0.84821042024E+01  0.78063887827E+02  0.13445128568E+03  0.10593072429E+03 0.  0.
         23    2    1    2    0    0  0.26266198744E+02  0.84821042024E+01  0.19850550469E+03  0.22004252138E+03  0.90842812218E+02 0.  0.
          5    1    4    4  502    0 -0.14045084002E+02  0.40572788913E+02  0.92149978432E+02  0.10176995681E+03  0.47000000000E+01 0. -1.
         -5    1    3    3    0  503 -0.60388920695E+02 -0.46356178115E+01  0.79149900615E+02  0.99775284829E+02  0.47000000000E+01 0.  1.
          5    1    3    3  503    0  0.34122721951E+02 -0.38464863909E+01 -0.10860127885E+01  0.34676000846E+02  0.47000000000E+01 0. -1.
         -5    1    4    4    0  502  0.40311282746E+02 -0.32090684710E+02  0.10635552626E+03  0.11827256456E+03  0.47000000000E+01 0.  1.
<mgrwt>
<rscale>  0 0.10564060E+03</rscale>
<asrwt>0</asrwt>
<pdfrwt beam="1">  1        1 0.59941859E-02 0.10946770E+03</pdfrwt>
<pdfrwt beam="2">  1       -1 0.48543321E-01 0.10946770E+03</pdfrwt>
<totfact> 0.52677837E+03</totfact>
</mgrwt>
</event>
<event>
 8    1  0.6396648E-004  0.9805296E+02  0.7546771E-02  0.1285733E+00
         -3   -1    0    0    0  501 -0.00000000000E+00  0.00000000000E+00  0.21572625529E+02  0.21572625529E+02  0.00000000000E+00 0.  1.
          3   -1    0    0  501    0  0.00000000000E+00 -0.00000000000E+00 -0.45356936132E+03  0.45356936132E+03  0.00000000000E+00 0. -1.
         23    2    1    2    0    0  0.10614096544E+02 -0.29799782915E+02 -0.26654880781E+03  0.28401170897E+03  0.92810009035E+02 0.  0.
         23    2    1    2    0    0 -0.10614096544E+02  0.29799782915E+02 -0.16544792798E+03  0.19113027788E+03  0.90316555199E+02 0.  0.
          5    1    4    4  502    0  0.11435588499E+02  0.32365515284E+02 -0.16482933197E+03  0.16843128552E+03  0.47000000000E+01 0. -1.
         -5    1    4    4    0  502 -0.22049685043E+02 -0.25657323683E+01 -0.61859600520E+00  0.22698992358E+02  0.47000000000E+01 0.  1.
          5    1    3    3  503    0  0.38105189290E+02  0.18185742379E+02 -0.12082973155E+03  0.12808060237E+03  0.47000000000E+01 0. -1.
         -5    1    3    3    0  503 -0.27491092747E+02 -0.47985525295E+02 -0.14571907626E+03  0.15593110660E+03  0.47000000000E+01 0.  1.
<mgrwt>
<rscale>  0 0.97458392E+02</rscale>
<asrwt>0</asrwt>
<pdfrwt beam="1">  1        3 0.69779905E-01 0.98052965E+02</pdfrwt>
<pdfrwt beam="2">  1       -3 0.33188653E-02 0.98052965E+02</pdfrwt>
<totfact> 0.18862100E+03</totfact>
</mgrwt>
</event>
<event>
 8    1  0.6396648E-004  0.1377364E+03  0.7546771E-02  0.1217825E+00
          1   -1    0    0  501    0  0.00000000000E+00  0.00000000000E+00  0.62155813952E+03  0.62155813952E+03  0.00000000000E+00 0. -1.
         -1   -1    0    0    0  501 -0.00000000000E+00 -0.00000000000E+00 -0.30586746923E+02  0.30586746923E+02  0.00000000000E+00 0.  1.
         23    2    1    2    0    0 -0.68879437442E+02 -0.45495329020E+02  0.23352516802E+03  0.26907945428E+03  0.10514536011E+03 0.  0.
         23    2    1    2    0    0  0.68879437442E+02  0.45495329020E+02  0.35744622458E+03  0.38306543216E+03  0.11025933061E+03 0.  0.
          5    1    3    3  502    0 -0.33669533076E+02 -0.70557387868E+02  0.90955914919E+02  0.12002937515E+03  0.47000000000E+01 0. -1.
         -5    1    3    3    0  502 -0.35209904366E+02  0.25062058849E+02  0.14256925310E+03  0.14905007913E+03  0.47000000000E+01 0.  1.
          5    1    4    4  503    0  0.34229212302E+02 -0.33277030632E+02  0.88733169401E+02  0.10086954493E+03  0.47000000000E+01 0. -1.
         -5    1    4    4    0  503  0.34650225140E+02  0.78772359652E+02  0.26871305518E+03  0.28219588723E+03  0.47000000000E+01 0.  1.
<mgrwt>
<rscale>  0 0.13671035E+03</rscale>
<asrwt>0</asrwt>
<pdfrwt beam="1">  1        1 0.95624320E-01 0.13773642E+03</pdfrwt>
<pdfrwt beam="2">  1       -1 0.47056538E-02 0.13773642E+03</pdfrwt>
<totfact> 0.62232670E+03</totfact>
</mgrwt>
</event>
<event>
 8    1  0.6396648E-004  0.1046934E+03  0.7546771E-02  0.1270960E+00
         -1   -1    0    0    0  501 -0.00000000000E+00  0.00000000000E+00  0.99912817463E+02  0.99912817463E+02  0.00000000000E+00 0.  1.
          1   -1    0    0  501    0  0.00000000000E+00 -0.00000000000E+00 -0.18250256337E+03  0.18250256337E+03  0.00000000000E+00 0. -1.
         23    2    1    2    0    0  0.17885945771E+02  0.44021784926E+02 -0.13072615596E+03  0.16718597242E+03  0.92757732391E+02 0.  0.
         23    2    1    2    0    0 -0.17885945771E+02 -0.44021784926E+02  0.48136410053E+02  0.11522940841E+03  0.93289216880E+02 0.  0.
          5    1    3    3  502    0  0.26594013405E+01  0.68598528524E+02 -0.11480609230E+03  0.13384826992E+03  0.47000000000E+01 0. -1.
         -5    1    4    4    0  503  0.15392122492E+02 -0.61558691662E+02  0.16190682742E+02  0.65655298047E+02  0.47000000000E+01 0.  1.
          5    1    4    4  503    0 -0.33278068263E+02  0.17536906736E+02  0.31945727311E+02  0.49574110366E+02  0.47000000000E+01 0. -1.
         -5    1    3    3    0  502  0.15226544431E+02 -0.24576743598E+02 -0.15920063660E+02  0.33337702502E+02  0.47000000000E+01 0.  1.
<mgrwt>
<rscale>  0 0.10457485E+03</rscale>
<asrwt>0</asrwt>
<pdfrwt beam="1">  1        1 0.28077318E-01 0.10469337E+03</pdfrwt>
<pdfrwt beam="2">  1       -1 0.15371203E-01 0.10469337E+03</pdfrwt>
<totfact> 0.47940735E+03</totfact>
</mgrwt>
</event>
<event>
 8    1  0.6396648E-004  0.1257756E+03  0.7546771E-02  0.1233955E+00
          2   -1    0    0  501    0  0.00000000000E+00  0.00000000000E+00  0.38139133752E+03  0.38139133752E+03  0.00000000000E+00 0. -1.
         -2   -1    0    0    0  501 -0.00000000000E+00 -0.00000000000E+00 -0.42541377532E+02  0.42541377532E+02  0.00000000000E+00 0.  1.
         23    2    1    2    0    0 -0.81566244045E+02 -0.28215939211E+02  0.13454247451E+03  0.18401389474E+03  0.91160543086E+02 0.  0.
         23    2    1    2    0    0  0.81566244045E+02  0.28215939211E+02  0.20430748548E+03  0.23991882031E+03  0.91489345420E+02 0.  0.
          5    1    3    3  502    0 -0.54847114302E+02 -0.60453692614E+02  0.10229891839E+03  0.13095806047E+03  0.47000000000E+01 0. -1.
         -5    1    4    4    0  503  0.59976265308E+01  0.45654394427E+02  0.57463350074E+02  0.73786325672E+02  0.47000000000E+01 0.  1.
          5    1    4    4  503    0  0.75568617515E+02 -0.17438455216E+02  0.14684413540E+03  0.16613249464E+03  0.47000000000E+01 0. -1.
         -5    1    3    3    0  502 -0.26719129744E+02  0.32237753403E+02  0.32243556123E+02  0.53055834271E+02  0.47000000000E+01 0.  1.
<mgrwt>
<rscale>  0 0.12571578E+03</rscale>
<asrwt>0</asrwt>
<pdfrwt beam="1">  1        2 0.58675588E-01 0.12577556E+03</pdfrwt>
<pdfrwt beam="2">  1       -2 0.65448276E-02 0.12577556E+03</pdfrwt>
<totfact> 0.10261539E+04</totfact>
</mgrwt>
</event>
<event>
 8    1  0.6396648E-004  0.1060843E+03  0.7546771E-02  0.1269246E+00
         -1   -1    0    0    0  501 -0.00000000000E+00  0.00000000000E+00  0.30348895230E+03  0.30348895230E+03  0.00000000000E+00 0.  1.
          1   -1    0    0  501    0  0.00000000000E+00 -0.00000000000E+00 -0.40746360598E+02  0.40746360598E+02  0.00000000000E+00 0. -1.
         23    2    1    2    0    0 -0.38413183732E+02  0.29526300415E+02  0.18744440525E+03  0.21414419077E+03  0.91514776288E+02 0.  0.
         23    2    1    2    0    0  0.38413183732E+02 -0.29526300415E+02  0.75298186447E+02  0.13009112213E+03  0.94374297736E+02 0.  0.
          5    1    3    3  502    0 -0.42780117322E+02 -0.24187409237E+02  0.93769625682E+02  0.10597170332E+03  0.47000000000E+01 0. -1.
         -5    1    4    4    0  503  0.58031784784E+02  0.80887713581E+01  0.24346728344E+02  0.63623654786E+02  0.47000000000E+01 0.  1.
          5    1    4    4  503    0 -0.19618601052E+02 -0.37615071773E+02  0.50951458104E+02  0.66467467340E+02  0.47000000000E+01 0. -1.
         -5    1    3    3    0  502  0.43669335905E+01  0.53713709652E+02  0.93674779571E+02  0.10817248745E+03  0.47000000000E+01 0.  1.
<mgrwt>
<rscale>  0 0.10544465E+03</rscale>
<asrwt>0</asrwt>
<pdfrwt beam="1">  1        1 0.62686711E-02 0.10608432E+03</pdfrwt>
<pdfrwt beam="2">  1       -1 0.46690606E-01 0.10608432E+03</pdfrwt>
<totfact> 0.53057303E+03</totfact>
</mgrwt>
</event>
<event>
 8    1  0.6396648E-004  0.1206916E+03  0.7546771E-02  0.1253900E+00
          1   -1    0    0  501    0  0.00000000000E+00  0.00000000000E+00  0.10114991628E+03  0.10114991628E+03  0.00000000000E+00 0. -1.
         -1   -1    0    0    0  501 -0.00000000000E+00 -0.00000000000E+00 -0.14351339349E+03  0.14351339349E+03  0.00000000000E+00 0.  1.
         23    2    1    2    0    0  0.11995787642E+02  0.21333196476E+02  0.35069154194E+02  0.10126777440E+03  0.91794947377E+02 0.  0.
         23    2    1    2    0    0 -0.11995787642E+02 -0.21333196476E+02 -0.77432631412E+02  0.14339553537E+03  0.11818402160E+03 0.  0.
          5    1    4    4  502    0 -0.26218865314E+02  0.40318954346E+02 -0.73820550806E+01  0.48883859454E+02  0.47000000000E+01 0. -1.
         -5    1    3    3    0  503  0.51983820965E+02  0.10453659095E+02  0.21475942661E+02  0.57401243399E+02  0.47000000000E+01 0.  1.
          5    1    3    3  503    0 -0.39988033323E+02  0.10879537380E+02  0.13593211533E+02  0.43866531005E+02  0.47000000000E+01 0. -1.
         -5    1    4    4    0  502  0.14223077672E+02 -0.61652150821E+02 -0.70050576332E+02  0.94511675913E+02  0.47000000000E+01 0.  1.
<mgrwt>
<rscale>  0 0.11368172E+03</rscale>
<asrwt>0</asrwt>
<pdfrwt beam="1">  1        1 0.15561526E-01 0.12069162E+03</pdfrwt>
<pdfrwt beam="2">  1       -1 0.22078983E-01 0.12069162E+03</pdfrwt>
<totfact> 0.57368962E+03</totfact>
</mgrwt>
</event>
<event>
 8    1  0.2175453E-003  0.1237128E+03  0.7546771E-02  0.1239835E+00
         -1   -1    0    0    0  501 -0.00000000000E+00  0.00000000000E+00  0.22956237819E+03  0.22956237819E+03  0.00000000000E+00 0.  1.
          1   -1    0    0  501    0  0.00000000000E+00 -0.00000000000E+00 -0.21765446157E+03  0.21765446157E+03  0.00000000000E+00 0. -1.
         23    2    1    2    0    0 -0.28986636658E+02  0.71904228885E+02 -0.18250024409E+03  0.21678380176E+03  0.87626676176E+02 0.  0.
         23    2    1    2    0    0  0.28986636658E+02 -0.71904228885E+02  0.19440816071E+03  0.23043303799E+03  0.96407514296E+02 0.  0.
          5    1    4    4  502    0 -0.18383643307E+02  0.13122290427E+02  0.19479646356E+02  0.30194361550E+02  0.47000000000E+01 0. -1.
         -5    1    3    3    0  503  0.24920739855E+02 -0.19441287164E+01 -0.38331470386E+02  0.46002331825E+02  0.47000000000E+01 0.  1.
          5    1    3    3  503    0 -0.53907376513E+02  0.73848357602E+02 -0.14416877370E+03  0.17078146994E+03  0.47000000000E+01 0. -1.
         -5    1    4    4    0  502  0.47370279965E+02 -0.85026519312E+02  0.17492851435E+03  0.20023867644E+03  0.47000000000E+01 0.  1.
<mgrwt>
<rscale>  0 0.12199918E+03</rscale>
<asrwt>0</asrwt>
<pdfrwt beam="1">  1        1 0.33485302E-01 0.12371278E+03</pdfrwt>
<pdfrwt beam="2">  1       -1 0.35317289E-01 0.12371278E+03</pdfrwt>
<totfact> 0.10030435E+03</totfact>
</mgrwt>
</event>
<event>
 8    1  0.6396648E-004  0.1262638E+03  0.7546771E-02  0.1233464E+00
         -2   -1    0    0    0  501 -0.00000000000E+00  0.00000000000E+00  0.64498257441E+02  0.64498257441E+02  0.00000000000E+00 0.  1.
          2   -1    0    0  501    0  0.00000000000E+00 -0.00000000000E+00 -0.44741555421E+03  0.44741555421E+03  0.00000000000E+00 0. -1.
         23    2    1    2    0    0  0.67686120179E+02 -0.54657260428E+02 -0.36307358965E+03  0.38410017737E+03  0.90231301489E+02 0.  0.
         23    2    1    2    0    0 -0.67686120179E+02  0.54657260428E+02 -0.19843707118E+02  0.12781363428E+03  0.91508062018E+02 0.  0.
          5    1    4    4  502    0 -0.49283658026E+02 -0.15252132081E+02  0.28978862675E+01  0.51884431444E+02  0.47000000000E+01 0. -1.
         -5    1    3    3    0  503 -0.20521170830E+02 -0.77280584242E-02 -0.73751818674E+02  0.76697713589E+02  0.47000000000E+01 0.  1.
          5    1    3    3  503    0  0.88207291009E+02 -0.54649532370E+02 -0.28932177098E+03  0.30740246378E+03  0.47000000000E+01 0. -1.
         -5    1    4    4    0  502 -0.18402462153E+02  0.69909392509E+02 -0.22741593386E+02  0.75929202840E+02  0.47000000000E+01 0.  1.
<mgrwt>
<rscale>  0 0.12603263E+03</rscale>
<asrwt>0</asrwt>
<pdfrwt beam="1">  1        2 0.68833161E-01 0.12626382E+03</pdfrwt>
<pdfrwt beam="2">  1       -2 0.99228090E-02 0.12626382E+03</pdfrwt>
<totfact> 0.45531371E+03</totfact>
</mgrwt>
</event>
<event>
 8    1  0.6396648E-004  0.9234096E+02  0.7546771E-02  0.1298726E+00
          2   -1    0    0  501    0  0.00000000000E+00  0.00000000000E+00  0.58405622432E+03  0.58405622432E+03  0.00000000000E+00 0. -1.
         -2   -1    0    0    0  501 -0.00000000000E+00 -0.00000000000E+00 -0.14332357606E+02  0.14332357606E+02  0.00000000000E+00 0.  1.
         23    2    1    2    0    0 -0.15380363397E+02 -0.29350649255E+01  0.26176694373E+03  0.27757662954E+03  0.91003748575E+02 0.  0.
         23    2    1    2    0    0  0.15380363397E+02  0.29350649255E+01  0.30795692298E+03  0.32081195238E+03  0.88530628559E+02 0.  0.
          5    1    4    4  502    0  0.40870981432E+02 -0.82754576543E+01  0.27136011438E+03  0.27458572796E+03  0.47000000000E+01 0. -1.
         -5    1    3    3    0  503 -0.48551912569E+02 -0.21790589495E+02  0.13818245226E+03  0.14815059270E+03  0.47000000000E+01 0.  1.
          5    1    3    3  503    0  0.33171549172E+02  0.18855524570E+02  0.12358449146E+03  0.12942603684E+03  0.47000000000E+01 0. -1.
         -5    1    4    4    0  502 -0.25490618035E+02  0.11210522580E+02  0.36596808600E+02  0.46226224419E+02  0.47000000000E+01 0.  1.
<mgrwt>
<rscale>  0 0.91725755E+02</rscale>
<asrwt>0</asrwt>
<pdfrwt beam="1">  1        2 0.89854785E-01 0.92340958E+02</pdfrwt>
<pdfrwt beam="2">  1       -2 0.22049785E-02 0.92340958E+02</pdfrwt>
<totfact> 0.31348561E+04</totfact>
</mgrwt>
</event>
<event>
 8    1  0.6396648E-004  0.1558887E+03  0.7546771E-02  0.1193632E+00
          1   -1    0    0  501    0  0.00000000000E+00  0.00000000000E+00  0.54178540667E+03  0.54178540667E+03  0.00000000000E+00 0. -1.
         -1   -1    0    0    0  501 -0.00000000000E+00 -0.00000000000E+00 -0.45807741981E+02  0.45807741981E+02  0.00000000000E+00 0.  1.
         23    2    1    2    0    0 -0.10611285797E+01  0.12566821294E+03  0.20058840199E+03  0.25359299641E+03  0.90994917865E+02 0.  0.
         23    2    1    2    0    0  0.10611285797E+01 -0.12566821294E+03  0.29538926270E+03  0.33400015224E+03  0.92236974382E+02 0.  0.
          5    1    3    3  502    0  0.30099954890E+02  0.42949857670E+02  0.28024292971E+02  0.59650218397E+02  0.47000000000E+01 0. -1.
         -5    1    4    4    0  503  0.22368220623E+02 -0.19082693778E+02  0.14708687631E+03  0.15007040241E+03  0.47000000000E+01 0.  1.
          5    1    4    4  503    0 -0.21307092043E+02 -0.10658551916E+03  0.14830238638E+03  0.18392974983E+03  0.47000000000E+01 0. -1.
         -5    1    3    3    0  502 -0.31161083469E+02  0.82718355268E+02  0.17256410902E+03  0.19394277801E+03  0.47000000000E+01 0.  1.
<mgrwt>
<rscale>  0 0.15570545E+03</rscale>
<asrwt>0</asrwt>
<pdfrwt beam="1">  1        1 0.83351596E-01 0.15588869E+03</pdfrwt>
<pdfrwt beam="2">  1       -1 0.70473453E-02 0.15588869E+03</pdfrwt>
<totfact> 0.41301081E+03</totfact>
</mgrwt>
</event>
<event>
 8    1  0.6396648E-004  0.9390437E+02  0.7546771E-02  0.1296847E+00
          1   -1    0    0  501    0  0.00000000000E+00  0.00000000000E+00  0.59417725783E+02  0.59417725783E+02  0.00000000000E+00 0. -1.
         -1   -1    0    0    0  501 -0.00000000000E+00 -0.00000000000E+00 -0.17347714060E+03  0.17347714060E+03  0.00000000000E+00 0.  1.
         23    2    1    2    0    0  0.29269626524E+01  0.38789282968E+01 -0.72590528652E+01  0.94184519187E+02  0.93778550910E+02 0.  0.
         23    2    1    2    0    0 -0.29269626524E+01 -0.38789282968E+01 -0.10680036196E+03  0.13871034720E+03  0.88377768196E+02 0.  0.
          5    1    3    3  502    0  0.76380400780E+01 -0.44333281476E+02 -0.39183110087E+01  0.45400690125E+02  0.47000000000E+01 0. -1.
         -5    1    3    3    0  502 -0.47110774256E+01  0.48212209773E+02 -0.33407418565E+01  0.48783829061E+02  0.47000000000E+01 0.  1.
          5    1    4    4  503    0 -0.30724061314E+02  0.37849930409E+01 -0.36742497102E+01  0.31525929437E+02  0.47000000000E+01 0. -1.
         -5    1    4    4    0  503  0.27797098661E+02 -0.76639213377E+01 -0.10312611225E+03  0.10718441776E+03  0.47000000000E+01 0.  1.
<mgrwt>
<rscale>  0 0.92526038E+02</rscale>
<asrwt>0</asrwt>
<pdfrwt beam="1">  1        1 0.91411887E-02 0.93904365E+02</pdfrwt>
<pdfrwt beam="2">  1       -1 0.26688791E-01 0.93904365E+02</pdfrwt>
<totfact> 0.82600331E+03</totfact>
</mgrwt>
</event>
<event>
 8    1  0.6396648E-004  0.1084494E+03  0.7546771E-02  0.1268583E+00
         -1   -1    0    0    0  501 -0.00000000000E+00  0.00000000000E+00  0.22367649564E+03  0.22367649564E+03  0.00000000000E+00 0.  1.
          1   -1    0    0  501    0  0.00000000000E+00 -0.00000000000E+00 -0.18718517570E+03  0.18718517570E+03  0.00000000000E+00 0. -1.
         23    2    1    2    0    0 -0.44267507301E+02 -0.52989280248E+01  0.19574483886E+03  0.22377962088E+03  0.98861448204E+02 0.  0.
         23    2    1    2    0    0  0.44267507301E+02  0.52989280248E+01 -0.15925351892E+03  0.18708205046E+03  0.87466104727E+02 0.  0.
          5    1    4    4  502    0 -0.10331577234E+02  0.34031951429E+02 -0.50275906483E+02  0.61763030843E+02  0.47000000000E+01 0. -1.
         -5    1    3    3    0  503 -0.73983516918E+02 -0.15350247211E+02  0.15121533642E+03  0.16910753630E+03  0.47000000000E+01 0.  1.
          5    1    3    3  503    0  0.29716009617E+02  0.10051319186E+02  0.44529502439E+02  0.54672084581E+02  0.47000000000E+01 0. -1.
         -5    1    4    4    0  502  0.54599084535E+02 -0.28733023404E+02 -0.10897761244E+03  0.12531901962E+03  0.47000000000E+01 0.  1.
<mgrwt>
<rscale>  0 0.10578372E+03</rscale>
<asrwt>0</asrwt>
<pdfrwt beam="1">  1        1 0.28797719E-01 0.10844942E+03</pdfrwt>
<pdfrwt beam="2">  1       -1 0.34411769E-01 0.10844942E+03</pdfrwt>
<totfact> 0.12594100E+03</totfact>
</mgrwt>
</event>
<event>
 8    1  0.6396648E-004  0.1180777E+03  0.7546771E-02  0.1251731E+00
          1   -1    0    0  501    0  0.00000000000E+00  0.00000000000E+00  0.22623812311E+02  0.22623812311E+02  0.00000000000E+00 0. -1.
         -1   -1    0    0    0  501 -0.00000000000E+00 -0.00000000000E+00 -0.61271721457E+03  0.61271721457E+03  0.00000000000E+00 0.  1.
         23    2    1    2    0    0 -0.18695378413E+01  0.37859948301E+01 -0.18274068548E+03  0.21122008360E+03  0.10583920190E+03 0.  0.
         23    2    1    2    0    0  0.18695378413E+01 -0.37859948301E+01 -0.40735271678E+03  0.42412094328E+03  0.11800215986E+03 0.  0.
          5    1    3    3  502    0  0.44023443158E+02  0.69598103764E+01 -0.14425941540E+03  0.15106082034E+03  0.47000000000E+01 0. -1.
         -5    1    3    3    0  502 -0.45892980999E+02 -0.31738155463E+01 -0.38481270076E+02  0.60159263267E+02  0.47000000000E+01 0.  1.
          5    1    4    4  503    0  0.49653024016E+02  0.13998021625E+02 -0.10090470392E+03  0.11342493852E+03  0.47000000000E+01 0. -1.
         -5    1    4    4    0  503 -0.47783486175E+02 -0.17784016455E+02 -0.30644801286E+03  0.31069600476E+03  0.47000000000E+01 0.  1.
<mgrwt>
<rscale>  0 0.11491424E+03</rscale>
<asrwt>0</asrwt>
<pdfrwt beam="1">  1        1 0.34805872E-02 0.11807768E+03</pdfrwt>
<pdfrwt beam="2">  1       -1 0.94264169E-01 0.11807768E+03</pdfrwt>
<totfact> 0.30331668E+03</totfact>
</mgrwt>
</event>
<event>
 8    1  0.6396648E-004  0.9399044E+02  0.7546771E-02  0.1294675E+00
          1   -1    0    0  501    0  0.00000000000E+00  0.00000000000E+00  0.57749265472E+03  0.57749265472E+03  0.00000000000E+00 0. -1.
         -1   -1    0    0    0  501 -0.00000000000E+00 -0.00000000000E+00 -0.46582694264E+02  0.46582694264E+02  0.00000000000E+00 0.  1.
         23    2    1    2    0    0 -0.12566217899E+01  0.16592502881E+02  0.93200405025E+01  0.94451398195E+02  0.92505746935E+02 0.  0.
         23    2    1    2    0    0  0.12566217899E+01 -0.16592502881E+02  0.52158991995E+03  0.52962395079E+03  0.90380276623E+02 0.  0.
          5    1    3    3  502    0 -0.26859776931E+02 -0.27744927086E+02  0.17023790553E+02  0.42463255181E+02  0.47000000000E+01 0. -1.
         -5    1    3    3    0  502  0.25603155141E+02  0.44337429967E+02 -0.77037500505E+01  0.51988143014E+02  0.47000000000E+01 0.  1.
          5    1    4    4  503    0  0.40637196374E+02 -0.20408201981E+01  0.14506425401E+03  0.15073577700E+03  0.47000000000E+01 0. -1.
         -5    1    4    4    0  503 -0.39380574584E+02 -0.14551682683E+02  0.37652566595E+03  0.37888817379E+03  0.47000000000E+01 0.  1.
<mgrwt>
<rscale>  0 0.93463243E+02</rscale>
<asrwt>0</asrwt>
<pdfrwt beam="1">  1        1 0.88845019E-01 0.93990443E+02</pdfrwt>
<pdfrwt beam="2">  1       -1 0.71665687E-02 0.93990443E+02</pdfrwt>
<totfact> 0.36141505E+03</totfact>
</mgrwt>
</event>
<event>
 8    1  0.6396648E-004  0.1421152E+03  0.7546771E-02  0.1210518E+00
         -1   -1    0    0    0  501 -0.00000000000E+00  0.00000000000E+00  0.10837773261E+03  0.10837773261E+03  0.00000000000E+00 0.  1.
          1   -1    0    0  501    0  0.00000000000E+00 -0.00000000000E+00 -0.41339803608E+03  0.41339803608E+03  0.00000000000E+00 0. -1.
         23    2    1    2    0    0 -0.10708332675E+03 -0.17251383227E+02  0.40837340026E+02  0.14786622485E+03  0.91827463324E+02 0.  0.
         23    2    1    2    0    0  0.10708332675E+03  0.17251383227E+02 -0.34585764350E+03  0.37390954385E+03  0.91795361125E+02 0.  0.
          5    1    3    3  502    0 -0.83450650968E+02 -0.50049913337E+02  0.12379759965E+02  0.98205669026E+02  0.47000000000E+01 0. -1.
         -5    1    3    3    0  502 -0.23632675779E+02  0.32798530110E+02  0.28457580061E+02  0.49660555824E+02  0.47000000000E+01 0.  1.
          5    1    4    4  503    0  0.71804125664E+02  0.16254267760E+02 -0.32364027505E+03  0.33194148779E+03  0.47000000000E+01 0. -1.
         -5    1    4    4    0  503  0.35279201083E+02  0.99711546645E+00 -0.22217368446E+02  0.41968056055E+02  0.47000000000E+01 0.  1.
<mgrwt>
<rscale>  0 0.14211002E+03</rscale>
<asrwt>0</asrwt>
<pdfrwt beam="1">  1        1 0.63599697E-01 0.14211521E+03</pdfrwt>
<pdfrwt beam="2">  1       -1 0.16673498E-01 0.14211521E+03</pdfrwt>
<totfact> 0.15535162E+03</totfact>
</mgrwt>
</event>
<event>
 8    1  0.6396648E-004  0.1042109E+03  0.7546771E-02  0.1274273E+00
          1   -1    0    0  501    0  0.00000000000E+00  0.00000000000E+00  0.36505475948E+03  0.36505475948E+03  0.00000000000E+00 0. -1.
         -1   -1    0    0    0  501 -0.00000000000E+00 -0.00000000000E+00 -0.37583336245E+02  0.37583336245E+02  0.00000000000E+00 0.  1.
         23    2    1    2    0    0 -0.38871675846E+02  0.30986593778E+02  0.66883609606E+02  0.12382781081E+03  0.91590028487E+02 0.  0.
         23    2    1    2    0    0  0.38871675846E+02 -0.30986593778E+02  0.26058781363E+03  0.27881028492E+03  0.85778728057E+02 0.  0.
          5    1    3    3  502    0 -0.30226789619E+02 -0.46663061322E+01  0.79051307272E+02  0.84891886568E+02  0.47000000000E+01 0. -1.
         -5    1    4    4    0  503  0.32760367444E+02  0.20448923521E+02  0.59381004146E+02  0.70990096504E+02  0.47000000000E+01 0.  1.
          5    1    4    4  503    0  0.61113084018E+01 -0.51435517299E+02  0.20120680948E+03  0.20782018842E+03  0.47000000000E+01 0. -1.
         -5    1    3    3    0  502 -0.86448862264E+01  0.35652899910E+02 -0.12167697666E+02  0.38935924239E+02  0.47000000000E+01 0.  1.
<mgrwt>
<rscale>  0 0.10291991E+03</rscale>
<asrwt>0</asrwt>
<pdfrwt beam="1">  1        1 0.56162268E-01 0.10421089E+03</pdfrwt>
<pdfrwt beam="2">  1       -1 0.57820520E-02 0.10421089E+03</pdfrwt>
<totfact> 0.89702414E+03</totfact>
</mgrwt>
</event>
<event>
 8    1  0.6396648E-004  0.1743043E+03  0.7546771E-02  0.1176745E+00
          1   -1    0    0  501    0  0.00000000000E+00  0.00000000000E+00  0.14762738083E+04  0.14762738083E+04  0.00000000000E+00 0. -1.
         -1   -1    0    0    0  501 -0.00000000000E+00 -0.00000000000E+00 -0.23885664690E+02  0.23885664690E+02  0.00000000000E+00 0.  1.
         23    2    1    2    0    0 -0.11025131678E+02  0.13189219584E+03  0.36944916346E+03  0.40328262822E+03  0.92882124187E+02 0.  0.
         23    2    1    2    0    0  0.11025131678E+02 -0.13189219584E+03  0.10829389801E+04  0.10968768447E+04  0.11342342353E+03 0.  0.
          5    1    4    4  502    0  0.49773129391E+02 -0.26687776729E+02  0.50294019404E+03  0.50612303901E+03  0.47000000000E+01 0. -1.
         -5    1    3    3    0  503  0.26703499370E+01  0.11315060648E+03  0.18221625178E+03  0.21455778459E+03  0.47000000000E+01 0.  1.
          5    1    3    3  503    0 -0.13695481615E+02  0.18741589359E+02  0.18723291168E+03  0.18872484363E+03  0.47000000000E+01 0. -1.
         -5    1    4    4    0  502 -0.38747997713E+02 -0.10520441911E+03  0.57999878608E+03  0.59075380573E+03  0.47000000000E+01 0.  1.
<mgrwt>
<rscale>  0 0.17106175E+03</rscale>
<asrwt>0</asrwt>
<pdfrwt beam="1">  1        1 0.22711898E+00 0.17430427E+03</pdfrwt>
<pdfrwt beam="2">  1       -1 0.36747188E-02 0.17430427E+03</pdfrwt>
<totfact> 0.20699550E+03</totfact>
</mgrwt>
</event>
<event>
 8    1  0.6396648E-004  0.9303370E+02  0.7546771E-02  0.1299545E+00
         -1   -1    0    0    0  501 -0.00000000000E+00  0.00000000000E+00  0.42759695002E+02  0.42759695002E+02  0.00000000000E+00 0.  1.
          1   -1    0    0  501    0  0.00000000000E+00 -0.00000000000E+00 -0.19775871084E+03  0.19775871084E+03  0.00000000000E+00 0. -1.
         23    2    1    2    0    0 -0.10367229839E+02  0.21043014559E+02 -0.49043659098E+02  0.99515542494E+02  0.83353312974E+02 0.  0.
         23    2    1    2    0    0  0.10367229839E+02 -0.21043014559E+02 -0.10595535674E+03  0.14100286335E+03  0.90027673158E+02 0.  0.
          5    1    4    4  502    0  0.50170655194E+02 -0.95817957414E+01 -0.56056181311E+02  0.75982174985E+02  0.47000000000E+01 0. -1.
         -5    1    3    3    0  503 -0.14298288092E+02 -0.19865363663E+02 -0.52389527337E+02  0.58015741747E+02  0.47000000000E+01 0.  1.
          5    1    3    3  503    0  0.39310582526E+01  0.40908378222E+02  0.33458682386E+01  0.41499800747E+02  0.47000000000E+01 0. -1.
         -5    1    4    4    0  502 -0.39803425355E+02 -0.11461218817E+02 -0.49899175426E+02  0.65020688361E+02  0.47000000000E+01 0.  1.
<mgrwt>
<rscale>  0 0.91379518E+02</rscale>
<asrwt>0</asrwt>
<pdfrwt beam="1">  1        1 0.30424417E-01 0.93033703E+02</pdfrwt>
<pdfrwt beam="2">  1       -1 0.65784146E-02 0.93033703E+02</pdfrwt>
<totfact> 0.15563293E+04</totfact>
</mgrwt>
</event>
<event>
 8    1  0.6396648E-004  0.1418731E+03  0.7546771E-02  0.1211756E+00
          1   -1    0    0  501    0  0.00000000000E+00  0.00000000000E+00  0.46134943757E+03  0.46134943757E+03  0.00000000000E+00 0. -1.
         -1   -1    0    0    0  501 -0.00000000000E+00 -0.00000000000E+00 -0.44236980603E+02  0.44236980603E+02  0.00000000000E+00 0.  1.
         23    2    1    2    0    0 -0.41445452568E+01  0.10786181897E+03  0.16070927962E+03  0.21254962085E+03  0.87741207670E+02 0.  0.
         23    2    1    2    0    0  0.41445452568E+01 -0.10786181897E+03  0.25640317735E+03  0.29303679732E+03  0.92068593902E+02 0.  0.
          5    1    4    4  502    0 -0.27051805998E+02 -0.21860308735E+02  0.14306613607E+03  0.14730812129E+03  0.47000000000E+01 0. -1.
         -5    1    4    4    0  502  0.31196351255E+02 -0.86001510230E+02  0.11333704127E+03  0.14572867603E+03  0.47000000000E+01 0.  1.
          5    1    3    3  503    0 -0.19941080693E+02 -0.43579665717E+01  0.49287877460E+02  0.53553930167E+02  0.47000000000E+01 0. -1.
         -5    1    3    3    0  503  0.15796535436E+02  0.11221978554E+03  0.11142140216E+03  0.15899569069E+03  0.47000000000E+01 0.  1.
<mgrwt>
<rscale>  0 0.14117565E+03</rscale>
<asrwt>0</asrwt>
<pdfrwt beam="1">  1        1 0.70976833E-01 0.14187310E+03</pdfrwt>
<pdfrwt beam="2">  1       -1 0.68056896E-02 0.14187310E+03</pdfrwt>
<totfact> 0.53467382E+03</totfact>
</mgrwt>
</event>
<event>
 8    1  0.6396648E-004  0.1204425E+03  0.7546771E-02  0.1242879E+00
          1   -1    0    0  501    0  0.00000000000E+00  0.00000000000E+00  0.57987442177E+02  0.57987442177E+02  0.00000000000E+00 0. -1.
         -1   -1    0    0    0  501 -0.00000000000E+00 -0.00000000000E+00 -0.25032566259E+03  0.25032566259E+03  0.00000000000E+00 0.  1.
         23    2    1    2    0    0 -0.58656325404E+02  0.54099319063E+02 -0.80579325127E+02  0.14491178803E+03  0.90216948743E+02 0.  0.
         23    2    1    2    0    0  0.58656325404E+02 -0.54099319063E+02 -0.11175889529E+03  0.16340131674E+03  0.88558674346E+02 0.  0.
          5    1    3    3  502    0 -0.24056842317E+02 -0.72426323160E+01  0.12211192411E+02  0.28326500052E+02  0.47000000000E+01 0. -1.
         -5    1    4    4    0  503  0.37629492685E+02  0.83300462921E+01 -0.82475873361E+02  0.91157709918E+02  0.47000000000E+01 0.  1.
          5    1    4    4  503    0  0.21026832719E+02 -0.62429365355E+02 -0.29283021929E+02  0.72243606818E+02  0.47000000000E+01 0. -1.
         -5    1    3    3    0  502 -0.34599483087E+02  0.61341951379E+02 -0.92790517539E+02  0.11658528798E+03  0.47000000000E+01 0.  1.
<mgrwt>
<rscale>  0 0.12013205E+03</rscale>
<asrwt>0</asrwt>
<pdfrwt beam="1">  1        1 0.89211447E-02 0.12044251E+03</pdfrwt>
<pdfrwt beam="2">  1       -1 0.38511641E-01 0.12044251E+03</pdfrwt>
<totfact> 0.46892288E+03</totfact>
</mgrwt>
</event>
<event>
 8    1  0.6396648E-004  0.1152936E+03  0.7546771E-02  0.1259424E+00
          1   -1    0    0  501    0  0.00000000000E+00  0.00000000000E+00  0.20709396678E+03  0.20709396678E+03  0.00000000000E+00 0. -1.
         -1   -1    0    0    0  501 -0.00000000000E+00 -0.00000000000E+00 -0.68606208428E+02  0.68606208428E+02  0.00000000000E+00 0.  1.
         23    2    1    2    0    0 -0.25069873205E+01  0.31024671410E+02  0.29437544211E+01  0.97754109011E+02  0.92619570917E+02 0.  0.
         23    2    1    2    0    0  0.25069873205E+01 -0.31024671410E+02  0.13554400393E+03  0.17794606620E+03  0.11101265807E+03 0.  0.
          5    1    3    3  502    0 -0.16276204284E+01  0.61240751445E+02 -0.13665904053E+02  0.62943829876E+02  0.47000000000E+01 0. -1.
         -5    1    4    4    0  503 -0.50516645010E+02  0.47993509370E+01  0.55241312918E+02  0.75157553482E+02  0.47000000000E+01 0.  1.
          5    1    4    4  503    0  0.53023632330E+02 -0.35824022347E+02  0.80302691016E+02  0.10278851272E+03  0.47000000000E+01 0. -1.
         -5    1    3    3    0  502 -0.87936689215E+00 -0.30216080035E+02  0.16609658475E+02  0.34810279135E+02  0.47000000000E+01 0.  1.
<mgrwt>
<rscale>  0 0.11062124E+03</rscale>
<asrwt>0</asrwt>
<pdfrwt beam="1">  1        1 0.31860610E-01 0.11529365E+03</pdfrwt>
<pdfrwt beam="2">  1       -1 0.10554801E-01 0.11529365E+03</pdfrwt>
<totfact> 0.73681170E+03</totfact>
</mgrwt>
</event>
<event>
 8    1  0.6396648E-004  0.1134658E+03  0.7546771E-02  0.1261534E+00
          2   -1    0    0  501    0  0.00000000000E+00  0.00000000000E+00  0.30718093726E+02  0.30718093726E+02  0.00000000000E+00 0. -1.
         -2   -1    0    0    0  501 -0.00000000000E+00 -0.00000000000E+00 -0.46779655948E+03  0.46779655948E+03  0.00000000000E+00 0.  1.
         23    2    1    2    0    0 -0.16386579128E+02  0.31406732376E+02 -0.11417696493E+03  0.16096850127E+03  0.10779413837E+03 0.  0.
         23    2    1    2    0    0  0.16386579128E+02 -0.31406732376E+02 -0.32290150082E+03  0.33754615193E+03  0.91744877993E+02 0.  0.
          5    1    3    3  502    0  0.34684915866E+02 -0.12675936953E+02 -0.72582427149E+02  0.81572185806E+02  0.47000000000E+01 0. -1.
         -5    1    4    4    0  503  0.22134183806E+02  0.29321214412E+02 -0.13025319453E+03  0.13541654402E+03  0.47000000000E+01 0.  1.
          5    1    4    4  503    0 -0.57476046783E+01 -0.60727946787E+02 -0.19264830629E+03  0.20212960792E+03  0.47000000000E+01 0. -1.
         -5    1    3    3    0  502 -0.51071494994E+02  0.44082669328E+02 -0.41594537779E+02  0.79396315463E+02  0.47000000000E+01 0.  1.
<mgrwt>
<rscale>  0 0.10948089E+03</rscale>
<asrwt>0</asrwt>
<pdfrwt beam="1">  1        2 0.47258605E-02 0.11346576E+03</pdfrwt>
<pdfrwt beam="2">  1       -2 0.71968703E-01 0.11346576E+03</pdfrwt>
<totfact> 0.28728412E+03</totfact>
</mgrwt>
</event>
<event>
 8    1  0.6396648E-004  0.1297928E+03  0.7546771E-02  0.1228445E+00
         -1   -1    0    0    0  501 -0.00000000000E+00  0.00000000000E+00  0.11921262901E+02  0.11921262901E+02  0.00000000000E+00 0.  1.
          1   -1    0    0  501    0  0.00000000000E+00 -0.00000000000E+00 -0.14323743922E+04  0.14323743922E+04  0.00000000000E+00 0. -1.
         23    2    1    2    0    0 -0.18354606203E+02  0.87555487901E+02 -0.82448463085E+03  0.83435744850E+03  0.91512787776E+02 0.  0.
         23    2    1    2    0    0  0.18354606203E+02 -0.87555487901E+02 -0.59596849848E+03  0.60993820663E+03  0.94038873344E+02 0.  0.
          5    1    3    3  502    0 -0.44453773840E+02  0.78407636231E+02 -0.73648524662E+03  0.74199494872E+03  0.47000000000E+01 0. -1.
         -5    1    4    4    0  503  0.49001015689E+02 -0.68429009318E+02 -0.29610418217E+03  0.30786913706E+03  0.47000000000E+01 0.  1.
          5    1    4    4  503    0 -0.30646409487E+02 -0.19126478583E+02 -0.29986431630E+03  0.30206906957E+03  0.47000000000E+01 0. -1.
         -5    1    3    3    0  502  0.26099167638E+02  0.91478516694E+01 -0.87999384225E+02  0.92362499780E+02  0.47000000000E+01 0.  1.
<mgrwt>
<rscale>  0 0.12933577E+03</rscale>
<asrwt>0</asrwt>
<pdfrwt beam="1">  1        1 0.22036538E+00 0.12979278E+03</pdfrwt>
<pdfrwt beam="2">  1       -1 0.18340397E-02 0.12979278E+03</pdfrwt>
<totfact> 0.60432517E+03</totfact>
</mgrwt>
</event>
<event>
 8    1  0.6396648E-004  0.1221973E+03  0.7546771E-02  0.1240412E+00
          2   -1    0    0  501    0  0.00000000000E+00  0.00000000000E+00  0.55337070191E+03  0.55337070191E+03  0.00000000000E+00 0. -1.
         -2   -1    0    0    0  501 -0.00000000000E+00 -0.00000000000E+00 -0.45154936906E+02  0.45154936906E+02  0.00000000000E+00 0.  1.
         23    2    1    2    0    0 -0.68638237175E+02 -0.42049378702E+02  0.44510150649E+03  0.46099172419E+03  0.88986857691E+02 0.  0.
         23    2    1    2    0    0  0.68638237175E+02  0.42049378702E+02  0.63114258518E+02  0.13753391463E+03  0.91939165717E+02 0.  0.
          5    1    3    3  502    0 -0.47770175654E+02 -0.69417114963E+02  0.28893023746E+03  0.30100414889E+03  0.47000000000E+01 0. -1.
         -5    1    4    4    0  503  0.51445775184E+02  0.63704672528E+02  0.17310521451E+02  0.83825397340E+02  0.47000000000E+01 0.  1.
          5    1    4    4  503    0  0.17192461990E+02 -0.21655293826E+02  0.45803737066E+02  0.53708517287E+02  0.47000000000E+01 0. -1.
         -5    1    3    3    0  502 -0.20868061520E+02  0.27367736261E+02  0.15617126903E+03  0.15998757530E+03  0.47000000000E+01 0.  1.
<mgrwt>
<rscale>  0 0.12164210E+03</rscale>
<asrwt>0</asrwt>
<pdfrwt beam="1">  1        2 0.85133949E-01 0.12219725E+03</pdfrwt>
<pdfrwt beam="2">  1       -2 0.69469138E-02 0.12219725E+03</pdfrwt>
<totfact> 0.62493354E+03</totfact>
</mgrwt>
</event>
<event>
 8    1  0.6396648E-004  0.1014008E+03  0.7546771E-02  0.1278215E+00
         -3   -1    0    0    0  501 -0.00000000000E+00  0.00000000000E+00  0.10273707642E+04  0.10273707642E+04  0.00000000000E+00 0.  1.
          3   -1    0    0  501    0  0.00000000000E+00 -0.00000000000E+00 -0.14387231880E+02  0.14387231880E+02  0.00000000000E+00 0. -1.
         23    2    1    2    0    0 -0.21314317489E+02 -0.36922562295E+02  0.80176711862E+03  0.80815384262E+03  0.92002962433E+02 0.  0.
         23    2    1    2    0    0  0.21314317489E+02  0.36922562295E+02  0.21121641371E+03  0.23360415348E+03  0.90227220749E+02 0.  0.
          5    1    3    3  502    0 -0.55616134489E+02 -0.88514682729E+01  0.41625461071E+03  0.42007320058E+03  0.47000000000E+01 0. -1.
         -5    1    4    4    0  503  0.45902293815E+02  0.23469352653E+02  0.57866461635E+02  0.77643083875E+02  0.47000000000E+01 0.  1.
          5    1    4    4  503    0 -0.24587976327E+02  0.13453209642E+02  0.15334995208E+03  0.15596106960E+03  0.47000000000E+01 0. -1.
         -5    1    3    3    0  502  0.34301817000E+02 -0.28071094022E+02  0.38551250791E+03  0.38808064204E+03  0.47000000000E+01 0.  1.
<mgrwt>
<rscale>  0 0.10099629E+03</rscale>
<asrwt>0</asrwt>
<pdfrwt beam="1">  1        3 0.22134211E-02 0.10140079E+03</pdfrwt>
<pdfrwt beam="2">  1       -3 0.15805698E+00 0.10140079E+03</pdfrwt>
<totfact> 0.54440359E+02</totfact>
</mgrwt>
</event>
<event>
 8    1  0.6396648E-004  0.9228773E+02  0.7546771E-02  0.1297828E+00
          2   -1    0    0  501    0  0.00000000000E+00  0.00000000000E+00  0.60531854016E+02  0.60531854016E+02  0.00000000000E+00 0. -1.
         -2   -1    0    0    0  501 -0.00000000000E+00 -0.00000000000E+00 -0.21856156695E+03  0.21856156695E+03  0.00000000000E+00 0.  1.
         23    2    1    2    0    0 -0.11367583237E+02  0.59701198123E+01  0.46600090393E+01  0.92405311636E+02  0.91390161698E+02 0.  0.
         23    2    1    2    0    0  0.11367583237E+02 -0.59701198123E+01 -0.16268972197E+03  0.18668810933E+03  0.90662231664E+02 0.  0.
          5    1    3    3  502    0 -0.20169406708E+02  0.43254923629E+02 -0.13397298007E+02  0.49793282468E+02  0.47000000000E+01 0. -1.
         -5    1    3    3    0  502  0.88018234701E+01 -0.37284803817E+02  0.18057307046E+02  0.42612029168E+02  0.47000000000E+01 0.  1.
          5    1    4    4  503    0 -0.28209340787E+02 -0.32463091240E+02 -0.86480112058E+02  0.96698081584E+02  0.47000000000E+01 0. -1.
         -5    1    4    4    0  503  0.39576924024E+02  0.26492971428E+02 -0.76209609915E+02  0.89990027746E+02  0.47000000000E+01 0.  1.
<mgrwt>
<rscale>  0 0.92107006E+02</rscale>
<asrwt>0</asrwt>
<pdfrwt beam="1">  1        2 0.93125929E-02 0.92287734E+02</pdfrwt>
<pdfrwt beam="2">  1       -2 0.33624857E-01 0.92287734E+02</pdfrwt>
<totfact> 0.53443562E+03</totfact>
</mgrwt>
</event>
<event>
 8    1  0.6396648E-004  0.9726830E+02  0.7546771E-02  0.1288099E+00
          2   -1    0    0  501    0  0.00000000000E+00  0.00000000000E+00  0.15248766145E+03  0.15248766145E+03  0.00000000000E+00 0. -1.
         -2   -1    0    0    0  501 -0.00000000000E+00 -0.00000000000E+00 -0.62626487517E+02  0.62626487517E+02  0.00000000000E+00 0.  1.
         23    2    1    2    0    0 -0.26438922041E+02 -0.82334656729E+01  0.68448600110E+02  0.11893836148E+03  0.93243318358E+02 0.  0.
         23    2    1    2    0    0  0.26438922041E+02  0.82334656729E+01  0.21412573824E+02  0.96175787490E+02  0.89579446448E+02 0.  0.
          5    1    4    4  502    0  0.33660375327E+02 -0.18252312516E+02  0.45287531677E+02  0.59491329660E+02  0.47000000000E+01 0. -1.
         -5    1    4    4    0  502 -0.72214532866E+01  0.26485778189E+02 -0.23874957853E+02  0.36684457830E+02  0.47000000000E+01 0.  1.
          5    1    3    3  503    0  0.27672718930E+02 -0.13599222936E+02 -0.25844546119E+00  0.31190944704E+02  0.47000000000E+01 0. -1.
         -5    1    3    3    0  503 -0.54111640970E+02  0.53657572632E+01  0.68707045571E+02  0.87747416775E+02  0.47000000000E+01 0.  1.
<mgrwt>
<rscale>  0 0.96379583E+02</rscale>
<asrwt>0</asrwt>
<pdfrwt beam="1">  1        2 0.23459640E-01 0.97268304E+02</pdfrwt>
<pdfrwt beam="2">  1       -2 0.96348443E-02 0.97268304E+02</pdfrwt>
<totfact> 0.14733210E+04</totfact>
</mgrwt>
</event>
<event>
 8    1  0.6396648E-004  0.9998336E+02  0.7546771E-02  0.1280582E+00
         -1   -1    0    0    0  501 -0.00000000000E+00  0.00000000000E+00  0.33909218312E+02  0.33909218312E+02  0.00000000000E+00 0.  1.
          1   -1    0    0  501    0  0.00000000000E+00 -0.00000000000E+00 -0.38621390539E+03  0.38621390539E+03  0.00000000000E+00 0. -1.
         23    2    1    2    0    0  0.36961845673E+02 -0.16732471240E+02 -0.27944528794E+03  0.29679343040E+03  0.91381167347E+02 0.  0.
         23    2    1    2    0    0 -0.36961845673E+02  0.16732471240E+02 -0.72859399137E+02  0.12332969330E+03  0.90860153963E+02 0.  0.
          5    1    3    3  502    0 -0.25632142223E+02 -0.22963754906E+02 -0.71477770682E+02  0.79470135623E+02  0.47000000000E+01 0. -1.
         -5    1    3    3    0  502  0.62593987896E+02  0.62312836658E+01 -0.20796751726E+03  0.21732329477E+03  0.47000000000E+01 0.  1.
          5    1    4    4  503    0 -0.54119427119E+02  0.41435296463E+02 -0.57152395311E+02  0.89074589387E+02  0.47000000000E+01 0. -1.
         -5    1    4    4    0  503  0.17157581446E+02 -0.24702825223E+02 -0.15707003826E+02  0.34255103916E+02  0.47000000000E+01 0.  1.
<mgrwt>
<rscale>  0 0.99864152E+02</rscale>
<asrwt>0</asrwt>
<pdfrwt beam="1">  1        1 0.59417527E-01 0.99983355E+02</pdfrwt>
<pdfrwt beam="2">  1       -1 0.52168026E-02 0.99983355E+02</pdfrwt>
<totfact> 0.97010627E+03</totfact>
</mgrwt>
</event>
<event>
 8    1  0.6396648E-004  0.9531518E+02  0.7546771E-02  0.1291283E+00
         -1   -1    0    0    0  501 -0.00000000000E+00  0.00000000000E+00  0.62694209581E+03  0.62694209581E+03  0.00000000000E+00 0.  1.
          1   -1    0    0  501    0  0.00000000000E+00 -0.00000000000E+00 -0.24812457211E+02  0.24812457211E+02  0.00000000000E+00 0. -1.
         23    2    1    2    0    0  0.13734120528E+02  0.11021537106E+02  0.87356129410E+02  0.12823115369E+03  0.92206480702E+02 0.  0.
         23    2    1    2    0    0 -0.13734120528E+02 -0.11021537106E+02  0.51477350919E+03  0.52352339934E+03  0.93674348362E+02 0.  0.
          5    1    3    3  502    0 -0.12533652943E+02 -0.22799660932E+02  0.80345352453E+02  0.84583583842E+02  0.47000000000E+01 0. -1.
         -5    1    4    4    0  503  0.35313294583E+02 -0.25594761278E+02  0.24690725985E+03  0.25077361414E+03  0.47000000000E+01 0.  1.
          5    1    4    4  503    0 -0.49047415112E+02  0.14573224172E+02  0.26786624934E+03  0.27274978520E+03  0.47000000000E+01 0. -1.
         -5    1    3    3    0  502  0.26267773471E+02  0.33821198038E+02  0.70107769571E+01  0.43647569845E+02  0.47000000000E+01 0.  1.
<mgrwt>
<rscale>  0 0.94952566E+02</rscale>
<asrwt>0</asrwt>
<pdfrwt beam="1">  1        1 0.38173016E-02 0.95315182E+02</pdfrwt>
<pdfrwt beam="2">  1       -1 0.96452618E-01 0.95315182E+02</pdfrwt>
<totfact> 0.25104048E+03</totfact>
</mgrwt>
</event>
<event>
 8    1  0.6396648E-004  0.1413449E+03  0.7546771E-02  0.1224255E+00
          2   -1    0    0  501    0  0.00000000000E+00  0.00000000000E+00  0.24996229402E+02  0.24996229402E+02  0.00000000000E+00 0. -1.
         -2   -1    0    0    0  501 -0.00000000000E+00 -0.00000000000E+00 -0.69037033282E+03  0.69037033282E+03  0.00000000000E+00 0.  1.
         23    2    1    2    0    0 -0.42918135595E+02 -0.42671212606E+02 -0.48404103088E+03  0.50425597514E+03  0.12773241618E+03 0.  0.
         23    2    1    2    0    0  0.42918135595E+02  0.42671212606E+02 -0.18133307254E+03  0.21111058708E+03  0.89572306174E+02 0.  0.
          5    1    4    4  502    0  0.49967320908E+02 -0.11905980585E+02 -0.71391843151E+02  0.88075937695E+02  0.47000000000E+01 0. -1.
         -5    1    4    4    0  502 -0.70491853132E+01  0.54577193191E+02 -0.10994122939E+03  0.12303464938E+03  0.47000000000E+01 0.  1.
          5    1    3    3  503    0  0.44829802513E+02 -0.19621956401E+02 -0.13825788164E+03  0.14673808028E+03  0.47000000000E+01 0. -1.
         -5    1    3    3    0  503 -0.87747938108E+02 -0.23049256205E+02 -0.34578314924E+03  0.35751789487E+03  0.47000000000E+01 0. -1.
<mgrwt>
<rscale>  0 0.13218076E+03</rscale>
<asrwt>0</asrwt>
<pdfrwt beam="1">  1        2 0.38455733E-02 0.14134486E+03</pdfrwt>
<pdfrwt beam="2">  1       -2 0.10621083E+00 0.14134486E+03</pdfrwt>
<totfact> 0.16053966E+03</totfact>
</mgrwt>
</event>
<event>
 8    1  0.6396648E-004  0.1274407E+03  0.7546771E-02  0.1232878E+00
         -3   -1    0    0    0  501 -0.00000000000E+00  0.00000000000E+00  0.17092247417E+03  0.17092247417E+03  0.00000000000E+00 0.  1.
          3   -1    0    0  501    0  0.00000000000E+00 -0.00000000000E+00 -0.96160319851E+02  0.96160319851E+02  0.00000000000E+00 0. -1.
         23    2    1    2    0    0  0.36788724996E+02 -0.81980107686E+02  0.90819049297E+01  0.12371252043E+03  0.84546782149E+02 0.  0.
         23    2    1    2    0    0 -0.36788724996E+02  0.81980107686E+02  0.65680249387E+02  0.14337027358E+03  0.90371410552E+02 0.  0.
          5    1    4    4  502    0 -0.17089318165E+02 -0.12874627675E+02 -0.60601874166E+01  0.22729203784E+02  0.47000000000E+01 0. -1.
         -5    1    3    3    0  503  0.52824652403E+02 -0.68027316523E+02  0.32094657791E+02  0.92034323779E+02  0.47000000000E+01 0.  1.
          5    1    3    3  503    0 -0.16035927407E+02 -0.13952791163E+02 -0.23012752861E+02  0.31678196654E+02  0.47000000000E+01 0. -1.
         -5    1    4    4    0  502 -0.19699406831E+02  0.94854735361E+02  0.71740436804E+02  0.12064106980E+03  0.47000000000E+01 0.  1.
<mgrwt>
<rscale>  0 0.12641286E+03</rscale>
<asrwt>0</asrwt>
<pdfrwt beam="1">  1        3 0.14793895E-01 0.12744073E+03</pdfrwt>
<pdfrwt beam="2">  1       -3 0.26295765E-01 0.12744073E+03</pdfrwt>
<totfact> 0.11865912E+03</totfact>
</mgrwt>
</event>
<event>
 8    1  0.6396648E-004  0.9342568E+02  0.7546771E-02  0.1296514E+00
         -3   -1    0    0    0  501 -0.00000000000E+00  0.00000000000E+00  0.81472688982E+02  0.81472688982E+02  0.00000000000E+00 0.  1.
          3   -1    0    0  501    0  0.00000000000E+00 -0.00000000000E+00 -0.32936645818E+03  0.32936645818E+03  0.00000000000E+00 0. -1.
         23    2    1    2    0    0 -0.31950994175E+01 -0.90744671526E+01  0.46703110972E+02  0.10178303579E+03  0.89922473191E+02 0.  0.
         23    2    1    2    0    0  0.31950994175E+01  0.90744671526E+01 -0.29459688017E+03  0.30905611138E+03  0.92929024313E+02 0.  0.
          5    1    3    3  502    0 -0.33880908602E+02  0.12250127559E+02 -0.61849140011E+01  0.36855457589E+02  0.47000000000E+01 0. -1.
         -5    1    4    4    0  503  0.10173480488E+02 -0.31948925454E+02 -0.46899417230E+02  0.57843572498E+02  0.47000000000E+01 0.  1.
          5    1    4    4  503    0 -0.69783810703E+01  0.41023392606E+02 -0.24769746294E+03  0.25121253888E+03  0.47000000000E+01 0. -1.
         -5    1    3    3    0  502  0.30685809184E+02 -0.21324594712E+02  0.52888024973E+02  0.64927578196E+02  0.47000000000E+01 0.  1.
<mgrwt>
<rscale>  0 0.92669030E+02</rscale>
<asrwt>0</asrwt>
<pdfrwt beam="1">  1        3 0.50671765E-01 0.93425683E+02</pdfrwt>
<pdfrwt beam="2">  1       -3 0.12534259E-01 0.93425683E+02</pdfrwt>
<totfact> 0.43077782E+02</totfact>
</mgrwt>
</event>
<event>
 8    1  0.6396648E-004  0.1232054E+03  0.7546771E-02  0.1238236E+00
          2   -1    0    0  501    0  0.00000000000E+00  0.00000000000E+00  0.74858403536E+03  0.74858403536E+03  0.00000000000E+00 0. -1.
         -2   -1    0    0    0  501 -0.00000000000E+00 -0.00000000000E+00 -0.20155304062E+02  0.20155304062E+02  0.00000000000E+00 0.  1.
         23    2    1    2    0    0  0.68787984854E+01  0.80800869912E+02  0.35485602877E+03  0.37563597007E+03  0.92754958961E+02 0.  0.
         23    2    1    2    0    0 -0.68787984854E+01 -0.80800869912E+02  0.37357270253E+03  0.39310336935E+03  0.91638400635E+02 0.  0.
          5    1    3    3  502    0  0.38531731985E+02  0.48402346244E+02  0.28889754164E+03  0.29548495910E+03  0.47000000000E+01 0. -1.
         -5    1    4    4    0  503 -0.31472311740E+02 -0.80249284655E+02  0.34240563889E+03  0.35312061061E+03  0.47000000000E+01 0.  1.
          5    1    4    4  503    0  0.24593513254E+02 -0.55158525636E+00  0.31167063642E+02  0.39982758741E+02  0.47000000000E+01 0. -1.
         -5    1    3    3    0  502 -0.31652933500E+02  0.32398523668E+02  0.65958487135E+02  0.80151010973E+02  0.47000000000E+01 0.  1.
<mgrwt>
<rscale>  0 0.12299531E+03</rscale>
<asrwt>0</asrwt>
<pdfrwt beam="1">  1        2 0.11516675E+00 0.12320544E+03</pdfrwt>
<pdfrwt beam="2">  1       -2 0.31008166E-02 0.12320544E+03</pdfrwt>
<totfact> 0.14710571E+04</totfact>
</mgrwt>
</event>
<event>
 8    1  0.6396648E-004  0.9461288E+02  0.7546771E-02  0.1294463E+00
          1   -1    0    0  501    0  0.00000000000E+00  0.00000000000E+00  0.21640965717E+02  0.21640965717E+02  0.00000000000E+00 0. -1.
         -1   -1    0    0    0  501 -0.00000000000E+00 -0.00000000000E+00 -0.42600465064E+03  0.42600465064E+03  0.00000000000E+00 0.  1.
         23    2    1    2    0    0 -0.51822935734E+01  0.14407420307E+02 -0.13823570649E+03  0.16519969670E+03  0.89148187395E+02 0.  0.
         23    2    1    2    0    0  0.51822935734E+01 -0.14407420307E+02 -0.26612797844E+03  0.28244591966E+03  0.93365768336E+02 0.  0.
          5    1    3    3  502    0  0.19666640019E+02 -0.31811369402E+02 -0.54370760500E+02  0.66158971805E+02  0.47000000000E+01 0. -1.
         -5    1    4    4    0  503  0.39278491113E+02  0.13882742474E+02 -0.18695555694E+03  0.19159854037E+03  0.47000000000E+01 0.  1.
          5    1    4    4  503    0 -0.34096197539E+02 -0.28290162781E+02 -0.79172421502E+02  0.90847379287E+02  0.47000000000E+01 0. -1.
         -5    1    3    3    0  502 -0.24848933592E+02  0.46218789709E+02 -0.83864945986E+02  0.99040724896E+02  0.47000000000E+01 0.  1.
<mgrwt>
<rscale>  0 0.93555428E+02</rscale>
<asrwt>0</asrwt>
<pdfrwt beam="1">  1        1 0.33293794E-02 0.94612878E+02</pdfrwt>
<pdfrwt beam="2">  1       -1 0.65539175E-01 0.94612878E+02</pdfrwt>
<totfact> 0.66229109E+03</totfact>
</mgrwt>
</event>
<event>
 8    1  0.6396648E-004  0.3047120E+03  0.7546771E-02  0.1082916E+00
          2   -1    0    0  501    0  0.00000000000E+00  0.00000000000E+00  0.20143565264E+04  0.20143565264E+04  0.00000000000E+00 0. -1.
         -2   -1    0    0    0  501 -0.00000000000E+00 -0.00000000000E+00 -0.46127123612E+02  0.46127123612E+02  0.00000000000E+00 0.  1.
         23    2    1    2    0    0 -0.29017556726E+03  0.16347730873E+02  0.95304695384E+03  0.10005737952E+04  0.91544061692E+02 0.  0.
         23    2    1    2    0    0  0.29017556726E+03 -0.16347730873E+02  0.10151824490E+04  0.10599098548E+04  0.91347619475E+02 0.  0.
          5    1    3    3  502    0 -0.24935903284E+03 -0.16758715098E+02  0.82633527906E+03  0.86331504401E+03  0.47000000000E+01 0. -1.
         -5    1    3    3    0  502 -0.40816534425E+02  0.33106445971E+02  0.12671167477E+03  0.13725875116E+03  0.47000000000E+01 0.  1.
          5    1    4    4  503    0  0.14716374275E+03  0.36978096861E+02  0.52212390107E+03  0.54374626886E+03  0.47000000000E+01 0. -1.
         -5    1    4    4    0  503  0.14301182452E+03 -0.53325827734E+02  0.49305854788E+03  0.51616358598E+03  0.47000000000E+01 0.  1.
<mgrwt>
<rscale>  0 0.30469729E+03</rscale>
<asrwt>0</asrwt>
<pdfrwt beam="1">  1        2 0.30990094E+00 0.30471203E+03</pdfrwt>
<pdfrwt beam="2">  1       -2 0.70964821E-02 0.30471203E+03</pdfrwt>
<totfact> 0.82972113E+02</totfact>
</mgrwt>
</event>
<event>
 8    1  0.6396648E-004  0.1036067E+03  0.7546771E-02  0.1274633E+00
          2   -1    0    0  501    0  0.00000000000E+00  0.00000000000E+00  0.44866791828E+03  0.44866791828E+03  0.00000000000E+00 0. -1.
         -2   -1    0    0    0  501 -0.00000000000E+00 -0.00000000000E+00 -0.24529833806E+02  0.24529833806E+02  0.00000000000E+00 0.  1.
         23    2    1    2    0    0 -0.84386030010E+01 -0.41789613994E+02  0.15917004906E+03  0.18991959203E+03  0.94428624146E+02 0.  0.
         23    2    1    2    0    0  0.84386030010E+01  0.41789613994E+02  0.26496803541E+03  0.28327816006E+03  0.90669037270E+02 0.  0.
          5    1    3    3  502    0  0.24075519469E+01  0.29640526540E+02  0.34855049837E+02  0.46057807363E+02  0.47000000000E+01 0.  1.
         -5    1    3    3    0  502 -0.10846154948E+02 -0.71430140534E+02  0.12431499923E+03  0.14386178466E+03  0.47000000000E+01 0. -1.
          5    1    4    4  503    0 -0.36776539478E+02 -0.72985652970E+00  0.11747132493E+03  0.12318542416E+03  0.47000000000E+01 0. -1.
         -5    1    4    4    0  503  0.45215142479E+02  0.42519470524E+02  0.14749671048E+03  0.16009273590E+03  0.47000000000E+01 0.  1.
<mgrwt>
<rscale>  0 0.10274229E+03</rscale>
<asrwt>0</asrwt>
<pdfrwt beam="1">  1        2 0.69025828E-01 0.10360669E+03</pdfrwt>
<pdfrwt beam="2">  1       -2 0.37738209E-02 0.10360669E+03</pdfrwt>
<totfact> 0.19336035E+04</totfact>
</mgrwt>
</event>
<event>
 8    1  0.6396648E-004  0.1681218E+03  0.7546771E-02  0.1180605E+00
         -1   -1    0    0    0  501 -0.00000000000E+00  0.00000000000E+00  0.38019006128E+03  0.38019006128E+03  0.00000000000E+00 0.  1.
          1   -1    0    0  501    0  0.00000000000E+00 -0.00000000000E+00 -0.76417996747E+02  0.76417996747E+02  0.00000000000E+00 0. -1.
         23    2    1    2    0    0  0.10206823584E+03 -0.94367071818E+02  0.19852633050E+03  0.25826089784E+03  0.89235186095E+02 0.  0.
         23    2    1    2    0    0 -0.10206823584E+03  0.94367071818E+02  0.10524573403E+03  0.19834716020E+03  0.94561421383E+02 0.  0.
          5    1    3    3  502    0  0.10798970727E+03 -0.48623467949E+02  0.14949764091E+03  0.19078168976E+03  0.47000000000E+01 0. -1.
         -5    1    4    4    0  503 -0.54347805222E+02  0.92552897637E+02  0.10519871633E+03  0.15036150674E+03  0.47000000000E+01 0.  1.
          5    1    4    4  503    0 -0.47720430619E+02  0.18141741809E+01  0.47017706317E-01  0.47985653451E+02  0.47000000000E+01 0. -1.
         -5    1    3    3    0  502 -0.59214714308E+01 -0.45743603869E+02  0.49028689597E+02  0.67479208075E+02  0.47000000000E+01 0.  1.
<mgrwt>
<rscale>  0 0.16738265E+03</rscale>
<asrwt>0</asrwt>
<pdfrwt beam="1">  1        1 0.11756615E-01 0.16812178E+03</pdfrwt>
<pdfrwt beam="2">  1       -1 0.58490778E-01 0.16812178E+03</pdfrwt>
<totfact> 0.15507312E+03</totfact>
</mgrwt>
</event>
<event>
 8    1  0.6396648E-004  0.9449759E+02  0.7546771E-02  0.1293193E+00
         -2   -1    0    0    0  501 -0.00000000000E+00  0.00000000000E+00  0.24243904591E+02  0.24243904591E+02  0.00000000000E+00 0.  1.
          2   -1    0    0  501    0  0.00000000000E+00 -0.00000000000E+00 -0.58528225934E+03  0.58528225934E+03  0.00000000000E+00 0. -1.
         23    2    1    2    0    0  0.17157595327E+02  0.50276678594E+01 -0.46717722750E+03  0.47633567552E+03  0.91222000366E+02 0.  0.
         23    2    1    2    0    0 -0.17157595327E+02 -0.50276678594E+01 -0.93861127246E+02  0.13319048842E+03  0.92790810294E+02 0.  0.
          5    1    4    4  502    0  0.12467720430E+02 -0.34900501625E+02 -0.80586574686E+02  0.88824405914E+02  0.47000000000E+01 0. -1.
         -5    1    4    4    0  502 -0.29625315756E+02  0.29872833766E+02 -0.13274552560E+02  0.44366082502E+02  0.47000000000E+01 0.  1.
          5    1    3    3  503    0  0.83893676446E+01 -0.41056251385E+02 -0.28751204528E+03  0.29058778957E+03  0.47000000000E+01 0. -1.
         -5    1    3    3    0  503  0.87682276821E+01  0.46083919244E+02 -0.17966518223E+03  0.18574788595E+03  0.47000000000E+01 0.  1.
<mgrwt>
<rscale>  0 0.94110217E+02</rscale>
<asrwt>0</asrwt>
<pdfrwt beam="1">  1        2 0.90043421E-01 0.94497593E+02</pdfrwt>
<pdfrwt beam="2">  1       -2 0.37298316E-02 0.94497593E+02</pdfrwt>
<totfact> 0.14601579E+04</totfact>
</mgrwt>
</event>
<event>
 8    1  0.6396648E-004  0.1240961E+03  0.7546771E-02  0.1236763E+00
          2   -1    0    0  501    0  0.00000000000E+00  0.00000000000E+00  0.22488353276E+03  0.22488353276E+03  0.00000000000E+00 0.  1.
         -2   -1    0    0    0  501 -0.00000000000E+00 -0.00000000000E+00 -0.69930165035E+02  0.69930165035E+02  0.00000000000E+00 0. -1.
         23    2    1    2    0    0 -0.27225258535E+02  0.79066343111E+02  0.10113385019E+03  0.15954960415E+03  0.90748659587E+02 0.  0.
         23    2    1    2    0    0  0.27225258535E+02 -0.79066343111E+02  0.53819517537E+02  0.13526409364E+03  0.91690420683E+02 0.  0.
          5    1    3    3  502    0 -0.42439725289E+02  0.14330160677E+02  0.91695514702E+01  0.45963621070E+02  0.47000000000E+01 0. -1.
         -5    1    3    3    0  502  0.15214466755E+02  0.64736182434E+02  0.91964298717E+02  0.11358598308E+03  0.47000000000E+01 0.  1.
          5    1    4    4  503    0 -0.43628328665E+01 -0.38825457328E+02 -0.20923423455E+02  0.44568263332E+02  0.47000000000E+01 0. -1.
         -5    1    4    4    0  503  0.31588091401E+02 -0.40240885783E+02  0.74742940992E+02  0.90695830308E+02  0.47000000000E+01 0.  1.
<mgrwt>
<rscale>  0 0.12392215E+03</rscale>
<asrwt>0</asrwt>
<pdfrwt beam="1">  1        2 0.34597466E-01 0.12409607E+03</pdfrwt>
<pdfrwt beam="2">  1       -2 0.10758487E-01 0.12409607E+03</pdfrwt>
<totfact> 0.83160899E+03</totfact>
</mgrwt>
</event>
<event>
 8    1  0.6396648E-004  0.9519670E+02  0.7546771E-02  0.1293268E+00
         -1   -1    0    0    0  501 -0.00000000000E+00  0.00000000000E+00  0.37791193171E+02  0.37791193171E+02  0.00000000000E+00 0.  1.
          1   -1    0    0  501    0  0.00000000000E+00 -0.00000000000E+00 -0.22937678864E+03  0.22937678864E+03  0.00000000000E+00 0. -1.
         23    2    1    2    0    0 -0.23063986909E+01 -0.20868526542E+01 -0.91630774030E+02  0.13213103681E+03  0.95145875956E+02 0.  0.
         23    2    1    2    0    0  0.23063986909E+01  0.20868526542E+01 -0.99954821442E+02  0.13503694500E+03  0.90743240830E+02 0.  0.
          5    1    4    4  502    0  0.57715412489E+01  0.39608241038E+02 -0.85286679489E+02  0.94329375831E+02  0.47000000000E+01 0. -1.
         -5    1    4    4    0  502 -0.34651425580E+01 -0.37521388384E+02 -0.14668141953E+02  0.40707569168E+02  0.47000000000E+01 0.  1.
          5    1    3    3  503    0  0.35516630968E+02  0.13841695972E+02 -0.80742334982E+02  0.89411622740E+02  0.47000000000E+01 0. -1.
         -5    1    3    3    0  503 -0.37823029659E+02 -0.15928548626E+02 -0.10888439048E+02  0.42719414074E+02  0.47000000000E+01 0.  1.
<mgrwt>
<rscale>  0 0.94077061E+02</rscale>
<asrwt>0</asrwt>
<pdfrwt beam="1">  1        1 0.35288737E-01 0.95196702E+02</pdfrwt>
<pdfrwt beam="2">  1       -1 0.58140296E-02 0.95196702E+02</pdfrwt>
<totfact> 0.15607993E+04</totfact>
</mgrwt>
</event>
<event>
 8    1  0.6396648E-004  0.1004097E+03  0.7546771E-02  0.1279472E+00
         -1   -1    0    0    0  501 -0.00000000000E+00  0.00000000000E+00  0.19932689160E+03  0.19932689160E+03  0.00000000000E+00 0.  1.
          1   -1    0    0  501    0  0.00000000000E+00 -0.00000000000E+00 -0.28662495083E+03  0.28662495083E+03  0.00000000000E+00 0. -1.
         23    2    1    2    0    0  0.39431271267E+02 -0.15952975944E+02  0.17686647500E+03  0.20334786363E+03  0.90880586882E+02 0.  0.
         23    2    1    2    0    0 -0.39431271267E+02  0.15952975944E+02 -0.26416453423E+03  0.28260397879E+03  0.90954851929E+02 0.  0.
          5    1    4    4  502    0 -0.71132231712E+01  0.27784428308E+02 -0.23628080260E+03  0.23806150482E+03  0.47000000000E+01 0. -1.
         -5    1    3    3    0  503  0.55883776731E+02 -0.39725194448E+02  0.14240108325E+03  0.15811782343E+03  0.47000000000E+01 0.  1.
          5    1    3    3  503    0 -0.16452505464E+02  0.23772218504E+02  0.34465391743E+02  0.45230040201E+02  0.47000000000E+01 0. -1.
         -5    1    4    4    0  502 -0.32318048096E+02 -0.11831452364E+02 -0.27883731624E+02  0.44542473966E+02  0.47000000000E+01 0.  1.
<mgrwt>
<rscale>  0 0.10039288E+03</rscale>
<asrwt>0</asrwt>
<pdfrwt beam="1">  1        1 0.44096146E-01 0.10040970E+03</pdfrwt>
<pdfrwt beam="2">  1       -1 0.30665676E-01 0.10040970E+03</pdfrwt>
<totfact> 0.90455875E+02</totfact>
</mgrwt>
</event>
<event>
 8    1  0.6396648E-004  0.1055899E+03  0.7546771E-02  0.1270034E+00
         -1   -1    0    0    0  501 -0.00000000000E+00  0.00000000000E+00  0.40415184101E+02  0.40415184101E+02  0.00000000000E+00 0.  1.
          1   -1    0    0  501    0  0.00000000000E+00 -0.00000000000E+00 -0.44012489148E+03  0.44012489148E+03  0.00000000000E+00 0. -1.
         23    2    1    2    0    0  0.47551516274E+02 -0.12772198118E+02 -0.35040427210E+03  0.36596772419E+03  0.93407416742E+02 0.  0.
         23    2    1    2    0    0 -0.47551516274E+02  0.12772198118E+02 -0.49305435286E+02  0.11457235139E+03  0.90947908222E+02 0.  0.
          5    1    4    4  502    0 -0.73669171508E+02  0.13301692708E+02 -0.45577230955E+02  0.87769333148E+02  0.47000000000E+01 0. -1.
         -5    1    4    4    0  502  0.26117655234E+02 -0.52949458929E+00 -0.37282043302E+01  0.26803018244E+02  0.47000000000E+01 0.  1.
          5    1    3    3  503    0 -0.16007432069E+02  0.25559310973E+02 -0.12200540982E+03  0.12576536202E+03  0.47000000000E+01 0. -1.
         -5    1    3    3    0  503  0.63558948343E+02 -0.38331509091E+02 -0.22839886227E+03  0.24020236217E+03  0.47000000000E+01 0.  1.
<mgrwt>
<rscale>  0 0.10504330E+03</rscale>
<asrwt>0</asrwt>
<pdfrwt beam="1">  1        1 0.67711518E-01 0.10558987E+03</pdfrwt>
<pdfrwt beam="2">  1       -1 0.62177210E-02 0.10558987E+03</pdfrwt>
<totfact> 0.63826495E+03</totfact>
</mgrwt>
</event>
<event>
 8    1  0.6396648E-004  0.1095437E+03  0.7546771E-02  0.1262313E+00
         -2   -1    0    0    0  501 -0.00000000000E+00  0.00000000000E+00  0.38145766305E+02  0.38145766305E+02  0.00000000000E+00 0.  1.
          2   -1    0    0  501    0  0.00000000000E+00 -0.00000000000E+00 -0.35227117203E+03  0.35227117203E+03  0.00000000000E+00 0. -1.
         23    2    1    2    0    0  0.57480962151E+02  0.11574061712E+02 -0.87539247749E+02  0.13874034220E+03  0.90264847775E+02 0.  0.
         23    2    1    2    0    0 -0.57480962151E+02 -0.11574061712E+02 -0.22658615797E+03  0.25167659613E+03  0.92530006700E+02 0.  0.
          5    1    4    4  502    0 -0.35451822570E+02 -0.51081205510E+02 -0.10858762956E+03  0.12521774864E+03  0.47000000000E+01 0. -1.
         -5    1    3    3    0  503  0.23053590051E+02 -0.16145870607E+02  0.11045647122E+02  0.30598259301E+02  0.47000000000E+01 0.  1.
          5    1    3    3  503    0  0.34427372099E+02  0.27719932319E+02 -0.98584894871E+02  0.10814208290E+03  0.47000000000E+01 0. -1.
         -5    1    4    4    0  502 -0.22029139581E+02  0.39507143798E+02 -0.11799852841E+03  0.12645884749E+03  0.47000000000E+01 0.  1.
<mgrwt>
<rscale>  0 0.10906393E+03</rscale>
<asrwt>0</asrwt>
<pdfrwt beam="1">  1        2 0.54195565E-01 0.10954370E+03</pdfrwt>
<pdfrwt beam="2">  1       -2 0.58685794E-02 0.10954370E+03</pdfrwt>
<totfact> 0.13020478E+04</totfact>
</mgrwt>
</event>
<event>
 8    1  0.6396648E-004  0.9216878E+02  0.7546771E-02  0.1298799E+00
          1   -1    0    0  501    0  0.00000000000E+00  0.00000000000E+00  0.12071591933E+04  0.12071591933E+04  0.00000000000E+00 0. -1.
         -1   -1    0    0    0  501 -0.00000000000E+00 -0.00000000000E+00 -0.72554179927E+01  0.72554179927E+01  0.00000000000E+00 0.  1.
         23    2    1    2    0    0 -0.20845720195E+02  0.42820760449E+01  0.45861335693E+03  0.46741623840E+03  0.87743082583E+02 0.  0.
         23    2    1    2    0    0  0.20845720195E+02 -0.42820760449E+01  0.74129041838E+03  0.74699837289E+03  0.89678339070E+02 0.  0.
          5    1    3    3  502    0  0.93169299260E+01  0.41006625281E+02  0.23172297672E+03  0.23555461456E+03  0.47000000000E+01 0. -1.
         -5    1    3    3    0  502 -0.30162650121E+02 -0.36724549236E+02  0.22689038021E+03  0.23186162384E+03  0.47000000000E+01 0.  1.
          5    1    4    4  503    0 -0.24994709611E+02  0.24542498290E+02  0.21217564228E+03  0.21509919319E+03  0.47000000000E+01 0. -1.
         -5    1    4    4    0  503  0.45840429806E+02 -0.28824574334E+02  0.52911477610E+03  0.53189917971E+03  0.47000000000E+01 0.  1.
<mgrwt>
<rscale>  0 0.91694673E+02</rscale>
<asrwt>0</asrwt>
<pdfrwt beam="1">  1        1 0.18571664E+00 0.92168784E+02</pdfrwt>
<pdfrwt beam="2">  1       -1 0.11162191E-02 0.92168784E+02</pdfrwt>
<totfact> 0.16945321E+04</totfact>
</mgrwt>
</event>
<event>
 8    1  0.6396648E-004  0.1300902E+03  0.7546771E-02  0.1229006E+00
         -1   -1    0    0    0  501 -0.00000000000E+00  0.00000000000E+00  0.32674665692E+03  0.32674665692E+03  0.00000000000E+00 0.  1.
          1   -1    0    0  501    0  0.00000000000E+00 -0.00000000000E+00 -0.53459812079E+02  0.53459812079E+02  0.00000000000E+00 0. -1.
         23    2    1    2    0    0  0.81783964735E+02  0.25226165692E+02  0.18699330782E+03  0.22779368845E+03  0.97971888851E+02 0.  0.
         23    2    1    2    0    0 -0.81783964735E+02 -0.25226165692E+02  0.86293537015E+02  0.15241278054E+03  0.91967955393E+02 0.  0.
          5    1    3    3  502    0  0.20177009733E+02 -0.36355260991E+02  0.47838042315E+02  0.63556156398E+02  0.47000000000E+01 0. -1.
         -5    1    3    3    0  502  0.61606955002E+02  0.61581426684E+02  0.13915526551E+03  0.16423753205E+03  0.47000000000E+01 0.  1.
          5    1    4    4  503    0 -0.93327701017E+02 -0.69095078152E+01  0.41582001040E+02  0.10251318884E+03  0.47000000000E+01 0. -1.
         -5    1    4    4    0  503  0.11543736282E+02 -0.18316657877E+02  0.44711535974E+02  0.49899591705E+02  0.47000000000E+01 0.  1.
<mgrwt>
<rscale>  0 0.12896073E+03</rscale>
<asrwt>0</asrwt>
<pdfrwt beam="1">  1        1 0.82245867E-02 0.13009023E+03</pdfrwt>
<pdfrwt beam="2">  1       -1 0.50268715E-01 0.13009023E+03</pdfrwt>
<totfact> 0.32690562E+03</totfact>
</mgrwt>
</event>
<event>
 8    1  0.6396648E-004  0.1560073E+03  0.7546771E-02  0.1193382E+00
         -1   -1    0    0    0  501 -0.00000000000E+00  0.00000000000E+00  0.50503652997E+03  0.50503652997E+03  0.00000000000E+00 0.  1.
          1   -1    0    0  501    0  0.00000000000E+00 -0.00000000000E+00 -0.73078422910E+02  0.73078422910E+02  0.00000000000E+00 0. -1.
         23    2    1    2    0    0  0.68550378825E+02  0.10442430060E+03  0.38487133377E+03  0.41515657719E+03  0.92873306312E+02 0.  0.
         23    2    1    2    0    0 -0.68550378825E+02 -0.10442430060E+03  0.47086773285E+02  0.16295837569E+03  0.93459504585E+02 0.  0.
          5    1    3    3  502    0  0.37731773575E+02  0.27707857894E+02  0.44158595006E+02  0.64525062101E+02  0.47000000000E+01 0. -1.
         -5    1    3    3    0  502  0.30818605251E+02  0.76716442708E+02  0.34071273877E+03  0.35063151508E+03  0.47000000000E+01 0.  1.
          5    1    4    4  503    0 -0.55135927061E+02 -0.20181593410E+02  0.50312284951E+02  0.77464076722E+02  0.47000000000E+01 0. -1.
         -5    1    4    4    0  503 -0.13414451764E+02 -0.84242707193E+02 -0.32255116661E+01  0.85494298972E+02  0.47000000000E+01 0.  1.
<mgrwt>
<rscale>  0 0.15591958E+03</rscale>
<asrwt>0</asrwt>
<pdfrwt beam="1">  1        1 0.11242835E-01 0.15600727E+03</pdfrwt>
<pdfrwt beam="2">  1       -1 0.77697926E-01 0.15600727E+03</pdfrwt>
<totfact> 0.94000698E+02</totfact>
</mgrwt>
</event>
<event>
 8    1  0.6396648E-004  0.9699720E+02  0.7546771E-02  0.1287332E+00
         -1   -1    0    0    0  501 -0.00000000000E+00  0.00000000000E+00  0.64877666351E+02  0.64877666351E+02  0.00000000000E+00 0.  1.
          1   -1    0    0  501    0  0.00000000000E+00 -0.00000000000E+00 -0.14660834041E+03  0.14660834041E+03  0.00000000000E+00 0. -1.
         23    2    1    2    0    0  0.52061276197E+01 -0.25002898698E+02 -0.25484640389E+02  0.10028919755E+03  0.93574609494E+02 0.  0.
         23    2    1    2    0    0 -0.52061276197E+01  0.25002898698E+02 -0.56246033671E+02  0.11119680921E+03  0.92460074445E+02 0.  0.
          5    1    3    3  502    0  0.13177183784E+02 -0.58127466398E+02 -0.27560159111E+02  0.65833827875E+02  0.47000000000E+01 0. -1.
         -5    1    3    3    0  502 -0.79710561643E+01  0.33124567700E+02  0.20755187222E+01  0.34455369679E+02  0.47000000000E+01 0.  1.
          5    1    4    4  503    0  0.42162671470E+02  0.22361121628E+02 -0.32536876225E+02  0.57952126280E+02  0.47000000000E+01 0. -1.
         -5    1    4    4    0  503 -0.47368799090E+02  0.26417770704E+01 -0.23709157446E+02  0.53244682928E+02  0.47000000000E+01 0.  1.
<mgrwt>
<rscale>  0 0.96727384E+02</rscale>
<asrwt>0</asrwt>
<pdfrwt beam="1">  1        1 0.22555129E-01 0.96997197E+02</pdfrwt>
<pdfrwt beam="2">  1       -1 0.99811795E-02 0.96997197E+02</pdfrwt>
<totfact> 0.12134873E+04</totfact>
</mgrwt>
</event>
<event>
 8    1  0.6396648E-004  0.9694775E+02  0.7546771E-02  0.1288495E+00
         -3   -1    0    0    0  501 -0.00000000000E+00  0.00000000000E+00  0.26041903839E+03  0.26041903839E+03  0.00000000000E+00 0.  1.
          3   -1    0    0  501    0  0.00000000000E+00 -0.00000000000E+00 -0.47506056790E+02  0.47506056790E+02  0.00000000000E+00 0. -1.
         23    2    1    2    0    0  0.15490376374E+02 -0.20491566511E+02  0.18665803002E+03  0.21033327511E+03  0.93482674271E+02 0.  0.
         23    2    1    2    0    0 -0.15490376374E+02  0.20491566511E+02  0.26254951582E+02  0.97591820074E+02  0.90415622569E+02 0.  0.
          5    1    3    3  502    0 -0.23411092945E+02 -0.39288365269E+02  0.54984927772E+02  0.71673476269E+02  0.47000000000E+01 0. -1.
         -5    1    3    3    0  502  0.38901469319E+02  0.18796798758E+02  0.13167310225E+03  0.13865979884E+03  0.47000000000E+01 0.  1.
          5    1    4    4  503    0 -0.28203108204E+02 -0.10894170538E+02  0.48110280445E+02  0.57015676340E+02  0.47000000000E+01 0. -1.
         -5    1    4    4    0  503  0.12712731830E+02  0.31385737048E+02 -0.21855328862E+02  0.40576143734E+02  0.47000000000E+01 0.  1.
<mgrwt>
<rscale>  0 0.96200681E+02</rscale>
<asrwt>0</asrwt>
<pdfrwt beam="1">  1        3 0.73086243E-02 0.96947751E+02</pdfrwt>
<pdfrwt beam="2">  1       -3 0.40064467E-01 0.96947751E+02</pdfrwt>
<totfact> 0.16532340E+03</totfact>
</mgrwt>
</event>
<event>
 8    1  0.6396648E-004  0.1138990E+03  0.7546771E-02  0.1256092E+00
          1   -1    0    0  501    0  0.00000000000E+00  0.00000000000E+00  0.24021152238E+03  0.24021152238E+03  0.00000000000E+00 0. -1.
         -1   -1    0    0    0  501 -0.00000000000E+00 -0.00000000000E+00 -0.55308237581E+02  0.55308237581E+02  0.00000000000E+00 0.  1.
         23    2    1    2    0    0  0.12327513898E+01  0.37539146937E+02  0.55130406461E+02  0.12653987500E+03  0.10752800109E+03 0.  0.
         23    2    1    2    0    0 -0.12327513898E+01 -0.37539146937E+02  0.12977287834E+03  0.16897988496E+03  0.10150120365E+03 0.  0.
          5    1    3    3  502    0 -0.15554353477E+02 -0.25497809258E+02  0.53100853432E+02  0.61105374758E+02  0.47000000000E+01 0. -1.
         -5    1    4    4    0  503 -0.46700399453E+02 -0.10307600725E+02  0.32208027379E+02  0.57849986771E+02  0.47000000000E+01 0.  1.
          5    1    4    4  503    0  0.45467648064E+02 -0.27231546212E+02  0.97564850959E+02  0.11112989819E+03  0.47000000000E+01 0. -1.
         -5    1    3    3    0  502  0.16787104867E+02  0.63036956195E+02  0.20295530290E+01  0.65434500240E+02  0.47000000000E+01 0.  1.
<mgrwt>
<rscale>  0 0.11245385E+03</rscale>
<asrwt>0</asrwt>
<pdfrwt beam="1">  1        1 0.36955618E-01 0.11389898E+03</pdfrwt>
<pdfrwt beam="2">  1       -1 0.85089598E-02 0.11389898E+03</pdfrwt>
<totfact> 0.84982600E+03</totfact>
</mgrwt>
</event>
<event>
 8    1  0.6396648E-004  0.1106281E+03  0.7546771E-02  0.1266326E+00
         -1   -1    0    0    0  501 -0.00000000000E+00  0.00000000000E+00  0.79227423259E+03  0.79227423259E+03  0.00000000000E+00 0.  1.
          1   -1    0    0  501    0  0.00000000000E+00 -0.00000000000E+00 -0.14519418337E+02  0.14519418337E+02  0.00000000000E+00 0. -1.
         23    2    1    2    0    0  0.34846254316E+02 -0.73762220023E+01  0.46811688230E+03  0.47798636375E+03  0.89826935484E+02 0.  0.
         23    2    1    2    0    0 -0.34846254316E+02  0.73762220023E+01  0.30963793195E+03  0.32880728718E+03  0.10473735299E+03 0.  0.
          5    1    3    3  502    0  0.40859665668E+02 -0.43402322088E+02  0.28619014364E+03  0.29236990638E+03  0.47000000000E+01 0. -1.
         -5    1    3    3    0  502 -0.60134113522E+01  0.36026100086E+02  0.18192673867E+03  0.18561645737E+03  0.47000000000E+01 0.  1.
          5    1    4    4  503    0  0.34592198190E+02 -0.36742772933E+01  0.61031849753E+02  0.70406655747E+02  0.47000000000E+01 0. -1.
         -5    1    4    4    0  503 -0.69438452505E+02  0.11050499296E+02  0.24860608220E+03  0.25840063144E+03  0.47000000000E+01 0.  1.
<mgrwt>
<rscale>  0 0.10694938E+03</rscale>
<asrwt>0</asrwt>
<pdfrwt beam="1">  1        1 0.22337573E-02 0.11062813E+03</pdfrwt>
<pdfrwt beam="2">  1       -1 0.12188831E+00 0.11062813E+03</pdfrwt>
<totfact> 0.31282070E+03</totfact>
</mgrwt>
</event>
<event>
 8    1  0.6396648E-004  0.1645917E+03  0.7546771E-02  0.1184344E+00
         -2   -1    0    0    0  501 -0.00000000000E+00  0.00000000000E+00  0.43431120340E+02  0.43431120340E+02  0.00000000000E+00 0.  1.
          2   -1    0    0  501    0  0.00000000000E+00 -0.00000000000E+00 -0.63701922360E+03  0.63701922360E+03  0.00000000000E+00 0. -1.
         23    2    1    2    0    0 -0.19626084507E+01  0.13373002492E+03 -0.36432590098E+03  0.39977969356E+03  0.95931589500E+02 0.  0.
         23    2    1    2    0    0  0.19626084507E+01 -0.13373002492E+03 -0.22926220227E+03  0.28067065037E+03  0.91253959874E+02 0.  0.
          5    1    4    4  502    0 -0.35559383183E+02 -0.32448030342E+02 -0.10725122806E+03  0.11765313564E+03  0.47000000000E+01 0. -1.
         -5    1    4    4    0  502  0.37521991634E+02 -0.10128199457E+03 -0.12201097422E+03  0.16301751474E+03  0.47000000000E+01 0.  1.
          5    1    3    3  503    0 -0.34304079161E+02  0.15654694825E+02 -0.12888738802E+03  0.13437219991E+03  0.47000000000E+01 0. -1.
         -5    1    3    3    0  503  0.32341470710E+02  0.11807533009E+03 -0.23543851296E+03  0.26540749366E+03  0.47000000000E+01 0.  1.
<mgrwt>
<rscale>  0 0.16391718E+03</rscale>
<asrwt>0</asrwt>
<pdfrwt beam="1">  1        2 0.98002951E-01 0.16459174E+03</pdfrwt>
<pdfrwt beam="2">  1       -2 0.66817113E-02 0.16459174E+03</pdfrwt>
<totfact> 0.57402369E+03</totfact>
</mgrwt>
</event>
<event>
 8    1  0.6396648E-004  0.1086003E+03  0.7546771E-02  0.1268428E+00
          4   -1    0    0  501    0  0.00000000000E+00  0.00000000000E+00  0.10455171900E+03  0.10455171900E+03  0.00000000000E+00 0. -1.
         -4   -1    0    0    0  501 -0.00000000000E+00 -0.00000000000E+00 -0.11325847047E+03  0.11325847047E+03  0.00000000000E+00 0.  1.
         23    2    1    2    0    0  0.23920271402E+02 -0.32141727813E+02  0.29957610330E+02  0.10253249272E+03  0.89499629028E+02 0.  0.
         23    2    1    2    0    0 -0.23920271402E+02  0.32141727813E+02 -0.38664361798E+02  0.11527769675E+03  0.10093931069E+03 0.  0.
          5    1    3    3  502    0  0.42459574590E+02 -0.20948351314E+02  0.52547948970E+02  0.70887416641E+02  0.47000000000E+01 0. -1.
         -5    1    3    3    0  502 -0.18539303189E+02 -0.11193376499E+02 -0.22590338640E+02  0.31645076079E+02  0.47000000000E+01 0.  1.
          5    1    4    4  503    0 -0.10325497156E+02  0.67632164110E+02 -0.34473584519E+02  0.76754436636E+02  0.47000000000E+01 0. -1.
         -5    1    4    4    0  503 -0.13594774246E+02 -0.35490436297E+02 -0.41907772783E+01  0.38523260111E+02  0.47000000000E+01 0.  1.
<mgrwt>
<rscale>  0 0.10586304E+03</rscale>
<asrwt>0</asrwt>
<pdfrwt beam="1">  1        4 0.16084880E-01 0.10860025E+03</pdfrwt>
<pdfrwt beam="2">  1       -4 0.17424380E-01 0.10860025E+03</pdfrwt>
<totfact> 0.15065400E+03</totfact>
</mgrwt>
</event>
<event>
 8    1  0.6396648E-004  0.2791805E+03  0.7546771E-02  0.1096731E+00
         -1   -1    0    0    0  501 -0.00000000000E+00  0.00000000000E+00  0.31849523626E+03  0.31849523626E+03  0.00000000000E+00 0.  1.
          1   -1    0    0  501    0  0.00000000000E+00 -0.00000000000E+00 -0.29970467294E+03  0.29970467294E+03  0.00000000000E+00 0. -1.
         23    2    1    2    0    0  0.17377440749E+03 -0.19276849934E+03  0.14617414432E+03  0.31133134909E+03  0.90570908249E+02 0.  0.
         23    2    1    2    0    0 -0.17377440749E+03  0.19276849934E+03 -0.12738358099E+03  0.30686856011E+03  0.10288098679E+03 0.  0.
          5    1    4    4  502    0 -0.13833760099E+03  0.96050503021E+02 -0.43654780606E+02  0.17404258344E+03  0.47000000000E+01 0. -1.
         -5    1    4    4    0  502 -0.35436806500E+02  0.96717996314E+02 -0.83728800388E+02  0.13282597668E+03  0.47000000000E+01 0.  1.
          5    1    3    3  503    0  0.26108763889E+02 -0.54281481928E+02  0.75843840905E+02  0.96966618150E+02  0.47000000000E+01 0. -1.
         -5    1    3    3    0  503  0.14766564360E+03 -0.13848701741E+03  0.70330303414E+02  0.21436473094E+03  0.47000000000E+01 0.  1.
<mgrwt>
<rscale>  0 0.27809969E+03</rscale>
<asrwt>0</asrwt>
<pdfrwt beam="1">  1        1 0.46108411E-01 0.27918047E+03</pdfrwt>
<pdfrwt beam="2">  1       -1 0.48999267E-01 0.27918047E+03</pdfrwt>
<totfact> 0.37630054E+02</totfact>
</mgrwt>
</event>
<event>
 8    1  0.6396648E-004  0.9555373E+02  0.7546771E-02  0.1291221E+00
         -2   -1    0    0    0  501 -0.00000000000E+00  0.00000000000E+00  0.36863741217E+02  0.36863741217E+02  0.00000000000E+00 0.  1.
          2   -1    0    0  501    0  0.00000000000E+00 -0.00000000000E+00 -0.43053739025E+03  0.43053739025E+03  0.00000000000E+00 0. -1.
         23    2    1    2    0    0  0.18463888797E+02 -0.76496396354E+01 -0.35288452277E+03  0.36559267117E+03  0.93440262329E+02 0.  0.
         23    2    1    2    0    0 -0.18463888797E+02  0.76496396354E+01 -0.40789126261E+02  0.10180846030E+03  0.91114091068E+02 0.  0.
          5    1    4    4  502    0 -0.22483792098E+02 -0.30119406449E+02 -0.49723177780E+02  0.62507471237E+02  0.47000000000E+01 0. -1.
         -5    1    4    4    0  502  0.40199033013E+01  0.37769046084E+02  0.89340515190E+01  0.39300989061E+02  0.47000000000E+01 0.  1.
          5    1    3    3  503    0  0.46668662588E+02 -0.10630829899E+02 -0.31156944903E+03  0.31525956002E+03  0.47000000000E+01 0. -1.
         -5    1    3    3    0  503 -0.28204773791E+02  0.29811902638E+01 -0.41315073739E+02  0.50333111150E+02  0.47000000000E+01 0.  1.
<mgrwt>
<rscale>  0 0.94980222E+02</rscale>
<asrwt>0</asrwt>
<pdfrwt beam="1">  1        2 0.66236524E-01 0.95553727E+02</pdfrwt>
<pdfrwt beam="2">  1       -2 0.56713446E-02 0.95553727E+02</pdfrwt>
<totfact> 0.10959848E+04</totfact>
</mgrwt>
</event>
<event>
 8    1  0.6396648E-004  0.1036397E+03  0.7546771E-02  0.1272961E+00
          2   -1    0    0  501    0  0.00000000000E+00  0.00000000000E+00  0.60081391950E+03  0.60081391950E+03  0.00000000000E+00 0. -1.
         -2   -1    0    0    0  501 -0.00000000000E+00 -0.00000000000E+00 -0.25274808569E+02  0.25274808569E+02  0.00000000000E+00 0.  1.
         23    2    1    2    0    0 -0.47011716148E+02  0.84522006034E+01  0.11814565873E+03  0.15716100115E+03  0.91976314634E+02 0.  0.
         23    2    1    2    0    0  0.47011716148E+02 -0.84522006034E+01  0.45739345220E+03  0.46892772692E+03  0.91667343217E+02 0.  0.
          5    1    4    4  502    0  0.26792394237E+02  0.39252279397E+02  0.15842584498E+03  0.16546725412E+03  0.47000000000E+01 0. -1.
         -5    1    4    4    0  502  0.20219321911E+02 -0.47704480000E+02  0.29896760721E+03  0.30346047280E+03  0.47000000000E+01 0.  1.
          5    1    3    3  503    0  0.25221981823E+02  0.80578668093E+01  0.13967869740E+02  0.30302953151E+02  0.47000000000E+01 0. -1.
         -5    1    3    3    0  503 -0.72233697971E+02  0.39433379404E+00  0.10417778899E+03  0.12685804800E+03  0.47000000000E+01 0.  1.
<mgrwt>
<rscale>  0 0.10357109E+03</rscale>
<asrwt>0</asrwt>
<pdfrwt beam="1">  1        2 0.92432900E-01 0.10363968E+03</pdfrwt>
<pdfrwt beam="2">  1       -2 0.38884325E-02 0.10363968E+03</pdfrwt>
<totfact> 0.13440687E+04</totfact>
</mgrwt>
</event>
<event>
 8    1  0.6396648E-004  0.1043022E+03  0.7546771E-02  0.1272251E+00
          2   -1    0    0  501    0  0.00000000000E+00  0.00000000000E+00  0.11933186612E+04  0.11933186612E+04  0.00000000000E+00 0. -1.
         -2   -1    0    0    0  501 -0.00000000000E+00 -0.00000000000E+00 -0.91727965415E+01  0.91727965415E+01  0.00000000000E+00 0.  1.
         23    2    1    2    0    0 -0.34557924818E+02  0.31413318753E+02  0.51049980374E+03  0.52104605311E+03  0.93262495544E+02 0.  0.
         23    2    1    2    0    0  0.34557924818E+02 -0.31413318753E+02  0.67364606095E+03  0.68144540467E+03  0.91584809586E+02 0.  0.
          5    1    3    3  502    0  0.22927066766E+02 -0.17057760272E+02  0.14027911501E+03  0.14323734737E+03  0.47000000000E+01 0. -1.
         -5    1    4    4    0  503 -0.19063124216E+02  0.11553759134E+02  0.64240044266E+02  0.68159851396E+02  0.47000000000E+01 0.  1.
          5    1    4    4  503    0  0.53621049034E+02 -0.42967077887E+02  0.60940601669E+03  0.61328555328E+03  0.47000000000E+01 0. -1.
         -5    1    3    3    0  502 -0.57484991584E+02  0.48471079025E+02  0.37022068874E+03  0.37780870573E+03  0.47000000000E+01 0.  1.
<mgrwt>
<rscale>  0 0.10392578E+03</rscale>
<asrwt>0</asrwt>
<pdfrwt beam="1">  1        2 0.18358736E+00 0.10430216E+03</pdfrwt>
<pdfrwt beam="2">  1       -2 0.14112004E-02 0.10430216E+03</pdfrwt>
<totfact> 0.24334247E+04</totfact>
</mgrwt>
</event>
<event>
 8    1  0.6396648E-004  0.9340065E+02  0.7546771E-02  0.1295202E+00
          2   -1    0    0  501    0  0.00000000000E+00  0.00000000000E+00  0.11800588308E+03  0.11800588308E+03  0.00000000000E+00 0. -1.
         -2   -1    0    0    0  501 -0.00000000000E+00 -0.00000000000E+00 -0.73725584875E+02  0.73725584875E+02  0.00000000000E+00 0.  1.
         23    2    1    2    0    0 -0.14249418216E+02  0.15748489014E+02  0.28409115640E+02  0.96991956341E+02  0.90273478484E+02 0.  0.
         23    2    1    2    0    0  0.14249418216E+02 -0.15748489014E+02  0.15871182567E+02  0.94739511616E+02  0.90953943287E+02 0.  0.
          5    1    4    4  502    0  0.37385304807E+02 -0.35968867228E+02  0.30523119945E+02  0.60375253841E+02  0.47000000000E+01 0. -1.
         -5    1    4    4    0  502 -0.23135886591E+02  0.20220378214E+02 -0.14651937378E+02  0.34364257775E+02  0.47000000000E+01 0.  1.
          5    1    3    3  503    0  0.29389467476E+02  0.17289320854E+02  0.38793993848E+02  0.51862562343E+02  0.47000000000E+01 0. -1.
         -5    1    3    3    0  503 -0.43638885692E+02 -0.15408318398E+01 -0.10384878208E+02  0.45129393998E+02  0.47000000000E+01 0.  1.
<mgrwt>
<rscale>  0 0.93234576E+02</rscale>
<asrwt>0</asrwt>
<pdfrwt beam="1">  1        2 0.18154751E-01 0.93400646E+02</pdfrwt>
<pdfrwt beam="2">  1       -2 0.11342398E-01 0.93400646E+02</pdfrwt>
<totfact> 0.15130549E+04</totfact>
</mgrwt>
</event>
<event>
 8    1  0.6396648E-004  0.1565667E+03  0.7546771E-02  0.1193830E+00
         -1   -1    0    0    0  501 -0.00000000000E+00  0.00000000000E+00  0.10857100818E+03  0.10857100818E+03  0.00000000000E+00 0.  1.
          1   -1    0    0  501    0  0.00000000000E+00 -0.00000000000E+00 -0.26302772443E+03  0.26302772443E+03  0.00000000000E+00 0. -1.
         23    2    1    2    0    0  0.99333088685E+02  0.70509769230E+02 -0.11769953363E+01  0.15249193251E+03  0.91726299924E+02 0.  0.
         23    2    1    2    0    0 -0.99333088685E+02 -0.70509769230E+02 -0.15327972091E+03  0.21910680011E+03  0.98358664827E+02 0.  0.
          5    1    4    4  502    0  0.15673406267E+02 -0.21960191011E+02 -0.10343659007E+02  0.29274339188E+02  0.47000000000E+01 0. -1.
         -5    1    3    3    0  503  0.32106607268E+02  0.60631404508E+02  0.33012404929E+02  0.76281782373E+02  0.47000000000E+01 0.  1.
          5    1    3    3  503    0  0.67226481416E+02  0.98783647217E+01 -0.34189400265E+02  0.76210150136E+02  0.47000000000E+01 0. -1.
         -5    1    4    4    0  502 -0.11500649495E+03 -0.48549578218E+02 -0.14293606191E+03  0.18983246092E+03  0.47000000000E+01 0.  1.
<mgrwt>
<rscale>  0 0.15553672E+03</rscale>
<asrwt>0</asrwt>
<pdfrwt beam="1">  1        1 0.40465803E-01 0.15656665E+03</pdfrwt>
<pdfrwt beam="2">  1       -1 0.16703232E-01 0.15656665E+03</pdfrwt>
<totfact> 0.27334709E+03</totfact>
</mgrwt>
</event>
<event>
 8    1  0.6396648E-004  0.3543074E+03  0.7546771E-02  0.1060863E+00
         -1   -1    0    0    0  501 -0.00000000000E+00  0.00000000000E+00  0.26692952777E+03  0.26692952777E+03  0.00000000000E+00 0.  1.
          1   -1    0    0  501    0  0.00000000000E+00 -0.00000000000E+00 -0.49418646037E+03  0.49418646037E+03  0.00000000000E+00 0. -1.
         23    2    1    2    0    0  0.29111299636E+03 -0.18139403456E+03 -0.19735944547E+03  0.40556690547E+03  0.88787339601E+02 0.  0.
         23    2    1    2    0    0 -0.29111299636E+03  0.18139403456E+03 -0.29897487140E+02  0.35554908268E+03  0.88717067318E+02 0.  0.
          5    1    4    4  502    0 -0.21944875749E+03  0.89006001924E+02 -0.11927724518E+02  0.23715856754E+03  0.47000000000E+01 0. -1.
         -5    1    3    3    0  503  0.13073749835E+03 -0.61980516844E+02 -0.37537943710E+02  0.14954954083E+03  0.47000000000E+01 0.  1.
          5    1    3    3  503    0  0.16037549800E+03 -0.11941351772E+03 -0.15982150176E+03  0.25601736464E+03  0.47000000000E+01 0. -1.
         -5    1    4    4    0  502 -0.71664238860E+02  0.92388032638E+02 -0.17969762622E+02  0.11839051514E+03  0.47000000000E+01 0.  1.
<mgrwt>
<rscale>  0 0.35430304E+03</rscale>
<asrwt>0</asrwt>
<pdfrwt beam="1">  1        1 0.76028686E-01 0.35430744E+03</pdfrwt>
<pdfrwt beam="2">  1       -1 0.41066082E-01 0.35430744E+03</pdfrwt>
<totfact> 0.27043356E+02</totfact>
</mgrwt>
</event>
<event>
 8    1  0.6396648E-004  0.1079504E+03  0.7546771E-02  0.1265754E+00
          1   -1    0    0  501    0  0.00000000000E+00  0.00000000000E+00  0.73804423920E+02  0.73804423920E+02  0.00000000000E+00 0. -1.
         -1   -1    0    0    0  501 -0.00000000000E+00 -0.00000000000E+00 -0.20660212641E+03  0.20660212641E+03  0.00000000000E+00 0.  1.
         23    2    1    2    0    0  0.51738980670E+02 -0.14250221936E+02  0.50899831007E+01  0.10528856040E+03  0.90442147679E+02 0.  0.
         23    2    1    2    0    0 -0.51738980670E+02  0.14250221936E+02 -0.13788768559E+03  0.17511798993E+03  0.93665925575E+02 0.  0.
          5    1    3    3  502    0  0.48479949315E+02  0.32153810506E+02  0.43913999354E+01  0.58528176197E+02  0.47000000000E+01 0. -1.
         -5    1    3    3    0  502  0.32590313552E+01 -0.46404032441E+02  0.69858316534E+00  0.46760384201E+02  0.47000000000E+01 0.  1.
          5    1    4    4  503    0 -0.45742836928E+02  0.35215408428E+02 -0.30540794322E+02  0.65477952311E+02  0.47000000000E+01 0. -1.
         -5    1    4    4    0  503 -0.59961437414E+01 -0.20965186492E+02 -0.10734689127E+03  0.10964003762E+03  0.47000000000E+01 0.  1.
<mgrwt>
<rscale>  0 0.10724735E+03</rscale>
<asrwt>0</asrwt>
<pdfrwt beam="1">  1        1 0.11354527E-01 0.10795044E+03</pdfrwt>
<pdfrwt beam="2">  1       -1 0.31784942E-01 0.10795044E+03</pdfrwt>
<totfact> 0.47011089E+03</totfact>
</mgrwt>
</event>
<event>
 8    1  0.6396648E-004  0.1177269E+03  0.7546771E-02  0.1247227E+00
          3   -1    0    0  501    0  0.00000000000E+00  0.00000000000E+00  0.45513265295E+03  0.45513265295E+03  0.00000000000E+00 0. -1.
         -3   -1    0    0    0  501 -0.00000000000E+00 -0.00000000000E+00 -0.31206372385E+02  0.31206372385E+02  0.00000000000E+00 0.  1.
         23    2    1    2    0    0  0.24731225058E+02 -0.72121853618E+02  0.16870787212E+03  0.20527665290E+03  0.88673349141E+02 0.  0.
         23    2    1    2    0    0 -0.24731225058E+02  0.72121853618E+02  0.25521840845E+03  0.28106237244E+03  0.89701872493E+02 0.  0.
          5    1    3    3  502    0 -0.80888158294E+01 -0.80796873675E+02  0.10374521333E+03  0.13182838475E+03  0.47000000000E+01 0. -1.
         -5    1    4    4    0  503  0.23163549290E+02  0.64839199832E+02  0.15331844051E+03  0.16813478536E+03  0.47000000000E+01 0.  1.
          5    1    4    4  503    0 -0.47894774348E+02  0.72826537866E+01  0.10189996795E+03  0.11292758708E+03  0.47000000000E+01 0. -1.
         -5    1    3    3    0  502  0.32820040888E+02  0.86750200570E+01  0.64962658786E+02  0.73448268144E+02  0.47000000000E+01 0.  1.
<mgrwt>
<rscale>  0 0.11753096E+03</rscale>
<asrwt>0</asrwt>
<pdfrwt beam="1">  1        3 0.70020404E-01 0.11772689E+03</pdfrwt>
<pdfrwt beam="2">  1       -3 0.48009807E-02 0.11772689E+03</pdfrwt>
<totfact> 0.10898837E+03</totfact>
</mgrwt>
</event>
<event>
 8    1  0.6396648E-004  0.9201667E+02  0.7546771E-02  0.1298763E+00
          3   -1    0    0  501    0  0.00000000000E+00  0.00000000000E+00  0.36258258959E+03  0.36258258959E+03  0.00000000000E+00 0. -1.
         -3   -1    0    0    0  501 -0.00000000000E+00 -0.00000000000E+00 -0.44680204307E+02  0.44680204307E+02  0.00000000000E+00 0.  1.
         23    2    1    2    0    0  0.35256326928E+01  0.91647470378E+01  0.30010730975E+03  0.31354122678E+03  0.90262289196E+02 0.  0.
         23    2    1    2    0    0 -0.35256326928E+01 -0.91647470378E+01  0.17795075534E+02  0.93721567119E+02  0.91491227753E+02 0.  0.
          5    1    3    3  502    0 -0.23447077015E+02 -0.32858663633E+02  0.13424678882E+03  0.14026313666E+03  0.47000000000E+01 0. -1.
         -5    1    3    3    0  502  0.26972709708E+02  0.42023410671E+02  0.16586052093E+03  0.17327809012E+03  0.47000000000E+01 0.  1.
          5    1    4    4  503    0  0.24502851301E+02 -0.67833485941E+01 -0.29042787702E+02  0.38884149181E+02  0.47000000000E+01 0. -1.
         -5    1    4    4    0  503 -0.28028483994E+02 -0.23813984437E+01  0.46837863236E+02  0.54837417938E+02  0.47000000000E+01 0.  1.
<mgrwt>
<rscale>  0 0.91709680E+02</rscale>
<asrwt>0</asrwt>
<pdfrwt beam="1">  1        3 0.55781935E-01 0.92016669E+02</pdfrwt>
<pdfrwt beam="2">  1       -3 0.68738778E-02 0.92016669E+02</pdfrwt>
<totfact> 0.94407676E+02</totfact>
</mgrwt>
</event>
<event>
 8    1  0.6396648E-004  0.1094200E+03  0.7546771E-02  0.1265833E+00
          1   -1    0    0  501    0  0.00000000000E+00  0.00000000000E+00  0.26016908535E+02  0.26016908535E+02  0.00000000000E+00 0. -1.
         -1   -1    0    0    0  501 -0.00000000000E+00 -0.00000000000E+00 -0.46669883776E+03  0.46669883776E+03  0.00000000000E+00 0.  1.
         23    2    1    2    0    0  0.19363066216E+02 -0.38125758987E+02 -0.28593187779E+03  0.30318917642E+03  0.91313395129E+02 0.  0.
         23    2    1    2    0    0 -0.19363066216E+02  0.38125758987E+02 -0.15475005144E+03  0.18952656988E+03  0.10071862012E+03 0.  0.
          5    1    4    4  502    0  0.31228914303E+02  0.48096752811E+02 -0.85548443174E+02  0.10309786055E+03  0.47000000000E+01 0. -1.
         -5    1    3    3    0  503 -0.27638334973E+02 -0.45053801644E+02 -0.14718525734E+03  0.15645866093E+03  0.47000000000E+01 0.  1.
          5    1    3    3  503    0  0.47001401189E+02  0.69280426568E+01 -0.13874662045E+03  0.14673051549E+03  0.47000000000E+01 0. -1.
         -5    1    4    4    0  502 -0.50591980519E+02 -0.99709938242E+01 -0.69201608263E+02  0.86428709332E+02  0.47000000000E+01 0.  1.
<mgrwt>
<rscale>  0 0.10720617E+03</rscale>
<asrwt>0</asrwt>
<pdfrwt beam="1">  1        1 0.40026014E-02 0.10942003E+03</pdfrwt>
<pdfrwt beam="2">  1       -1 0.71799820E-01 0.10942003E+03</pdfrwt>
<totfact> 0.43610520E+03</totfact>
</mgrwt>
</event>
<event>
 8    1  0.6396648E-004  0.9433191E+02  0.7546771E-02  0.1295589E+00
         -1   -1    0    0    0  501 -0.00000000000E+00  0.00000000000E+00  0.46006229445E+03  0.46006229445E+03  0.00000000000E+00 0.  1.
          1   -1    0    0  501    0  0.00000000000E+00 -0.00000000000E+00 -0.81608952380E+02  0.81608952380E+02  0.00000000000E+00 0. -1.
         23    2    1    2    0    0 -0.93693970794E+00 -0.18607158023E+02  0.42653099204E+03  0.43579410539E+03  0.87411160227E+02 0.  0.
         23    2    1    2    0    0  0.93693970794E+00  0.18607158023E+02 -0.48077649967E+02  0.10587714145E+03  0.92473804233E+02 0.  0.
          5    1    4    4  502    0 -0.16244019281E+02  0.52776677678E+02 -0.32987326685E+02  0.64494182613E+02  0.47000000000E+01 0. -1.
         -5    1    4    4    0  502  0.17180958989E+02 -0.34169519655E+02 -0.15090323281E+02  0.41382958835E+02  0.47000000000E+01 0.  1.
          5    1    3    3  503    0 -0.36091047687E+02 -0.45507900094E+00  0.92634746996E+02  0.99529177486E+02  0.47000000000E+01 0. -1.
         -5    1    3    3    0  503  0.35154107979E+02 -0.18152079022E+02  0.33389624505E+03  0.33626492790E+03  0.47000000000E+01 0.  1.
<mgrwt>
<rscale>  0 0.93067374E+02</rscale>
<asrwt>0</asrwt>
<pdfrwt beam="1">  1        1 0.12555224E-01 0.94331907E+02</pdfrwt>
<pdfrwt beam="2">  1       -1 0.70778813E-01 0.94331907E+02</pdfrwt>
<totfact> 0.96774828E+02</totfact>
</mgrwt>
</event>
<event>
 8    1  0.6396648E-004  0.1429063E+03  0.7546771E-02  0.1216221E+00
          4   -1    0    0  501    0  0.00000000000E+00  0.00000000000E+00  0.19512487067E+02  0.19512487067E+02  0.00000000000E+00 0. -1.
         -4   -1    0    0    0  501 -0.00000000000E+00 -0.00000000000E+00 -0.13232788068E+04  0.13232788068E+04  0.00000000000E+00 0.  1.
         23    2    1    2    0    0  0.17422134761E+02  0.80953301344E+02 -0.99363053068E+03  0.10013144613E+04  0.92043745914E+02 0.  0.
         23    2    1    2    0    0 -0.17422134761E+02 -0.80953301344E+02 -0.31013578908E+03  0.34147683257E+03  0.11646996068E+03 0.  0.
          5    1    3    3  502    0  0.47610781159E+02  0.14380363424E+02 -0.35526287274E+03  0.35875810804E+03  0.47000000000E+01 0. -1.
         -5    1    3    3    0  502 -0.30188646398E+02  0.66572937920E+02 -0.63836765794E+03  0.64255635328E+03  0.47000000000E+01 0.  1.
          5    1    4    4  503    0 -0.40008005185E+01 -0.11015454288E+03 -0.24481695180E+03  0.26852832181E+03  0.47000000000E+01 0. -1.
         -5    1    4    4    0  503 -0.13421334243E+02  0.29201241541E+02 -0.65318837273E+02  0.72948510767E+02  0.47000000000E+01 0.  1.
<mgrwt>
<rscale>  0 0.13787258E+03</rscale>
<asrwt>0</asrwt>
<pdfrwt beam="1">  1        4 0.30019208E-02 0.14290633E+03</pdfrwt>
<pdfrwt beam="2">  1       -4 0.20358137E+00 0.14290633E+03</pdfrwt>
<totfact> 0.12663378E+02</totfact>
</mgrwt>
</event>
<event>
 8    1  0.6396648E-004  0.2065253E+03  0.7546771E-02  0.1144683E+00
          1   -1    0    0  501    0  0.00000000000E+00  0.00000000000E+00  0.87052912587E+03  0.87052912587E+03  0.00000000000E+00 0. -1.
         -1   -1    0    0    0  501 -0.00000000000E+00 -0.00000000000E+00 -0.91687468691E+02  0.91687468691E+02  0.00000000000E+00 0.  1.
         23    2    1    2    0    0 -0.17107482695E+03  0.66377572346E+02  0.58804008862E+02  0.21314588331E+03  0.91108054445E+02 0.  0.
         23    2    1    2    0    0  0.17107482695E+03 -0.66377572346E+02  0.72003764832E+03  0.74907071125E+03  0.94763584437E+02 0.  0.
          5    1    3    3  502    0 -0.53002040125E+02 -0.61529953310E+01 -0.15604040942E+02  0.55791143586E+02  0.47000000000E+01 0. -1.
         -5    1    4    4    0  503  0.31410290864E+02  0.24239935936E+02  0.13530687072E+03  0.14108231686E+03  0.47000000000E+01 0.  1.
          5    1    4    4  503    0  0.13966453609E+03 -0.90617508282E+02  0.58473077759E+03  0.60798839439E+03  0.47000000000E+01 0. -1.
         -5    1    3    3    0  502 -0.11807278683E+03  0.72530567677E+02  0.74408049803E+02  0.15735473972E+03  0.47000000000E+01 0.  1.
<mgrwt>
<rscale>  0 0.20611120E+03</rscale>
<asrwt>0</asrwt>
<pdfrwt beam="1">  1        1 0.13392755E+00 0.20652534E+03</pdfrwt>
<pdfrwt beam="2">  1       -1 0.14105765E-01 0.20652534E+03</pdfrwt>
<totfact> 0.71959509E+02</totfact>
</mgrwt>
</event>
<event>
 7    1  0.6396648E-004  0.1307713E+03  0.7546771E-02  0.1242849E+00
          1   -1    0    0  501    0  0.00000000000E+00  0.00000000000E+00  0.13168708131E+03  0.13168708131E+03  0.00000000000E+00 0. -1.
         -1   -1    0    0    0  501 -0.00000000000E+00 -0.00000000000E+00 -0.27842196796E+03  0.27842196796E+03  0.00000000000E+00 0.  1.
         23    2    1    2    0    0 -0.11543089837E+02 -0.80517991173E+01 -0.23468750402E+03  0.25251212573E+03  0.92119893106E+02 0.  0.
          5    1    3    3  502    0  0.19919422800E+02 -0.38437645753E+02 -0.16011117955E+03  0.16592744147E+03  0.47000000000E+01 0. -1.
         -5    1    1    2    0  503 -0.57417177031E+02  0.14708810741E+02  0.53920505221E+02  0.80265759916E+02  0.47000000000E+01 0.  1.
          5    1    1    2  503    0  0.68960266867E+02 -0.66570116241E+01  0.34032112155E+02  0.77331163627E+02  0.47000000000E+01 0. -1.
         -5    1    3    3    0  502 -0.31462512637E+02  0.30385846635E+02 -0.74576324470E+02  0.86584684261E+02  0.47000000000E+01 0.  1.
<mgrwt>
<rscale>  0 0.12015039E+03</rscale>
<asrwt>0</asrwt>
<pdfrwt beam="1">  1        1 0.20259551E-01 0.13077128E+03</pdfrwt>
<pdfrwt beam="2">  1       -1 0.42834148E-01 0.13077128E+03</pdfrwt>
<totfact> 0.13453960E+03</totfact>
</mgrwt>
</event>
<event>
 8    1  0.6396648E-004  0.1345482E+03  0.7546771E-02  0.1221235E+00
         -1   -1    0    0    0  501 -0.00000000000E+00  0.00000000000E+00  0.50738892843E+02  0.50738892843E+02  0.00000000000E+00 0.  1.
          1   -1    0    0  501    0  0.00000000000E+00 -0.00000000000E+00 -0.36443588885E+03  0.36443588885E+03  0.00000000000E+00 0. -1.
         23    2    1    2    0    0  0.16902125389E+02  0.96483843471E+02 -0.19138576161E+03  0.23334170827E+03  0.90691946604E+02 0.  0.
         23    2    1    2    0    0 -0.16902125389E+02 -0.96483843471E+02 -0.12231123439E+03  0.18183307342E+03  0.92241068054E+02 0.  0.
          5    1    4    4  502    0 -0.41982595065E+02 -0.20796493734E+02 -0.76288480474E+02  0.89649621823E+02  0.47000000000E+01 0. -1.
         -5    1    4    4    0  502  0.25080469676E+02 -0.75687349736E+02 -0.46022753918E+02  0.92183451592E+02  0.47000000000E+01 0.  1.
          5    1    3    3  503    0 -0.23324288274E+02  0.83495361415E+02 -0.15365336475E+03  0.17648496905E+03  0.47000000000E+01 0. -1.
         -5    1    3    3    0  503  0.40226413663E+02  0.12988482056E+02 -0.37732396862E+02  0.56856739225E+02  0.47000000000E+01 0.  1.
<mgrwt>
<rscale>  0 0.13428314E+03</rscale>
<asrwt>0</asrwt>
<pdfrwt beam="1">  1        1 0.56067059E-01 0.13454824E+03</pdfrwt>
<pdfrwt beam="2">  1       -1 0.78059836E-02 0.13454824E+03</pdfrwt>
<totfact> 0.58476664E+03</totfact>
</mgrwt>
</event>
<event>
 8    1  0.1067494E-003  0.1134748E+03  0.7546771E-02  0.1255061E+00
          2   -1    0    0  501    0  0.00000000000E+00  0.00000000000E+00  0.62298955492E+03  0.62298955492E+03  0.00000000000E+00 0. -1.
         -2   -1    0    0    0  501 -0.00000000000E+00 -0.00000000000E+00 -0.42906928222E+02  0.42906928222E+02  0.00000000000E+00 0.  1.
         23    2    1    2    0    0  0.63537683006E+02  0.11691858402E+02  0.53254317462E+03  0.54449864389E+03  0.93288818472E+02 0.  0.
         23    2    1    2    0    0 -0.63537683006E+02 -0.11691858402E+02  0.47539452078E+02  0.12139783925E+03  0.91124635285E+02 0.  0.
          5    1    4    4  502    0  0.17775278618E+02  0.16763759226E+02  0.57663938770E+01  0.25540662710E+02  0.47000000000E+01 0. -1.
         -5    1    4    4    0  502 -0.81312961624E+02 -0.28455617627E+02  0.41773058201E+02  0.95857176539E+02  0.47000000000E+01 0.  1.
          5    1    3    3  503    0  0.82846534839E+02  0.26664831513E+02  0.44662704805E+03  0.45505205375E+03  0.47000000000E+01 0. -1.
         -5    1    3    3    0  503 -0.19308851833E+02 -0.14972973111E+02  0.85916126570E+02  0.89446590140E+02  0.47000000000E+01 0.  1.
<mgrwt>
<rscale>  0 0.11302913E+03</rscale>
<asrwt>0</asrwt>
<pdfrwt beam="1">  1        2 0.95844540E-01 0.11347484E+03</pdfrwt>
<pdfrwt beam="2">  1       -2 0.66010663E-02 0.11347484E+03</pdfrwt>
<totfact> 0.58859951E+03</totfact>
</mgrwt>
</event>
<event>
 8    1  0.6396648E-004  0.1103094E+03  0.7546771E-02  0.1261630E+00
          1   -1    0    0  501    0  0.00000000000E+00  0.00000000000E+00  0.14697645903E+03  0.14697645903E+03  0.00000000000E+00 0. -1.
         -1   -1    0    0    0  501 -0.00000000000E+00 -0.00000000000E+00 -0.85766529691E+02  0.85766529691E+02  0.00000000000E+00 0.  1.
         23    2    1    2    0    0 -0.28386657322E+02 -0.59855920296E+02  0.60706182314E+02  0.12591033161E+03  0.88202253522E+02 0.  0.
         23    2    1    2    0    0  0.28386657322E+02  0.59855920296E+02  0.50374702812E+00  0.10683265711E+03  0.83811868829E+02 0.  0.
          5    1    4    4  502    0 -0.10785383031E+02  0.29819856415E+02 -0.33764344099E+02  0.46558235106E+02  0.47000000000E+01 0. -1.
         -5    1    4    4    0  502  0.39172040353E+02  0.30036063880E+02  0.34268091128E+02  0.60274422008E+02  0.47000000000E+01 0.  1.
          5    1    3    3  503    0 -0.54917541881E+02 -0.45340796648E+02  0.18417869397E+02  0.73709105001E+02  0.47000000000E+01 0. -1.
         -5    1    3    3    0  503  0.26530884560E+02 -0.14515123648E+02  0.42288312917E+02  0.52201226608E+02  0.47000000000E+01 0.  1.
<mgrwt>
<rscale>  0 0.10942947E+03</rscale>
<asrwt>0</asrwt>
<pdfrwt beam="1">  1        1 0.22611763E-01 0.11030943E+03</pdfrwt>
<pdfrwt beam="2">  1       -1 0.13194851E-01 0.11030943E+03</pdfrwt>
<totfact> 0.79870895E+03</totfact>
</mgrwt>
</event>
<event>
 8    1  0.6396648E-004  0.2908669E+03  0.7546771E-02  0.1091730E+00
         -2   -1    0    0    0  501 -0.00000000000E+00  0.00000000000E+00  0.15713288041E+04  0.15713288041E+04  0.00000000000E+00 0.  1.
          2   -1    0    0  501    0  0.00000000000E+00 -0.00000000000E+00 -0.20840557907E+03  0.20840557907E+03  0.00000000000E+00 0. -1.
         23    2    1    2    0    0 -0.13820119013E+03 -0.22206032039E+03  0.14498950484E+04  0.14761431187E+04  0.91610591291E+02 0.  0.
         23    2    1    2    0    0  0.13820119013E+03  0.22206032039E+03 -0.86971823445E+02  0.30359126448E+03  0.12725251646E+03 0.  0.
          5    1    3    3  502    0  0.98920019302E+01 -0.37086594334E+02  0.26178916528E+03  0.26462978714E+03  0.47000000000E+01 0. -1.
         -5    1    3    3    0  502 -0.14809319206E+03 -0.18497372606E+03  0.11881058832E+04  0.12115133315E+04  0.47000000000E+01 0.  1.
          5    1    4    4  503    0  0.62081200837E+02  0.19078293594E+03 -0.28888094559E+02  0.20275309160E+03  0.47000000000E+01 0. -1.
         -5    1    4    4    0  503  0.76119989298E+02  0.31277384450E+02 -0.58083728887E+02  0.10083817288E+03  0.47000000000E+01 0.  1.
<mgrwt>
<rscale>  0 0.28737098E+03</rscale>
<asrwt>0</asrwt>
<pdfrwt beam="1">  1        2 0.32062398E-01 0.29086691E+03</pdfrwt>
<pdfrwt beam="2">  1       -2 0.24174288E+00 0.29086691E+03</pdfrwt>
<totfact> 0.13086018E+01</totfact>
</mgrwt>
</event>
<event>
 8    1  0.6396648E-004  0.9248027E+02  0.7546771E-02  0.1297070E+00
         -2   -1    0    0    0  501 -0.00000000000E+00  0.00000000000E+00  0.26480303778E+03  0.26480303778E+03  0.00000000000E+00 0.  1.
          2   -1    0    0  501    0  0.00000000000E+00 -0.00000000000E+00 -0.51912407746E+02  0.51912407746E+02  0.00000000000E+00 0. -1.
         23    2    1    2    0    0  0.13001313592E+02 -0.78994887392E-01  0.20402852622E+03  0.22400946213E+03  0.91561778154E+02 0.  0.
         23    2    1    2    0    0 -0.13001313592E+02  0.78994887392E-01  0.88621038120E+01  0.92705983390E+02  0.91360943937E+02 0.  0.
          5    1    4    4  502    0  0.13336742814E+02  0.33060782392E+02 -0.20201981639E+02  0.41244322075E+02  0.47000000000E+01 0. -1.
         -5    1    3    3    0  503 -0.13741884269E+02 -0.33593849565E+02  0.39195321187E+02  0.53626013415E+02  0.47000000000E+01 0.  1.
          5    1    3    3  503    0  0.26743197861E+02  0.33514854678E+02  0.16483320503E+03  0.17038344872E+03  0.47000000000E+01 0. -1.
         -5    1    4    4    0  502 -0.26338056406E+02 -0.32981787505E+02  0.29064085451E+02  0.51461661316E+02  0.47000000000E+01 0.  1.
<mgrwt>
<rscale>  0 0.92430517E+02</rscale>
<asrwt>0</asrwt>
<pdfrwt beam="1">  1        2 0.79865244E-02 0.92480266E+02</pdfrwt>
<pdfrwt beam="2">  1       -2 0.40738928E-01 0.92480266E+02</pdfrwt>
<totfact> 0.45279744E+03</totfact>
</mgrwt>
</event>
<event>
 8    1  0.6396648E-004  0.1244057E+03  0.7546771E-02  0.1236630E+00
         -1   -1    0    0    0  501 -0.00000000000E+00  0.00000000000E+00  0.17170444105E+02  0.17170444105E+02  0.00000000000E+00 0.  1.
          1   -1    0    0  501    0  0.00000000000E+00 -0.00000000000E+00 -0.11746440150E+04  0.11746440150E+04  0.00000000000E+00 0. -1.
         23    2    1    2    0    0  0.70305294025E+02 -0.45581312423E+02 -0.28251534039E+03  0.30805618466E+03  0.89795350320E+02 0.  0.
         23    2    1    2    0    0 -0.70305294025E+02  0.45581312423E+02 -0.87495823055E+03  0.88375827450E+03  0.91958099800E+02 0.  0.
          5    1    3    3  502    0  0.35143956325E+02 -0.35375866943E+02 -0.26008246790E+03  0.26486134058E+03  0.47000000000E+01 0. -1.
         -5    1    3    3    0  502  0.35161337700E+02 -0.10205445480E+02 -0.22432872496E+02  0.43194844075E+02  0.47000000000E+01 0.  1.
          5    1    4    4  503    0 -0.50319241578E+02 -0.20732038920E+02 -0.41902424902E+03  0.42256982237E+03  0.47000000000E+01 0. -1.
         -5    1    4    4    0  503 -0.19986052447E+02  0.66313351343E+02 -0.45593398153E+03  0.46118845212E+03  0.47000000000E+01 0.  1.
<mgrwt>
<rscale>  0 0.12400629E+03</rscale>
<asrwt>0</asrwt>
<pdfrwt beam="1">  1        1 0.18071449E+00 0.12440572E+03</pdfrwt>
<pdfrwt beam="2">  1       -1 0.26416063E-02 0.12440572E+03</pdfrwt>
<totfact> 0.52952497E+03</totfact>
</mgrwt>
</event>
<event>
 8    1  0.6396648E-004  0.9625725E+02  0.7546771E-02  0.1288573E+00
          1   -1    0    0  501    0  0.00000000000E+00  0.00000000000E+00  0.50565809993E+02  0.50565809993E+02  0.00000000000E+00 0. -1.
         -1   -1    0    0    0  501 -0.00000000000E+00 -0.00000000000E+00 -0.23292679275E+03  0.23292679275E+03  0.00000000000E+00 0.  1.
         23    2    1    2    0    0 -0.14841143890E+02 -0.85963418443E+01 -0.15697276980E+03  0.18394351717E+03  0.94343046405E+02 0.  0.
         23    2    1    2    0    0  0.14841143890E+02  0.85963418443E+01 -0.25388212954E+02  0.99549085570E+02  0.94716959599E+02 0.  0.
          5    1    4    4  502    0 -0.17453344448E+02 -0.34597578999E+02  0.15818616328E+01  0.39066660866E+02  0.47000000000E+01 0. -1.
         -5    1    3    3    0  503  0.15186261984E+02 -0.21416018019E+02 -0.34223354972E+01  0.26889975104E+02  0.47000000000E+01 0.  1.
          5    1    3    3  503    0 -0.30027405874E+02  0.12819676175E+02 -0.15355043430E+03  0.15705354207E+03  0.47000000000E+01 0. -1.
         -5    1    4    4    0  502  0.32294488338E+02  0.43193920843E+02 -0.26970074587E+02  0.60482424704E+02  0.47000000000E+01 0.  1.
<mgrwt>
<rscale>  0 0.96165146E+02</rscale>
<asrwt>0</asrwt>
<pdfrwt beam="1">  1        1 0.77793554E-02 0.96257255E+02</pdfrwt>
<pdfrwt beam="2">  1       -1 0.35834891E-01 0.96257255E+02</pdfrwt>
<totfact> 0.62617845E+03</totfact>
</mgrwt>
</event>
<event>
 8    1  0.6396648E-004  0.1245953E+03  0.7546771E-02  0.1236041E+00
         -1   -1    0    0    0  501 -0.00000000000E+00  0.00000000000E+00  0.18048796859E+03  0.18048796859E+03  0.00000000000E+00 0.  1.
          1   -1    0    0  501    0  0.00000000000E+00 -0.00000000000E+00 -0.19134685242E+03  0.19134685242E+03  0.00000000000E+00 0. -1.
         23    2    1    2    0    0  0.48411976369E+02  0.69312382888E+02  0.13290726001E+03  0.18159106011E+03  0.90349584784E+02 0.  0.
         23    2    1    2    0    0 -0.48411976369E+02 -0.69312382888E+02 -0.14376614383E+03  0.19024376090E+03  0.91520809508E+02 0.  0.
          5    1    3    3  502    0 -0.25005139237E+02  0.22299575864E+02  0.21644483218E+02  0.40163437674E+02  0.47000000000E+01 0. -1.
         -5    1    3    3    0  502  0.73417115606E+02  0.47012807024E+02  0.11126277679E+03  0.14142762243E+03  0.47000000000E+01 0.  1.
          5    1    4    4  503    0 -0.21050564450E+02 -0.44286851389E+02 -0.14470052368E+03  0.15285543178E+03  0.47000000000E+01 0. -1.
         -5    1    4    4    0  503 -0.27361411919E+02 -0.25025531498E+02  0.93437985443E+00  0.37388329124E+02  0.47000000000E+01 0.  1.
<mgrwt>
<rscale>  0 0.12438029E+03</rscale>
<asrwt>0</asrwt>
<pdfrwt beam="1">  1        1 0.29437977E-01 0.12459528E+03</pdfrwt>
<pdfrwt beam="2">  1       -1 0.27767380E-01 0.12459528E+03</pdfrwt>
<totfact> 0.17652285E+03</totfact>
</mgrwt>
</event>
<event>
 8    1  0.6396648E-004  0.1044317E+03  0.7546771E-02  0.1273744E+00
          3   -1    0    0  501    0  0.00000000000E+00  0.00000000000E+00  0.19090046490E+03  0.19090046490E+03  0.00000000000E+00 0. -1.
         -3   -1    0    0    0  501 -0.00000000000E+00 -0.00000000000E+00 -0.70406201809E+02  0.70406201809E+02  0.00000000000E+00 0.  1.
         23    2    1    2    0    0 -0.23094109822E+02  0.32856359890E+02 -0.76816835270E+00  0.10443454230E+03  0.96400753368E+02 0.  0.
         23    2    1    2    0    0  0.23094109822E+02 -0.32856359890E+02  0.12126243145E+03  0.15687212441E+03  0.91057167989E+02 0.  0.
          5    1    3    3  502    0 -0.28220600649E+02  0.54008417410E+02  0.28682866464E+02  0.67513763639E+02  0.47000000000E+01 0. -1.
         -5    1    3    3    0  502  0.51264908270E+01 -0.21152057520E+02 -0.29451034816E+02  0.36920778665E+02  0.47000000000E+01 0.  1.
          5    1    4    4  503    0 -0.34469620427E+02 -0.18885137511E+02  0.40797725473E+02  0.56844943090E+02  0.47000000000E+01 0. -1.
         -5    1    4    4    0  503  0.57563730249E+02 -0.13971222379E+02  0.80464705973E+02  0.10002718132E+03  0.47000000000E+01 0.  1.
<mgrwt>
<rscale>  0 0.10318159E+03</rscale>
<asrwt>0</asrwt>
<pdfrwt beam="1">  1        3 0.29369302E-01 0.10443172E+03</pdfrwt>
<pdfrwt beam="2">  1       -3 0.10831723E-01 0.10443172E+03</pdfrwt>
<totfact> 0.15805524E+03</totfact>
</mgrwt>
</event>
<event>
 8    1  0.6396648E-004  0.1028178E+03  0.7546771E-02  0.1275054E+00
         -2   -1    0    0    0  501 -0.00000000000E+00  0.00000000000E+00  0.23025350734E+02  0.23025350734E+02  0.00000000000E+00 0.  1.
          2   -1    0    0  501    0  0.00000000000E+00 -0.00000000000E+00 -0.62084340562E+03  0.62084340562E+03  0.00000000000E+00 0. -1.
         23    2    1    2    0    0  0.42521753407E+02 -0.22410464865E+02 -0.46695139394E+03  0.47813712362E+03  0.90891012978E+02 0.  0.
         23    2    1    2    0    0 -0.42521753407E+02  0.22410464865E+02 -0.13086666095E+03  0.16573163273E+03  0.89613406871E+02 0.  0.
          5    1    4    4  502    0  0.12424780404E+02  0.41216362683E+02 -0.59805588643E+02  0.73837403488E+02  0.47000000000E+01 0. -1.
         -5    1    3    3    0  503  0.17871830016E+02  0.22039969450E+02 -0.47052299773E+02  0.55146817455E+02  0.47000000000E+01 0.  1.
          5    1    3    3  503    0  0.24649923391E+02 -0.44450434315E+02 -0.41989909416E+03  0.42299030617E+03  0.47000000000E+01 0. -1.
         -5    1    4    4    0  502 -0.54946533811E+02 -0.18805897819E+02 -0.71061072305E+02  0.91894229241E+02  0.47000000000E+01 0.  1.
<mgrwt>
<rscale>  0 0.10253474E+03</rscale>
<asrwt>0</asrwt>
<pdfrwt beam="1">  1        2 0.95514355E-01 0.10281782E+03</pdfrwt>
<pdfrwt beam="2">  1       -2 0.35423622E-02 0.10281782E+03</pdfrwt>
<totfact> 0.14845092E+04</totfact>
</mgrwt>
</event>
<event>
 8    1  0.6396648E-004  0.1370248E+03  0.7546771E-02  0.1218731E+00
         -1   -1    0    0    0  501 -0.00000000000E+00  0.00000000000E+00  0.89672135553E+02  0.89672135553E+02  0.00000000000E+00 0.  1.
          1   -1    0    0  501    0  0.00000000000E+00 -0.00000000000E+00 -0.28793262968E+03  0.28793262968E+03  0.00000000000E+00 0. -1.
         23    2    1    2    0    0  0.86227823959E+02 -0.54716095119E+02  0.20577382052E+01  0.13704027197E+03  0.91360347880E+02 0.  0.
         23    2    1    2    0    0 -0.86227823959E+02  0.54716095119E+02 -0.20031823234E+03  0.24056449327E+03  0.85526560354E+02 0.  0.
          5    1    4    4  502    0  0.13754202310E+02  0.21505539529E+02 -0.25411546490E+02  0.36324963959E+02  0.47000000000E+01 0.  1.
         -5    1    4    4    0  502 -0.99982026268E+02  0.33210555590E+02 -0.17490668585E+03  0.20423952931E+03  0.47000000000E+01 0. -1.
          5    1    3    3  503    0  0.23509143714E+02 -0.23977977930E+02 -0.42264502173E+02  0.54184881726E+02  0.47000000000E+01 0. -1.
         -5    1    3    3    0  503  0.62718680245E+02 -0.30738117189E+02  0.44322240378E+02  0.82855390241E+02  0.47000000000E+01 0.  1.
<mgrwt>
<rscale>  0 0.13606001E+03</rscale>
<asrwt>0</asrwt>
<pdfrwt beam="1">  1        1 0.44297327E-01 0.13702482E+03</pdfrwt>
<pdfrwt beam="2">  1       -1 0.13795713E-01 0.13702482E+03</pdfrwt>
<totfact> 0.32814472E+03</totfact>
</mgrwt>
</event>
<event>
 8    1  0.6396648E-004  0.1302421E+03  0.7546771E-02  0.1227311E+00
          1   -1    0    0  501    0  0.00000000000E+00  0.00000000000E+00  0.48843717565E+02  0.48843717565E+02  0.00000000000E+00 0. -1.
         -1   -1    0    0    0  501 -0.00000000000E+00 -0.00000000000E+00 -0.44471231752E+03  0.44471231752E+03  0.00000000000E+00 0.  1.
         23    2    1    2    0    0 -0.26947438924E+02  0.88768587227E+02 -0.81866697080E+02  0.15383484111E+03  0.91416495804E+02 0.  0.
         23    2    1    2    0    0  0.26947438924E+02 -0.88768587227E+02 -0.31400190287E+03  0.33972119398E+03  0.90593973783E+02 0.  0.
          5    1    4    4  502    0  0.21721186976E+01 -0.92513677557E+02 -0.17124723900E+03  0.19470800060E+03  0.47000000000E+01 0. -1.
         -5    1    3    3    0  503 -0.13824940543E+02  0.66394269109E+02 -0.16022531773E+00  0.67981200516E+02  0.47000000000E+01 0.  1.
          5    1    3    3  503    0 -0.13122498381E+02  0.22374318118E+02 -0.81706471762E+02  0.85853640592E+02  0.47000000000E+01 0. -1.
         -5    1    4    4    0  502  0.24775320226E+02  0.37450903302E+01 -0.14275466387E+03  0.14501319337E+03  0.47000000000E+01 0.  1.
<mgrwt>
<rscale>  0 0.13009785E+03</rscale>
<asrwt>0</asrwt>
<pdfrwt beam="1">  1        1 0.75144180E-02 0.13024209E+03</pdfrwt>
<pdfrwt beam="2">  1       -1 0.68417280E-01 0.13024209E+03</pdfrwt>
<totfact> 0.20613807E+03</totfact>
</mgrwt>
</event>
<event>
 8    1  0.6396648E-004  0.9924836E+02  0.7546771E-02  0.1301934E+00
         -1   -1    0    0    0  501 -0.00000000000E+00  0.00000000000E+00  0.64573188232E+03  0.64573188232E+03  0.00000000000E+00 0.  1.
          1   -1    0    0  501    0  0.00000000000E+00 -0.00000000000E+00 -0.13165180745E+02  0.13165180745E+02  0.00000000000E+00 0. -1.
         23    2    1    2    0    0 -0.15058683280E+02 -0.28728463104E+02  0.22874545132E+03  0.24934858853E+03  0.93798446514E+02 0.  0.
         23    2    1    2    0    0  0.15058683280E+02  0.28728463104E+02  0.40382125025E+03  0.40954847453E+03  0.60052163172E+02 0.  0.
          5    1    3    3  502    0 -0.36284846009E+02 -0.18727213744E+02  0.34579195937E+02  0.53713214167E+02  0.47000000000E+01 0. -1.
         -5    1    3    3    0  502  0.21226162729E+02 -0.10001249360E+02  0.19416625539E+03  0.19563537437E+03  0.47000000000E+01 0.  1.
          5    1    4    4  503    0  0.36061948588E+02  0.27595293784E+02  0.30555461722E+03  0.30894607697E+03  0.47000000000E+01 0. -1.
         -5    1    4    4    0  503 -0.21003265308E+02  0.11331693208E+01  0.98266633034E+02  0.10060239756E+03  0.47000000000E+01 0.  1.
<mgrwt>
<rscale>  0 0.90379832E+02</rscale>
<asrwt>0</asrwt>
<pdfrwt beam="1">  1        1 0.20254129E-02 0.99248361E+02</pdfrwt>
<pdfrwt beam="2">  1       -1 0.99343342E-01 0.99248361E+02</pdfrwt>
<totfact> 0.56410271E+03</totfact>
</mgrwt>
</event>
<event>
 8    1  0.6396648E-004  0.1076415E+03  0.7546771E-02  0.1270497E+00
         -1   -1    0    0    0  501 -0.00000000000E+00  0.00000000000E+00  0.26467563930E+02  0.26467563930E+02  0.00000000000E+00 0.  1.
          1   -1    0    0  501    0  0.00000000000E+00 -0.00000000000E+00 -0.53780565148E+03  0.53780565148E+03  0.00000000000E+00 0. -1.
         23    2    1    2    0    0 -0.21296953905E+02 -0.25766777202E+02 -0.41110239587E+03  0.42496102569E+03  0.10231914002E+03 0.  0.
         23    2    1    2    0    0  0.21296953905E+02  0.25766777202E+02 -0.10023569168E+03  0.13931218972E+03  0.90792099132E+02 0.  0.
          5    1    4    4  502    0 -0.19361083330E+02  0.45348348477E+02 -0.65764310456E+02  0.82330788816E+02  0.47000000000E+01 0. -1.
         -5    1    4    4    0  502  0.40658037235E+02 -0.19581571275E+02 -0.34471381225E+02  0.56981400904E+02  0.47000000000E+01 0.  1.
          5    1    3    3  503    0  0.24286549272E+02  0.20011655027E+02 -0.23835066552E+03  0.24046503397E+03  0.47000000000E+01 0. -1.
         -5    1    3    3    0  503 -0.45583503178E+02 -0.45778432228E+02 -0.17275173035E+03  0.18449599171E+03  0.47000000000E+01 0.  1.
<mgrwt>
<rscale>  0 0.10480894E+03</rscale>
<asrwt>0</asrwt>
<pdfrwt beam="1">  1        1 0.82739327E-01 0.10764150E+03</pdfrwt>
<pdfrwt beam="2">  1       -1 0.40719331E-02 0.10764150E+03</pdfrwt>
<totfact> 0.92019465E+03</totfact>
</mgrwt>
</event>
<event>
 8    1  0.6396648E-004  0.1023921E+03  0.7546771E-02  0.1275374E+00
          2   -1    0    0  501    0  0.00000000000E+00  0.00000000000E+00  0.10138879165E+04  0.10138879165E+04  0.00000000000E+00 0. -1.
         -2   -1    0    0    0  501 -0.00000000000E+00 -0.00000000000E+00 -0.10824904874E+02  0.10824904874E+02  0.00000000000E+00 0.  1.
         23    2    1    2    0    0 -0.41000640332E+02 -0.21335746550E+02  0.39263649752E+03  0.40576785381E+03  0.91366653717E+02 0.  0.
         23    2    1    2    0    0  0.41000640332E+02  0.21335746550E+02  0.61042651408E+03  0.61894496753E+03  0.91302120245E+02 0.  0.
          5    1    4    4  502    0 -0.16197689537E+02  0.37614505928E+02  0.30220009788E+03  0.30499869731E+03  0.47000000000E+01 0.  1.
         -5    1    4    4    0  502  0.57198329868E+02 -0.16278759378E+02  0.30822641620E+03  0.31394627022E+03  0.47000000000E+01 0. -1.
          5    1    3    3  503    0  0.15864891029E+01  0.32211332515E+02  0.98881694685E+02  0.10411419900E+03  0.47000000000E+01 0. -1.
         -5    1    3    3    0  503 -0.42587129435E+02 -0.53547079064E+02  0.29375480283E+03  0.30165365481E+03  0.47000000000E+01 0.  1.
<mgrwt>
<rscale>  0 0.10237765E+03</rscale>
<asrwt>0</asrwt>
<pdfrwt beam="1">  1        2 0.15598268E+00 0.10239205E+03</pdfrwt>
<pdfrwt beam="2">  1       -2 0.16653708E-02 0.10239205E+03</pdfrwt>
<totfact> 0.24206798E+04</totfact>
</mgrwt>
</event>
<event>
 8    1  0.6396648E-004  0.9923329E+02  0.7546771E-02  0.1283896E+00
          1   -1    0    0  501    0  0.00000000000E+00  0.00000000000E+00  0.17926986849E+02  0.17926986849E+02  0.00000000000E+00 0. -1.
         -1   -1    0    0    0  501 -0.00000000000E+00 -0.00000000000E+00 -0.52930868026E+03  0.52930868026E+03  0.00000000000E+00 0.  1.
         23    2    1    2    0    0 -0.66847481327E+01  0.31943632642E+02 -0.25323323739E+03  0.27067126042E+03  0.89837504284E+02 0.  0.
         23    2    1    2    0    0  0.66847481327E+01 -0.31943632642E+02 -0.25814845602E+03  0.27656440669E+03  0.93713201712E+02 0.  0.
          5    1    4    4  502    0 -0.39991871898E+02 -0.31995459453E+02 -0.11644324587E+03  0.12729563525E+03  0.47000000000E+01 0. -1.
         -5    1    4    4    0  502  0.46676620031E+02  0.51826810953E-01 -0.14170521015E+03  0.14926877144E+03  0.47000000000E+01 0.  1.
          5    1    3    3  503    0 -0.68024091031E+01 -0.30303237269E+02 -0.61924076706E+02  0.69435151288E+02  0.47000000000E+01 0. -1.
         -5    1    3    3    0  503  0.11766097039E+00  0.62246869911E+02 -0.19130916068E+03  0.20123610913E+03  0.47000000000E+01 0.  1.
<mgrwt>
<rscale>  0 0.98307514E+02</rscale>
<asrwt>0</asrwt>
<pdfrwt beam="1">  1        1 0.27579979E-02 0.99233289E+02</pdfrwt>
<pdfrwt beam="2">  1       -1 0.81432108E-01 0.99233289E+02</pdfrwt>
<totfact> 0.56018924E+03</totfact>
</mgrwt>
</event>
<event>
 8    1  0.6396648E-004  0.1224372E+03  0.7546771E-02  0.1239603E+00
          1   -1    0    0  501    0  0.00000000000E+00  0.00000000000E+00  0.25270550214E+03  0.25270550214E+03  0.00000000000E+00 0. -1.
         -1   -1    0    0    0  501 -0.00000000000E+00 -0.00000000000E+00 -0.90796119246E+02  0.90796119246E+02  0.00000000000E+00 0.  1.
         23    2    1    2    0    0  0.69624589026E+02  0.57465344626E+02 -0.20820763324E+02  0.12419487705E+03  0.82710422988E+02 0.  0.
         23    2    1    2    0    0 -0.69624589026E+02 -0.57465344626E+02  0.18273014622E+03  0.21930674434E+03  0.80964761121E+02 0.  0.
          5    1    4    4  502    0  0.56280304779E+01 -0.30644492588E+02  0.97179437395E+02  0.10216013266E+03  0.47000000000E+01 0. -1.
         -5    1    4    4    0  502 -0.75252619504E+02 -0.26820852039E+02  0.85550708827E+02  0.11714661168E+03  0.47000000000E+01 0.  1.
          5    1    3    3  503    0  0.87278880892E+02  0.36787121743E+02 -0.15364686147E+02  0.96067991320E+02  0.47000000000E+01 0. -1.
         -5    1    3    3    0  503 -0.17654291866E+02  0.20678222884E+02 -0.54560771766E+01  0.28126885734E+02  0.47000000000E+01 0.  1.
<mgrwt>
<rscale>  0 0.12214302E+03</rscale>
<asrwt>0</asrwt>
<pdfrwt beam="1">  1        1 0.38877769E-01 0.12243718E+03</pdfrwt>
<pdfrwt beam="2">  1       -1 0.13968634E-01 0.12243718E+03</pdfrwt>
<totfact> 0.37592794E+03</totfact>
</mgrwt>
</event>
<event>
 8    1  0.6396648E-004  0.9935912E+02  0.7546771E-02  0.1284414E+00
          3   -1    0    0  501    0  0.00000000000E+00  0.00000000000E+00  0.38743342122E+02  0.38743342122E+02  0.00000000000E+00 0. -1.
         -3   -1    0    0    0  501 -0.00000000000E+00 -0.00000000000E+00 -0.63263276790E+03  0.63263276790E+03  0.00000000000E+00 0.  1.
         23    2    1    2    0    0 -0.35287706624E+02 -0.10523346980E+02 -0.55772599200E+03  0.56564045305E+03  0.86803668718E+02 0.  0.
         23    2    1    2    0    0  0.35287706624E+02  0.10523346980E+02 -0.36163433780E+02  0.10573565697E+03  0.92283650463E+02 0.  0.
          5    1    3    3  502    0  0.12096978293E+02 -0.27543130431E+02 -0.86367412343E+02  0.91577185110E+02  0.47000000000E+01 0. -1.
         -5    1    4    4    0  503 -0.31191709545E+02  0.58662916990E+01 -0.16587168479E+02  0.36118697108E+02  0.47000000000E+01 0.  1.
          5    1    4    4  503    0  0.66479416168E+02  0.46570552807E+01 -0.19576265301E+02  0.69616959867E+02  0.47000000000E+01 0. -1.
         -5    1    3    3    0  502 -0.47384684917E+02  0.17019783451E+02 -0.47135857965E+03  0.47406326794E+03  0.47000000000E+01 0.  1.
<mgrwt>
<rscale>  0 0.98067174E+02</rscale>
<asrwt>0</asrwt>
<pdfrwt beam="1">  1        3 0.59605145E-02 0.99359122E+02</pdfrwt>
<pdfrwt beam="2">  1       -3 0.97328112E-01 0.99359122E+02</pdfrwt>
<totfact> 0.36789755E+02</totfact>
</mgrwt>
</event>
<event>
 8    1  0.7071113E-004  0.9783191E+02  0.7546771E-02  0.1285622E+00
          2   -1    0    0  501    0  0.00000000000E+00  0.00000000000E+00  0.43897534532E+03  0.43897534532E+03  0.00000000000E+00 0. -1.
         -2   -1    0    0    0  501 -0.00000000000E+00 -0.00000000000E+00 -0.63969633882E+02  0.63969633882E+02  0.00000000000E+00 0.  1.
         23    2    1    2    0    0 -0.27680948529E+01  0.33208369830E+02  0.39277451650E+03  0.40477512705E+03  0.91981653023E+02 0.  0.
         23    2    1    2    0    0  0.27680948529E+01 -0.33208369830E+02 -0.17768805060E+02  0.98169852151E+02  0.90615292651E+02 0.  0.
          5    1    3    3  502    0  0.30343468602E+02  0.39540041904E+01  0.30329366456E+03  0.30486963968E+03  0.47000000000E+01 0. -1.
         -5    1    3    3    0  502 -0.33111563455E+02  0.29254365640E+02  0.89480851939E+02  0.99905487372E+02  0.47000000000E+01 0.  1.
          5    1    4    4  503    0  0.43981255182E+02 -0.17657356658E+02  0.58221091558E+01  0.47980412739E+02  0.47000000000E+01 0. -1.
         -5    1    4    4    0  503 -0.41213160329E+02 -0.15551013172E+02 -0.23590914216E+02  0.50189439412E+02  0.47000000000E+01 0.  1.
<mgrwt>
<rscale>  0 0.97509436E+02</rscale>
<asrwt>0</asrwt>
<pdfrwt beam="1">  1        2 0.67534667E-01 0.97831910E+02</pdfrwt>
<pdfrwt beam="2">  1       -2 0.98414824E-02 0.97831910E+02</pdfrwt>
<totfact> 0.46407263E+03</totfact>
</mgrwt>
</event>
<event>
 8    1  0.6396648E-004  0.9159270E+02  0.7546771E-02  0.1299119E+00
          1   -1    0    0  501    0  0.00000000000E+00  0.00000000000E+00  0.11658899266E+03  0.11658899266E+03  0.00000000000E+00 0. -1.
         -1   -1    0    0    0  501 -0.00000000000E+00 -0.00000000000E+00 -0.72514129349E+02  0.72514129349E+02  0.00000000000E+00 0.  1.
         23    2    1    2    0    0  0.19881669382E+02 -0.93931603867E+01  0.13009482124E+02  0.92511993268E+02  0.88914059820E+02 0.  0.
         23    2    1    2    0    0 -0.19881669382E+02  0.93931603867E+01  0.31065381183E+02  0.96591128736E+02  0.88776550975E+02 0.  0.
          5    1    4    4  502    0 -0.45126187965E+02  0.33152968895E+02  0.15433715342E+02  0.58273336579E+02  0.47000000000E+01 0. -1.
         -5    1    4    4    0  502  0.25244518583E+02 -0.23759808508E+02  0.15631665841E+02  0.38317792157E+02  0.47000000000E+01 0.  1.
          5    1    3    3  503    0  0.42634121244E+02 -0.11360846517E+02  0.37937869949E+02  0.58379012531E+02  0.47000000000E+01 0. -1.
         -5    1    3    3    0  503 -0.22752451862E+02  0.19676861304E+01 -0.24928387824E+02  0.34132980737E+02  0.47000000000E+01 0.  1.
<mgrwt>
<rscale>  0 0.91559309E+02</rscale>
<asrwt>0</asrwt>
<pdfrwt beam="1">  1        1 0.17936768E-01 0.91592698E+02</pdfrwt>
<pdfrwt beam="2">  1       -1 0.11156020E-01 0.91592698E+02</pdfrwt>
<totfact> 0.13595501E+04</totfact>
</mgrwt>
</event>
<event>
 8    1  0.6396648E-004  0.1042518E+03  0.7546771E-02  0.1271662E+00
          2   -1    0    0  501    0  0.00000000000E+00  0.00000000000E+00  0.67482612884E+02  0.67482612884E+02  0.00000000000E+00 0. -1.
         -2   -1    0    0    0  501 -0.00000000000E+00 -0.00000000000E+00 -0.24200217309E+03  0.24200217309E+03  0.00000000000E+00 0.  1.
         23    2    1    2    0    0  0.31677156290E+02  0.36326115743E+02 -0.17689455443E+03  0.20532930309E+03  0.92441389031E+02 0.  0.
         23    2    1    2    0    0 -0.31677156290E+02 -0.36326115743E+02  0.23749942219E+01  0.10415548288E+03  0.92302194455E+02 0.  0.
          5    1    4    4  502    0 -0.49004687403E+02  0.11236634009E+02 -0.10799778343E+02  0.51637646573E+02  0.47000000000E+01 0. -1.
         -5    1    3    3    0  503  0.86749908911E+01  0.56609183130E+02 -0.15999195895E+03  0.16999815296E+03  0.47000000000E+01 0.  1.
          5    1    3    3  503    0  0.23002165399E+02 -0.20283067386E+02 -0.16902595478E+02  0.35331150130E+02  0.47000000000E+01 0. -1.
         -5    1    4    4    0  502  0.17327531113E+02 -0.47562749752E+02  0.13174772565E+02  0.52517836309E+02  0.47000000000E+01 0.  1.
<mgrwt>
<rscale>  0 0.10422094E+03</rscale>
<asrwt>0</asrwt>
<pdfrwt beam="1">  1        2 0.10381941E-01 0.10425181E+03</pdfrwt>
<pdfrwt beam="2">  1       -2 0.37231103E-01 0.10425181E+03</pdfrwt>
<totfact> 0.39195867E+03</totfact>
</mgrwt>
</event>
<event>
 8    1  0.6396648E-004  0.1025217E+03  0.7546771E-02  0.1275104E+00
         -1   -1    0    0    0  501 -0.00000000000E+00  0.00000000000E+00  0.28677827115E+02  0.28677827115E+02  0.00000000000E+00 0.  1.
          1   -1    0    0  501    0  0.00000000000E+00 -0.00000000000E+00 -0.73603506325E+03  0.73603506325E+03  0.00000000000E+00 0. -1.
         23    2    1    2    0    0 -0.11011829014E+02  0.45144296825E+02 -0.62469737888E+03  0.63305412193E+03  0.91386203551E+02 0.  0.
         23    2    1    2    0    0  0.11011829014E+02 -0.45144296825E+02 -0.82659857258E+02  0.13165876844E+03  0.91335159662E+02 0.  0.
          5    1    3    3  502    0  0.24723909595E+02  0.53174893976E+02 -0.26421203985E+03  0.27068234715E+03  0.47000000000E+01 0. -1.
         -5    1    4    4    0  503  0.48733174249E+01 -0.71154196002E+02 -0.42390941837E+02  0.83100847055E+02  0.47000000000E+01 0.  1.
          5    1    4    4  503    0  0.61385115896E+01  0.26009899178E+02 -0.40268915421E+02  0.48557921382E+02  0.47000000000E+01 0. -1.
         -5    1    3    3    0  502 -0.35735738610E+02 -0.80305971511E+01 -0.36048533903E+03  0.36237177478E+03  0.47000000000E+01 0.  1.
<mgrwt>
<rscale>  0 0.10251036E+03</rscale>
<asrwt>0</asrwt>
<pdfrwt beam="1">  1        1 0.11323616E+00 0.10252173E+03</pdfrwt>
<pdfrwt beam="2">  1       -1 0.44119734E-02 0.10252173E+03</pdfrwt>
<totfact> 0.53085644E+03</totfact>
</mgrwt>
</event>
<event>
 8    1  0.6396648E-004  0.1004303E+03  0.7546771E-02  0.1283840E+00
          1   -1    0    0  501    0  0.00000000000E+00  0.00000000000E+00  0.68250378956E+02  0.68250378956E+02  0.00000000000E+00 0. -1.
         -1   -1    0    0    0  501 -0.00000000000E+00 -0.00000000000E+00 -0.16746484978E+03  0.16746484978E+03  0.00000000000E+00 0.  1.
         23    2    1    2    0    0 -0.81502105514E+01 -0.16021364625E+02 -0.10230455539E+03  0.14336128651E+03  0.98808533839E+02 0.  0.
         23    2    1    2    0    0  0.81502105514E+01  0.16021364625E+02  0.30900845670E+01  0.92353942227E+02  0.90535031705E+02 0.  0.
          5    1    3    3  502    0  0.12051866392E+02 -0.43474818615E+02 -0.12289100480E+02  0.46993822230E+02  0.47000000000E+01 0. -1.
         -5    1    3    3    0  502 -0.20202076943E+02  0.27453453990E+02 -0.90015454911E+02  0.96367464279E+02  0.47000000000E+01 0.  1.
          5    1    4    4  503    0  0.25390228938E+02 -0.29038795470E+02  0.16258770833E+02  0.42123069651E+02  0.47000000000E+01 0. -1.
         -5    1    4    4    0  503 -0.17240018386E+02  0.45060160095E+02 -0.13168686266E+02  0.50230872576E+02  0.47000000000E+01 0.  1.
<mgrwt>
<rscale>  0 0.98333496E+02</rscale>
<asrwt>0</asrwt>
<pdfrwt beam="1">  1        1 0.10500058E-01 0.10043026E+03</pdfrwt>
<pdfrwt beam="2">  1       -1 0.25763823E-01 0.10043026E+03</pdfrwt>
<totfact> 0.73366416E+03</totfact>
</mgrwt>
</event>
<event>
 8    1  0.6396648E-004  0.1012764E+03  0.7546771E-02  0.1279499E+00
         -1   -1    0    0    0  501 -0.00000000000E+00  0.00000000000E+00  0.24163704933E+02  0.24163704933E+02  0.00000000000E+00 0.  1.
          1   -1    0    0  501    0  0.00000000000E+00 -0.00000000000E+00 -0.46524665276E+03  0.46524665276E+03  0.00000000000E+00 0. -1.
         23    2    1    2    0    0  0.10215957800E+02  0.44549147992E+02 -0.13951062095E+03  0.17239522677E+03  0.90376481853E+02 0.  0.
         23    2    1    2    0    0 -0.10215957800E+02 -0.44549147992E+02 -0.30157232688E+03  0.31701513093E+03  0.86392896236E+02 0.  0.
          5    1    3    3  502    0  0.36675456542E+02  0.29986716959E+02 -0.13283622210E+03  0.14110933424E+03  0.47000000000E+01 0. -1.
         -5    1    3    3    0  502 -0.26459498742E+02  0.14562431033E+02 -0.66743988513E+01  0.31285892528E+02  0.47000000000E+01 0.  1.
          5    1    4    4  503    0  0.35622351038E+02 -0.21262154434E+02 -0.18279373887E+03  0.18750112553E+03  0.47000000000E+01 0. -1.
         -5    1    4    4    0  503 -0.45838308838E+02 -0.23286993558E+02 -0.11877858801E+03  0.12951400540E+03  0.47000000000E+01 0.  1.
<mgrwt>
<rscale>  0 0.10037995E+03</rscale>
<asrwt>0</asrwt>
<pdfrwt beam="1">  1        1 0.71576402E-01 0.10127636E+03</pdfrwt>
<pdfrwt beam="2">  1       -1 0.37174934E-02 0.10127636E+03</pdfrwt>
<totfact> 0.12609533E+04</totfact>
</mgrwt>
</event>
<event>
 8    1  0.6396648E-004  0.1012331E+03  0.7546771E-02  0.1282346E+00
          2   -1    0    0  501    0  0.00000000000E+00  0.00000000000E+00  0.36870268009E+03  0.36870268009E+03  0.00000000000E+00 0. -1.
         -2   -1    0    0    0  501 -0.00000000000E+00 -0.00000000000E+00 -0.30899790940E+02  0.30899790940E+02  0.00000000000E+00 0.  1.
         23    2    1    2    0    0  0.56977664481E+01  0.17645765525E+02  0.91604160575E+02  0.13652638267E+03  0.99520316253E+02 0.  0.
         23    2    1    2    0    0 -0.56977664481E+01 -0.17645765525E+02  0.24619872858E+03  0.26307608836E+03  0.90837088959E+02 0.  0.
          5    1    4    4  502    0 -0.18273367780E+02  0.25949751035E+02  0.37052329294E+02  0.49012964152E+02  0.47000000000E+01 0. -1.
         -5    1    3    3    0  503  0.34729096150E+02 -0.24991466632E+02  0.65876952622E+02  0.78692734166E+02  0.47000000000E+01 0.  1.
          5    1    3    3  503    0 -0.29031329702E+02  0.42637232157E+02  0.25727207953E+02  0.57833648504E+02  0.47000000000E+01 0. -1.
         -5    1    4    4    0  502  0.12575601332E+02 -0.43595516560E+02  0.20914639929E+03  0.21406312421E+03  0.47000000000E+01 0.  1.
<mgrwt>
<rscale>  0 0.99031610E+02</rscale>
<asrwt>0</asrwt>
<pdfrwt beam="1">  1        2 0.56723486E-01 0.10123305E+03</pdfrwt>
<pdfrwt beam="2">  1       -2 0.47538143E-02 0.10123305E+03</pdfrwt>
<totfact> 0.16884193E+04</totfact>
</mgrwt>
</event>
<event>
 8    1  0.6396648E-004  0.1101501E+03  0.7546771E-02  0.1260561E+00
          1   -1    0    0  501    0  0.00000000000E+00  0.00000000000E+00  0.51790670537E+02  0.51790670537E+02  0.00000000000E+00 0. -1.
         -1   -1    0    0    0  501 -0.00000000000E+00 -0.00000000000E+00 -0.23469770215E+03  0.23469770215E+03  0.00000000000E+00 0.  1.
         23    2    1    2    0    0 -0.97574660508E+01 -0.55685348372E+02 -0.10324979437E+03  0.15055340023E+03  0.93860215837E+02 0.  0.
         23    2    1    2    0    0  0.97574660508E+01  0.55685348372E+02 -0.79657237248E+02  0.13593497246E+03  0.94535575971E+02 0.  0.
          5    1    3    3  502    0 -0.35854595725E+02 -0.13397164911E+02 -0.31410566654E+01  0.38690984728E+02  0.47000000000E+01 0. -1.
         -5    1    4    4    0  503  0.45752519151E+02  0.57240420977E+02 -0.47834839420E+02  0.87635727101E+02  0.47000000000E+01 0.  1.
          5    1    4    4  503    0 -0.35995053100E+02 -0.15550726047E+01 -0.31822397829E+02  0.48299245357E+02  0.47000000000E+01 0. -1.
         -5    1    3    3    0  502  0.26097129675E+02 -0.42288183461E+02 -0.10010873770E+03  0.11186241550E+03  0.47000000000E+01 0.  1.
<mgrwt>
<rscale>  0 0.11000503E+03</rscale>
<asrwt>0</asrwt>
<pdfrwt beam="1">  1        1 0.79677954E-02 0.11015009E+03</pdfrwt>
<pdfrwt beam="2">  1       -1 0.36107339E-01 0.11015009E+03</pdfrwt>
<totfact> 0.60528084E+03</totfact>
</mgrwt>
</event>
<event>
 8    1  0.6396648E-004  0.1409725E+03  0.7546771E-02  0.1216866E+00
         -1   -1    0    0    0  501 -0.00000000000E+00  0.00000000000E+00  0.18658622255E+03  0.18658622255E+03  0.00000000000E+00 0.  1.
          1   -1    0    0  501    0  0.00000000000E+00 -0.00000000000E+00 -0.16711488691E+03  0.16711488691E+03  0.00000000000E+00 0. -1.
         23    2    1    2    0    0 -0.41490677388E+02  0.76046284302E+02  0.12441934709E+03  0.17795318742E+03  0.93180734682E+02 0.  0.
         23    2    1    2    0    0  0.41490677388E+02 -0.76046284302E+02 -0.10494801145E+03  0.17574792204E+03  0.11121480715E+03 0.  0.
          5    1    4    4  502    0  0.16393284486E+02 -0.91884862995E+02 -0.11099494859E+03  0.14509836814E+03  0.47000000000E+01 0. -1.
         -5    1    4    4    0  502  0.25097392902E+02  0.15838578693E+02  0.60469371470E+01  0.30649553901E+02  0.47000000000E+01 0.  1.
          5    1    3    3  503    0  0.17867782308E+02  0.30981872045E+02  0.40462923685E+01  0.36298712401E+02  0.47000000000E+01 0. -1.
         -5    1    3    3    0  503 -0.59358459696E+02  0.45064412257E+02  0.12037305472E+03  0.14165447502E+03  0.47000000000E+01 0.  1.
<mgrwt>
<rscale>  0 0.13740330E+03</rscale>
<asrwt>0</asrwt>
<pdfrwt beam="1">  1        1 0.25709982E-01 0.14097250E+03</pdfrwt>
<pdfrwt beam="2">  1       -1 0.28705573E-01 0.14097250E+03</pdfrwt>
<totfact> 0.19864804E+03</totfact>
</mgrwt>
</event>
<event>
 8    1  0.6396648E-004  0.1028569E+03  0.7546771E-02  0.1274775E+00
         -3   -1    0    0    0  501 -0.00000000000E+00  0.00000000000E+00  0.25706042876E+03  0.25706042876E+03  0.00000000000E+00 0.  1.
          3   -1    0    0  501    0  0.00000000000E+00 -0.00000000000E+00 -0.13563627318E+03  0.13563627318E+03  0.00000000000E+00 0. -1.
         23    2    1    2    0    0 -0.27618014801E+02  0.40146407312E+02  0.22477531479E+03  0.24688513785E+03  0.89743191335E+02 0.  0.
         23    2    1    2    0    0  0.27618014801E+02 -0.40146407312E+02 -0.10335115921E+03  0.14581156409E+03  0.90581793712E+02 0.  0.
          5    1    3    3  502    0 -0.20836981942E+02  0.91725586409E+01  0.37494162826E+01  0.23547054401E+02  0.47000000000E+01 0. -1.
         -5    1    4    4    0  503 -0.16977016707E+02 -0.46742749485E+02 -0.81270938168E+02  0.95394754134E+02  0.47000000000E+01 0.  1.
          5    1    4    4  503    0  0.44595031508E+02  0.65963421721E+01 -0.22080221039E+02  0.50416809958E+02  0.47000000000E+01 0. -1.
         -5    1    3    3    0  502 -0.67810328581E+01  0.30973848672E+02  0.22102589851E+03  0.22333808345E+03  0.47000000000E+01 0.  1.
<mgrwt>
<rscale>  0 0.10267200E+03</rscale>
<asrwt>0</asrwt>
<pdfrwt beam="1">  1        3 0.20867119E-01 0.10285694E+03</pdfrwt>
<pdfrwt beam="2">  1       -3 0.39547758E-01 0.10285694E+03</pdfrwt>
<totfact> 0.29601402E+02</totfact>
</mgrwt>
</event>
<event>
 8    1  0.6396648E-004  0.9439822E+02  0.7546771E-02  0.1292642E+00
          2   -1    0    0  501    0  0.00000000000E+00  0.00000000000E+00  0.35791305433E+02  0.35791305433E+02  0.00000000000E+00 0. -1.
         -2   -1    0    0    0  501 -0.00000000000E+00 -0.00000000000E+00 -0.25091929412E+03  0.25091929412E+03  0.00000000000E+00 0.  1.
         23    2    1    2    0    0  0.21667690206E+02  0.64117301157E+01 -0.93545910551E+02  0.13289793255E+03  0.91653827055E+02 0.  0.
         23    2    1    2    0    0 -0.21667690206E+02 -0.64117301157E+01 -0.12158207813E+03  0.15381266700E+03  0.91463302607E+02 0.  0.
          5    1    4    4  502    0  0.29905385827E+02 -0.11161180264E+02 -0.15770998927E+02  0.35912650327E+02  0.47000000000E+01 0. -1.
         -5    1    4    4    0  502 -0.51573076033E+02  0.47494501481E+01 -0.10581107920E+03  0.11790001667E+03  0.47000000000E+01 0.  1.
          5    1    3    3  503    0 -0.25597594774E+02 -0.34177012308E+01 -0.77473766096E+02  0.81799706436E+02  0.47000000000E+01 0. -1.
         -5    1    3    3    0  503  0.47265284980E+02  0.98294313464E+01 -0.16072144455E+02  0.51098226116E+02  0.47000000000E+01 0.  1.
<mgrwt>
<rscale>  0 0.94351938E+02</rscale>
<asrwt>0</asrwt>
<pdfrwt beam="1">  1        2 0.55063546E-02 0.94398216E+02</pdfrwt>
<pdfrwt beam="2">  1       -2 0.38602969E-01 0.94398216E+02</pdfrwt>
<totfact> 0.80235001E+03</totfact>
</mgrwt>
</event>
<event>
 8    1  0.6396648E-004  0.9770497E+02  0.7546771E-02  0.1286914E+00
         -2   -1    0    0    0  501 -0.00000000000E+00  0.00000000000E+00  0.14782183026E+02  0.14782183026E+02  0.00000000000E+00 0.  1.
          2   -1    0    0  501    0  0.00000000000E+00 -0.00000000000E+00 -0.62557171566E+03  0.62557171566E+03  0.00000000000E+00 0. -1.
         23    2    1    2    0    0 -0.31779890522E+02  0.82837063160E+01 -0.30508190528E+03  0.32034548502E+03  0.92019995704E+02 0.  0.
         23    2    1    2    0    0  0.31779890522E+02 -0.82837063160E+01 -0.30570762735E+03  0.32000841367E+03  0.88711048720E+02 0.  0.
          5    1    3    3  502    0 -0.48631248715E+02 -0.15096907938E+02 -0.91870469888E+02  0.10514365515E+03  0.47000000000E+01 0. -1.
         -5    1    4    4    0  503  0.54816979197E+02  0.51287774399E+01 -0.11726562084E+03  0.12963225446E+03  0.47000000000E+01 0.  1.
          5    1    4    4  503    0 -0.23037088675E+02 -0.13412483756E+02 -0.18844200651E+03  0.19037615920E+03  0.47000000000E+01 0. -1.
         -5    1    3    3    0  502  0.16851358193E+02  0.23380614254E+02 -0.21321143540E+03  0.21520182987E+03  0.47000000000E+01 0.  1.
<mgrwt>
<rscale>  0 0.96918043E+02</rscale>
<asrwt>0</asrwt>
<pdfrwt beam="1">  1        2 0.96241802E-01 0.97704968E+02</pdfrwt>
<pdfrwt beam="2">  1       -2 0.22741820E-02 0.97704968E+02</pdfrwt>
<totfact> 0.27920838E+04</totfact>
</mgrwt>
</event>
<event>
 7    1  0.6396648E-004  0.1481880E+03  0.7546771E-02  0.1225105E+00
         -2   -1    0    0    0  501 -0.00000000000E+00  0.00000000000E+00  0.30196767141E+02  0.30196767141E+02  0.00000000000E+00 0.  1.
          2   -1    0    0  501    0  0.00000000000E+00 -0.00000000000E+00 -0.49457717993E+03  0.49457717993E+03  0.00000000000E+00 0. -1.
         23    2    1    2    0    0 -0.14153165464E+02 -0.42999557389E+01 -0.22623934918E+03  0.24429070482E+03  0.90966497295E+02 0.  0.
          5    1    3    3  502    0 -0.39986357085E+02 -0.27408223502E+02 -0.17902199761E+03  0.18552920281E+03  0.47000000000E+01 0. -1.
         -5    1    1    2    0  503  0.29637076797E+02  0.56194213402E+02 -0.40465372623E+02  0.75469744418E+02  0.47000000000E+01 0.  1.
          5    1    1    2  503    0 -0.15483911333E+02 -0.51894257663E+02 -0.19767569098E+03  0.20501349783E+03  0.47000000000E+01 0. -1.
         -5    1    3    3    0  502  0.25833191622E+02  0.23108267764E+02 -0.47217351578E+02  0.58761502010E+02  0.47000000000E+01 0.  1.
<mgrwt>
<rscale>  0 0.13159728E+03</rscale>
<asrwt>0</asrwt>
<pdfrwt beam="1">  1        2 0.76088795E-01 0.14818800E+03</pdfrwt>
<pdfrwt beam="2">  1       -2 0.46456566E-02 0.14818800E+03</pdfrwt>
<totfact> 0.13166609E+04</totfact>
</mgrwt>
</event>
<event>
 8    1  0.6396648E-004  0.9364337E+02  0.7546771E-02  0.1295811E+00
          2   -1    0    0  501    0  0.00000000000E+00  0.00000000000E+00  0.36157101801E+02  0.36157101801E+02  0.00000000000E+00 0. -1.
         -2   -1    0    0    0  501 -0.00000000000E+00 -0.00000000000E+00 -0.38942838632E+03  0.38942838632E+03  0.00000000000E+00 0.  1.
         23    2    1    2    0    0  0.10968056613E+02  0.15562857424E+02 -0.31186813284E+03  0.32562372918E+03  0.91687403295E+02 0.  0.
         23    2    1    2    0    0 -0.10968056613E+02 -0.15562857424E+02 -0.41403151672E+02  0.99961758940E+02  0.88969834691E+02 0.  0.
          5    1    3    3  502    0  0.46909838802E+02 -0.97243545701E+01 -0.13529488175E+03  0.14360324187E+03  0.47000000000E+01 0. -1.
         -5    1    4    4    0  503  0.31877715241E+02  0.12837434008E+02 -0.32595293055E+02  0.47597600467E+02  0.47000000000E+01 0.  1.
          5    1    4    4  503    0 -0.42845771854E+02 -0.28400291432E+02 -0.88078586176E+01  0.52364158473E+02  0.47000000000E+01 0. -1.
         -5    1    3    3    0  502 -0.35941782189E+02  0.25287211994E+02 -0.17657325109E+03  0.18202048731E+03  0.47000000000E+01 0.  1.
<mgrwt>
<rscale>  0 0.92971389E+02</rscale>
<asrwt>0</asrwt>
<pdfrwt beam="1">  1        2 0.55626309E-02 0.93643370E+02</pdfrwt>
<pdfrwt beam="2">  1       -2 0.59912061E-01 0.93643370E+02</pdfrwt>
<totfact> 0.33598871E+03</totfact>
</mgrwt>
</event>
<event>
 8    1  0.6396648E-004  0.9800720E+02  0.7546771E-02  0.1284994E+00
          1   -1    0    0  501    0  0.00000000000E+00  0.00000000000E+00  0.33271399821E+02  0.33271399821E+02  0.00000000000E+00 0. -1.
         -1   -1    0    0    0  501 -0.00000000000E+00 -0.00000000000E+00 -0.35138492990E+03  0.35138492990E+03  0.00000000000E+00 0.  1.
         23    2    1    2    0    0 -0.29419227518E+02  0.16179486169E+02 -0.24130549950E+03  0.26013771746E+03  0.91192221356E+02 0.  0.
         23    2    1    2    0    0  0.29419227518E+02 -0.16179486169E+02 -0.76808030585E+02  0.12451861227E+03  0.92076840291E+02 0.  0.
          5    1    3    3  502    0  0.23541364587E+02  0.20274502271E+02 -0.15894228974E+03  0.16201849511E+03  0.47000000000E+01 0. -1.
         -5    1    4    4    0  503  0.53373859673E+02  0.14816106567E+02 -0.59518868910E+02  0.81442443888E+02  0.47000000000E+01 0. -1.
          5    1    4    4  503    0 -0.23954632155E+02 -0.30995592736E+02 -0.17289161675E+02  0.43076168378E+02  0.47000000000E+01 0.  1.
         -5    1    3    3    0  502 -0.52960592106E+02 -0.40950161020E+01 -0.82363209755E+02  0.98119222348E+02  0.47000000000E+01 0.  1.
<mgrwt>
<rscale>  0 0.97798882E+02</rscale>
<asrwt>0</asrwt>
<pdfrwt beam="1">  1        1 0.51186768E-02 0.98007200E+02</pdfrwt>
<pdfrwt beam="2">  1       -1 0.54059221E-01 0.98007200E+02</pdfrwt>
<totfact> 0.53132902E+03</totfact>
</mgrwt>
</event>
<event>
 8    1  0.6396648E-004  0.9356624E+02  0.7546771E-02  0.1294580E+00
         -2   -1    0    0    0  501 -0.00000000000E+00  0.00000000000E+00  0.14689052203E+03  0.14689052203E+03  0.00000000000E+00 0.  1.
          2   -1    0    0  501    0  0.00000000000E+00 -0.00000000000E+00 -0.11519543632E+03  0.11519543632E+03  0.00000000000E+00 0. -1.
         23    2    1    2    0    0 -0.18961884182E+01 -0.21169436484E+02  0.10700158325E+03  0.14197888125E+03  0.90867614325E+02 0.  0.
         23    2    1    2    0    0  0.18961884182E+01  0.21169436484E+02 -0.75306497539E+02  0.12010707710E+03  0.91120254748E+02 0.  0.
          5    1    4    4  502    0 -0.25577407416E+02  0.38684547627E+02 -0.73631010042E+02  0.87145359229E+02  0.47000000000E+01 0. -1.
         -5    1    3    3    0  503  0.31440981575E+02 -0.85841089261E+01  0.10010385703E+03  0.10538071190E+03  0.47000000000E+01 0.  1.
          5    1    3    3  503    0 -0.33337169993E+02 -0.12585327558E+02  0.68977262147E+01  0.36598169351E+02  0.47000000000E+01 0. -1.
         -5    1    4    4    0  502  0.27473595834E+02 -0.17515111143E+02 -0.16754874971E+01  0.32961717868E+02  0.47000000000E+01 0.  1.
<mgrwt>
<rscale>  0 0.93504675E+02</rscale>
<asrwt>0</asrwt>
<pdfrwt beam="1">  1        2 0.17722375E-01 0.93566241E+02</pdfrwt>
<pdfrwt beam="2">  1       -2 0.22598542E-01 0.93566241E+02</pdfrwt>
<totfact> 0.50424547E+03</totfact>
</mgrwt>
</event>
<event>
 8    1  0.6396648E-004  0.1186681E+03  0.7546771E-02  0.1245948E+00
          2   -1    0    0  501    0  0.00000000000E+00  0.00000000000E+00  0.94187854911E+02  0.94187854911E+02  0.00000000000E+00 0. -1.
         -2   -1    0    0    0  501 -0.00000000000E+00 -0.00000000000E+00 -0.15270390399E+03  0.15270390399E+03  0.00000000000E+00 0.  1.
         23    2    1    2    0    0  0.39312562819E+02  0.63282378836E+02 -0.68966304108E+01  0.11886838629E+03  0.92368786302E+02 0.  0.
         23    2    1    2    0    0 -0.39312562819E+02 -0.63282378836E+02 -0.51619418667E+02  0.12802337261E+03  0.90417268723E+02 0.  0.
          5    1    4    4  502    0 -0.64647677829E+02 -0.35685059322E+02 -0.51703149282E+02  0.90266557224E+02  0.47000000000E+01 0. -1.
         -5    1    3    3    0  503  0.29684828902E+02 -0.59773137232E+01 -0.32112023816E+02  0.44386815834E+02  0.47000000000E+01 0.  1.
          5    1    3    3  503    0  0.96277339164E+01  0.69259692559E+02  0.25215393405E+02  0.74481570461E+02  0.47000000000E+01 0. -1.
         -5    1    4    4    0  502  0.25335115010E+02 -0.27597319514E+02  0.83730615073E-01  0.37756815382E+02  0.47000000000E+01 0.  1.
<mgrwt>
<rscale>  0 0.11828818E+03</rscale>
<asrwt>0</asrwt>
<pdfrwt beam="1">  1        2 0.14490439E-01 0.11866815E+03</pdfrwt>
<pdfrwt beam="2">  1       -2 0.23492909E-01 0.11866815E+03</pdfrwt>
<totfact> 0.60566830E+03</totfact>
</mgrwt>
</event>
<event>
 8    1  0.6396648E-004  0.1127991E+03  0.7546771E-02  0.1256592E+00
          3   -1    0    0  501    0  0.00000000000E+00  0.00000000000E+00  0.75007938586E+02  0.75007938586E+02  0.00000000000E+00 0. -1.
         -3   -1    0    0    0  501 -0.00000000000E+00 -0.00000000000E+00 -0.24745270443E+03  0.24745270443E+03  0.00000000000E+00 0.  1.
         23    2    1    2    0    0  0.40409164040E+02  0.48182397421E+02  0.69524077258E+01  0.11054796300E+03  0.90653583440E+02 0.  0.
         23    2    1    2    0    0 -0.40409164040E+02 -0.48182397421E+02 -0.17939717357E+03  0.21191268002E+03  0.93643975288E+02 0.  0.
          5    1    3    3  502    0  0.64051154858E+02  0.33513455912E+02  0.25479610123E+02  0.76791944225E+02  0.47000000000E+01 0. -1.
         -5    1    4    4    0  503 -0.17441565225E+02 -0.31772806472E+02 -0.17961503459E+03  0.18329585396E+03  0.47000000000E+01 0.  1.
          5    1    4    4  503    0 -0.22967598815E+02 -0.16409590949E+02  0.21786101397E+00  0.28616826062E+02  0.47000000000E+01 0. -1.
         -5    1    3    3    0  502 -0.23641990818E+02  0.14668941509E+02 -0.18527202397E+02  0.33756018775E+02  0.47000000000E+01 0.  1.
<mgrwt>
<rscale>  0 0.11217647E+03</rscale>
<asrwt>0</asrwt>
<pdfrwt beam="1">  1        3 0.11539683E-01 0.11279910E+03</pdfrwt>
<pdfrwt beam="2">  1       -3 0.38069647E-01 0.11279910E+03</pdfrwt>
<totfact> 0.88842160E+02</totfact>
</mgrwt>
</event>
<event>
 8    1  0.6396648E-004  0.1251457E+03  0.7546771E-02  0.1235446E+00
          4   -1    0    0  501    0  0.00000000000E+00  0.00000000000E+00  0.48221504662E+02  0.48221504662E+02  0.00000000000E+00 0. -1.
         -4   -1    0    0    0  501 -0.00000000000E+00 -0.00000000000E+00 -0.36379536652E+03  0.36379536652E+03  0.00000000000E+00 0.  1.
         23    2    1    2    0    0  0.52289157402E+02  0.68352525111E+02 -0.86108924315E+02  0.15064434675E+03  0.88728511138E+02 0.  0.
         23    2    1    2    0    0 -0.52289157402E+02 -0.68352525111E+02 -0.22946493754E+03  0.26137252444E+03  0.90858215357E+02 0.  0.
          5    1    4    4  502    0 -0.55786890817E+02 -0.37664098166E+02 -0.64052197635E+02  0.93035130459E+02  0.47000000000E+01 0. -1.
         -5    1    3    3    0  503  0.25670641114E+02 -0.17669481124E+02 -0.11293322735E+02  0.33478672566E+02  0.47000000000E+01 0.  1.
          5    1    3    3  503    0  0.26618516288E+02  0.86022006235E+02 -0.74815601580E+02  0.11716567418E+03  0.47000000000E+01 0. -1.
         -5    1    4    4    0  502  0.34977334142E+01 -0.30688426945E+02 -0.16541273991E+03  0.16833739398E+03  0.47000000000E+01 0.  1.
<mgrwt>
<rscale>  0 0.12475950E+03</rscale>
<asrwt>0</asrwt>
<pdfrwt beam="1">  1        4 0.74186929E-02 0.12514567E+03</pdfrwt>
<pdfrwt beam="2">  1       -4 0.55968519E-01 0.12514567E+03</pdfrwt>
<totfact> 0.62661152E+02</totfact>
</mgrwt>
</event>
<event>
 8    1  0.6396648E-004  0.1142028E+03  0.7546771E-02  0.1253262E+00
         -1   -1    0    0    0  501 -0.00000000000E+00  0.00000000000E+00  0.54095481419E+02  0.54095481419E+02  0.00000000000E+00 0.  1.
          1   -1    0    0  501    0  0.00000000000E+00 -0.00000000000E+00 -0.40975303363E+03  0.40975303363E+03  0.00000000000E+00 0. -1.
         23    2    1    2    0    0  0.28401423309E+02  0.61681347229E+02 -0.32692424730E+03  0.34608656967E+03  0.91023188228E+02 0.  0.
         23    2    1    2    0    0 -0.28401423309E+02 -0.61681347229E+02 -0.28733304916E+02  0.11776194538E+03  0.91820714036E+02 0.  0.
          5    1    4    4  502    0  0.12180048188E+02 -0.25820647160E+02  0.27238515308E+02  0.39737716465E+02  0.47000000000E+01 0. -1.
         -5    1    3    3    0  503 -0.14520994426E+02 -0.17233741328E+02 -0.81798917540E+02  0.84976549883E+02  0.47000000000E+01 0.  1.
          5    1    3    3  503    0  0.42922417735E+02  0.78915088557E+02 -0.24512532976E+03  0.26111001979E+03  0.47000000000E+01 0. -1.
         -5    1    4    4    0  502 -0.40581471497E+02 -0.35860700069E+02 -0.55971820225E+02  0.78024228914E+02  0.47000000000E+01 0.  1.
<mgrwt>
<rscale>  0 0.11404238E+03</rscale>
<asrwt>0</asrwt>
<pdfrwt beam="1">  1        1 0.63038929E-01 0.11420277E+03</pdfrwt>
<pdfrwt beam="2">  1       -1 0.83223817E-02 0.11420277E+03</pdfrwt>
<totfact> 0.45414757E+03</totfact>
</mgrwt>
</event>
<event>
 8    1  0.6396648E-004  0.9928961E+02  0.7546771E-02  0.1282645E+00
         -1   -1    0    0    0  501 -0.00000000000E+00  0.00000000000E+00  0.16275589027E+02  0.16275589027E+02  0.00000000000E+00 0.  1.
          1   -1    0    0  501    0  0.00000000000E+00 -0.00000000000E+00 -0.59791610998E+03  0.59791610998E+03  0.00000000000E+00 0. -1.
         23    2    1    2    0    0 -0.18638641357E+02  0.29529011501E+02 -0.31010598868E+03  0.32561349811E+03  0.92946567786E+02 0.  0.
         23    2    1    2    0    0  0.18638641357E+02 -0.29529011501E+02 -0.27153453227E+03  0.28857820090E+03  0.91252475830E+02 0.  0.
          5    1    3    3  502    0 -0.42842436113E+02 -0.10034372657E+02 -0.21726657859E+03  0.22172735316E+03  0.47000000000E+01 0. -1.
         -5    1    4    4    0  503 -0.33720819874E+02 -0.24157426066E+02 -0.15675052313E+03  0.16221433793E+03  0.47000000000E+01 0.  1.
          5    1    4    4  503    0  0.52359461230E+02 -0.53715854353E+01 -0.11478400914E+03  0.12636386297E+03  0.47000000000E+01 0. -1.
         -5    1    3    3    0  502  0.24203794756E+02  0.39563384158E+02 -0.92839410095E+02  0.10388614495E+03  0.47000000000E+01 0.  1.
<mgrwt>
<rscale>  0 0.98891202E+02</rscale>
<asrwt>0</asrwt>
<pdfrwt beam="1">  1        1 0.91987107E-01 0.99289606E+02</pdfrwt>
<pdfrwt beam="2">  1       -1 0.25039364E-02 0.99289606E+02</pdfrwt>
<totfact> 0.16060410E+04</totfact>
</mgrwt>
</event>
<event>
 8    1  0.6396648E-004  0.9445655E+02  0.7546771E-02  0.1292433E+00
         -1   -1    0    0    0  501 -0.00000000000E+00  0.00000000000E+00  0.16598376379E+02  0.16598376379E+02  0.00000000000E+00 0.  1.
          1   -1    0    0  501    0  0.00000000000E+00 -0.00000000000E+00 -0.58744180079E+03  0.58744180079E+03  0.00000000000E+00 0. -1.
         23    2    1    2    0    0  0.23216562246E+00  0.29100364315E+02 -0.37364063864E+03  0.38538295817E+03  0.89809868609E+02 0.  0.
         23    2    1    2    0    0 -0.23216562246E+00 -0.29100364315E+02 -0.19720278577E+03  0.21865721900E+03  0.89861869560E+02 0.  0.
          5    1    3    3  502    0  0.32853944179E+02  0.46224616177E+02 -0.20933527748E+03  0.21693189066E+03  0.47000000000E+01 0. -1.
         -5    1    4    4    0  503  0.39285416824E+02 -0.36491058826E+02 -0.10629543106E+03  0.11914591900E+03  0.47000000000E+01 0.  1.
          5    1    4    4  503    0 -0.39517582447E+02  0.73906945112E+01 -0.90907354715E+02  0.99511300007E+02  0.47000000000E+01 0. -1.
         -5    1    3    3    0  502 -0.32621778557E+02 -0.17124251862E+02 -0.16430536116E+03  0.16845106751E+03  0.47000000000E+01 0.  1.
<mgrwt>
<rscale>  0 0.94444185E+02</rscale>
<asrwt>0</asrwt>
<pdfrwt beam="1">  1        1 0.90375679E-01 0.94456555E+02</pdfrwt>
<pdfrwt beam="2">  1       -1 0.25535959E-02 0.94456555E+02</pdfrwt>
<totfact> 0.15916120E+04</totfact>
</mgrwt>
</event>
<event>
 8    1  0.6396648E-004  0.1278750E+03  0.7546771E-02  0.1230911E+00
         -1   -1    0    0    0  501 -0.00000000000E+00  0.00000000000E+00  0.30223243849E+03  0.30223243849E+03  0.00000000000E+00 0.  1.
          1   -1    0    0  501    0  0.00000000000E+00 -0.00000000000E+00 -0.58365797057E+02  0.58365797057E+02  0.00000000000E+00 0. -1.
         23    2    1    2    0    0  0.47341936270E+02  0.75810538246E+02  0.71228818655E+02  0.14575915287E+03  0.90463746328E+02 0.  0.
         23    2    1    2    0    0 -0.47341936270E+02 -0.75810538246E+02  0.17263782278E+03  0.21483908268E+03  0.91452265982E+02 0.  0.
          5    1    3    3  502    0  0.67811847434E+02  0.80748282310E+02  0.57673705761E+02  0.12027916729E+03  0.47000000000E+01 0. -1.
         -5    1    3    3    0  502 -0.20469911164E+02 -0.49377440640E+01  0.13555112894E+02  0.25479985578E+02  0.47000000000E+01 0.  1.
          5    1    4    4  503    0  0.22218457887E+02 -0.39370737702E+02  0.39598162722E+02  0.60281169108E+02  0.47000000000E+01 0. -1.
         -5    1    4    4    0  503 -0.69560394158E+02 -0.36439800545E+02  0.13303966006E+03  0.15455791357E+03  0.47000000000E+01 0.  1.
<mgrwt>
<rscale>  0 0.12769836E+03</rscale>
<asrwt>0</asrwt>
<pdfrwt beam="1">  1        1 0.89793536E-02 0.12787499E+03</pdfrwt>
<pdfrwt beam="2">  1       -1 0.46497297E-01 0.12787499E+03</pdfrwt>
<totfact> 0.33454281E+03</totfact>
</mgrwt>
</event>
<event>
 8    1  0.6396648E-004  0.9816071E+02  0.7546771E-02  0.1284587E+00
         -2   -1    0    0    0  501 -0.00000000000E+00  0.00000000000E+00  0.20154664575E+02  0.20154664575E+02  0.00000000000E+00 0.  1.
          2   -1    0    0  501    0  0.00000000000E+00 -0.00000000000E+00 -0.76961216935E+03  0.76961216935E+03  0.00000000000E+00 0. -1.
         23    2    1    2    0    0 -0.33237001522E+02  0.17062164667E+02 -0.61998466043E+03  0.62770733923E+03  0.90772841907E+02 0.  0.
         23    2    1    2    0    0  0.33237001522E+02 -0.17062164667E+02 -0.12947284435E+03  0.16205949469E+03  0.90023589480E+02 0.  0.
          5    1    3    3  502    0 -0.43843481191E+02 -0.24919526815E+02 -0.24351401823E+03  0.24872555304E+03  0.47000000000E+01 0. -1.
         -5    1    4    4    0  503  0.17637500869E+02  0.21151785149E+02 -0.20247991011E+01  0.28011948581E+02  0.47000000000E+01 0.  1.
          5    1    4    4  503    0  0.15599500653E+02 -0.38213949816E+02 -0.12744804525E+03  0.13404754611E+03  0.47000000000E+01 0. -1.
         -5    1    3    3    0  502  0.10606479668E+02  0.41981691482E+02 -0.37647064220E+03  0.37898178619E+03  0.47000000000E+01 0.  1.
<mgrwt>
<rscale>  0 0.97987137E+02</rscale>
<asrwt>0</asrwt>
<pdfrwt beam="1">  1        2 0.11840185E+00 0.98160708E+02</pdfrwt>
<pdfrwt beam="2">  1       -2 0.31007181E-02 0.98160708E+02</pdfrwt>
<totfact> 0.13981153E+04</totfact>
</mgrwt>
</event>
<event>
 8    1  0.6396648E-004  0.1327439E+03  0.7546771E-02  0.1234449E+00
         -1   -1    0    0    0  501 -0.00000000000E+00  0.00000000000E+00  0.26748465131E+03  0.26748465131E+03  0.00000000000E+00 0.  1.
          1   -1    0    0  501    0  0.00000000000E+00 -0.00000000000E+00 -0.75119309950E+02  0.75119309950E+02  0.00000000000E+00 0. -1.
         23    2    1    2    0    0  0.47793949937E+02 -0.83253842146E-01 -0.37638072708E+01  0.10577578585E+03  0.94287231610E+02 0.  0.
         23    2    1    2    0    0 -0.47793949937E+02  0.83253842146E-01  0.19612914863E+03  0.23682817541E+03  0.12384132245E+03 0.  0.
          5    1    4    4  502    0  0.27793514291E+02 -0.35046816885E+02  0.99088869151E+02  0.10881843961E+03  0.47000000000E+01 0. -1.
         -5    1    3    3    0  503 -0.16239698490E+02  0.28789625765E+02  0.81716563349E+01  0.34372028250E+02  0.47000000000E+01 0.  1.
          5    1    3    3  503    0  0.64033648427E+02 -0.28872879607E+02 -0.11935463606E+02  0.71403757598E+02  0.47000000000E+01 0. -1.
         -5    1    4    4    0  502 -0.75587464228E+02  0.35130070728E+02  0.97040279481E+02  0.12800973580E+03  0.47000000000E+01 0.  1.
<mgrwt>
<rscale>  0 0.12539745E+03</rscale>
<asrwt>0</asrwt>
<pdfrwt beam="1">  1        1 0.11556817E-01 0.13274390E+03</pdfrwt>
<pdfrwt beam="2">  1       -1 0.41151484E-01 0.13274390E+03</pdfrwt>
<totfact> 0.29835989E+03</totfact>
</mgrwt>
</event>
<event>
 8    1  0.6396648E-004  0.2070822E+03  0.7546771E-02  0.1144037E+00
          2   -1    0    0  501    0  0.00000000000E+00  0.00000000000E+00  0.82024814567E+03  0.82024814567E+03  0.00000000000E+00 0. -1.
         -2   -1    0    0    0  501 -0.00000000000E+00 -0.00000000000E+00 -0.54685705264E+02  0.54685705264E+02  0.00000000000E+00 0.  1.
         23    2    1    2    0    0 -0.33760937109E+02 -0.18291561915E+03  0.47839755466E+03  0.52129383349E+03  0.91022612164E+02 0.  0.
         23    2    1    2    0    0  0.33760937109E+02  0.18291561915E+03  0.28716488574E+03  0.35364001744E+03  0.89440850441E+02 0.  0.
          5    1    4    4  502    0  0.45734888954E+01  0.15480864321E+03  0.26561319953E+03  0.30750462530E+03  0.47000000000E+01 0.  1.
         -5    1    3    3    0  503  0.23048720898E+02 -0.11764236471E+03  0.26062802437E+03  0.28691466780E+03  0.47000000000E+01 0.  1.
          5    1    3    3  503    0 -0.56809658006E+02 -0.65273254442E+02  0.21776953029E+03  0.23437916570E+03  0.47000000000E+01 0. -1.
         -5    1    4    4    0  502  0.29187448213E+02  0.28106975942E+02  0.21551686211E+02  0.46135392145E+02  0.47000000000E+01 0. -1.
<mgrwt>
<rscale>  0 0.20690940E+03</rscale>
<asrwt>0</asrwt>
<pdfrwt beam="1">  1        2 0.12619201E+00 0.20708221E+03</pdfrwt>
<pdfrwt beam="2">  1       -2 0.84131860E-02 0.20708221E+03</pdfrwt>
<totfact> 0.29768701E+03</totfact>
</mgrwt>
</event>
<event>
 8    1  0.6396648E-004  0.9310880E+02  0.7546771E-02  0.1295768E+00
         -1   -1    0    0    0  501 -0.00000000000E+00  0.00000000000E+00  0.10488016707E+03  0.10488016707E+03  0.00000000000E+00 0.  1.
          1   -1    0    0  501    0  0.00000000000E+00 -0.00000000000E+00 -0.83867765431E+02  0.83867765431E+02  0.00000000000E+00 0. -1.
         23    2    1    2    0    0 -0.15970592120E+02  0.12293224110E+02  0.23631975067E+02  0.95602287171E+02  0.90416502338E+02 0.  0.
         23    2    1    2    0    0  0.15970592120E+02 -0.12293224110E+02 -0.26195734323E+01  0.93145645326E+02  0.90901407616E+02 0.  0.
          5    1    3    3  502    0  0.21190543471E+02 -0.24621270482E+02 -0.85870190801E+01  0.33927466594E+02  0.47000000000E+01 0. -1.
         -5    1    4    4    0  503 -0.14690954216E+02  0.17558131650E+02  0.30787934718E+02  0.38653577415E+02  0.47000000000E+01 0.  1.
          5    1    4    4  503    0  0.30661546336E+02 -0.29851355759E+02 -0.33407508150E+02  0.54492067911E+02  0.47000000000E+01 0. -1.
         -5    1    3    3    0  502 -0.37161135591E+02  0.36914494592E+02  0.32218994147E+02  0.61674820577E+02  0.47000000000E+01 0.  1.
<mgrwt>
<rscale>  0 0.92990239E+02</rscale>
<asrwt>0</asrwt>
<pdfrwt beam="1">  1        1 0.12902733E-01 0.93108802E+02</pdfrwt>
<pdfrwt beam="2">  1       -1 0.16135410E-01 0.93108802E+02</pdfrwt>
<totfact> 0.11756867E+04</totfact>
</mgrwt>
</event>
<event>
 8    1  0.6396648E-004  0.1111811E+03  0.7546771E-02  0.1259988E+00
          1   -1    0    0  501    0  0.00000000000E+00  0.00000000000E+00  0.10840217148E+04  0.10840217148E+04  0.00000000000E+00 0. -1.
         -1   -1    0    0    0  501 -0.00000000000E+00 -0.00000000000E+00 -0.11156646421E+02  0.11156646421E+02  0.00000000000E+00 0.  1.
         23    2    1    2    0    0 -0.31568855046E+02  0.53067174086E+02  0.59710720027E+03  0.60736994330E+03  0.92458216718E+02 0.  0.
         23    2    1    2    0    0  0.31568855046E+02 -0.53067174086E+02  0.47575786810E+03  0.48780841791E+03  0.88310735195E+02 0.  0.
          5    1    4    4  502    0  0.20086950835E+02 -0.75794690891E+02  0.29820523300E+03  0.30837764470E+03  0.47000000000E+01 0. -1.
         -5    1    3    3    0  503  0.19043467152E+02  0.28611601852E+02  0.80025587442E+02  0.87220766147E+02  0.47000000000E+01 0.  1.
          5    1    3    3  503    0 -0.50612322198E+02  0.24455572234E+02  0.51708161283E+03  0.52014917716E+03  0.47000000000E+01 0. -1.
         -5    1    4    4    0  502  0.11481904211E+02  0.22727516806E+02  0.17755263510E+03  0.17943077321E+03  0.47000000000E+01 0.  1.
<mgrwt>
<rscale>  0 0.11031494E+03</rscale>
<asrwt>0</asrwt>
<pdfrwt beam="1">  1        1 0.16677249E+00 0.11118111E+03</pdfrwt>
<pdfrwt beam="2">  1       -1 0.17164080E-02 0.11118111E+03</pdfrwt>
<totfact> 0.11317051E+04</totfact>
</mgrwt>
</event>
<event>
 8    1  0.6396648E-004  0.9498566E+02  0.7546771E-02  0.1293957E+00
         -3   -1    0    0    0  501 -0.00000000000E+00  0.00000000000E+00  0.30479273895E+02  0.30479273895E+02  0.00000000000E+00 0.  1.
          3   -1    0    0  501    0  0.00000000000E+00 -0.00000000000E+00 -0.30695394200E+03  0.30695394200E+03  0.00000000000E+00 0. -1.
         23    2    1    2    0    0  0.21392769814E+02 -0.83089511706E+00 -0.92824415142E+02  0.13281057146E+03  0.92541530455E+02 0.  0.
         23    2    1    2    0    0 -0.21392769814E+02  0.83089511706E+00 -0.18365025297E+03  0.20462264443E+03  0.87662250790E+02 0.  0.
          5    1    3    3  502    0 -0.13909965095E+02 -0.37386904124E+02 -0.59743776049E+02  0.71990808479E+02  0.47000000000E+01 0. -1.
         -5    1    4    4    0  503 -0.10326954247E+02 -0.40234407113E+02 -0.12650434283E+03  0.13323247448E+03  0.47000000000E+01 0.  1.
          5    1    4    4  503    0 -0.11065815568E+02  0.41065302231E+02 -0.57145910133E+02  0.71390169956E+02  0.47000000000E+01 0. -1.
         -5    1    3    3    0  502  0.35302734909E+02  0.36556009007E+02 -0.33080639093E+02  0.60819762984E+02  0.47000000000E+01 0.  1.
<mgrwt>
<rscale>  0 0.93775992E+02</rscale>
<asrwt>0</asrwt>
<pdfrwt beam="1">  1        3 0.47223686E-01 0.94985661E+02</pdfrwt>
<pdfrwt beam="2">  1       -3 0.46891188E-02 0.94985661E+02</pdfrwt>
<totfact> 0.24191976E+03</totfact>
</mgrwt>
</event>
<event>
 8    1  0.6396648E-004  0.9474179E+02  0.7546771E-02  0.1292838E+00
         -2   -1    0    0    0  501 -0.00000000000E+00  0.00000000000E+00  0.92092743276E+02  0.92092743276E+02  0.00000000000E+00 0.  1.
          2   -1    0    0  501    0  0.00000000000E+00 -0.00000000000E+00 -0.95778562239E+02  0.95778562239E+02  0.00000000000E+00 0. -1.
         23    2    1    2    0    0  0.16165447072E+02  0.17227557934E+02 -0.65700919328E+01  0.93085617735E+02  0.89797860162E+02 0.  0.
         23    2    1    2    0    0 -0.16165447072E+02 -0.17227557934E+02  0.28842729692E+01  0.94785687780E+02  0.91749098884E+02 0.  0.
          5    1    4    4  502    0 -0.51652061150E+02 -0.26401828579E+01 -0.12108099608E+02  0.53325435419E+02  0.47000000000E+01 0. -1.
         -5    1    4    4    0  502  0.35486614078E+02 -0.14587375077E+02  0.14992372577E+02  0.41460252361E+02  0.47000000000E+01 0.  1.
          5    1    3    3  503    0 -0.27078703370E+02 -0.18868968940E+02 -0.13837349899E+02  0.36095102400E+02  0.47000000000E+01 0. -1.
         -5    1    3    3    0  503  0.43244150442E+02  0.36096526874E+02  0.72672579663E+01  0.56990515335E+02  0.47000000000E+01 0.  1.
<mgrwt>
<rscale>  0 0.94266142E+02</rscale>
<asrwt>0</asrwt>
<pdfrwt beam="1">  1        2 0.14735163E-01 0.94741794E+02</pdfrwt>
<pdfrwt beam="2">  1       -2 0.14168114E-01 0.94741794E+02</pdfrwt>
<totfact> 0.13509174E+04</totfact>
</mgrwt>
</event>
<event>
 7    1  0.6396648E-004  0.2519307E+03  0.7546771E-02  0.1120964E+00
         -1   -1    0    0    0  501 -0.00000000000E+00  0.00000000000E+00  0.81080877231E+02  0.81080877231E+02  0.00000000000E+00 0.  1.
          1   -1    0    0  501    0  0.00000000000E+00 -0.00000000000E+00 -0.66401122419E+03  0.66401122419E+03  0.00000000000E+00 0. -1.
         23    2    1    2    0    0  0.15034959206E+03  0.96434599451E+02 -0.18172972776E+03  0.27135062009E+03  0.93278257196E+02 0.  0.
          5    1    3    3  502    0  0.16115208787E+03  0.76733812042E+02 -0.16152621978E+03  0.24077143313E+03  0.47000000000E+01 0. -1.
         -5    1    3    3    0  502 -0.10802495808E+02  0.19700787410E+02 -0.20203507979E+02  0.30579186956E+02  0.47000000000E+01 0.  1.
          5    1    1    2  503    0  0.11835677221E+02 -0.26234037196E+02  0.60421515161E+01  0.29780959653E+02  0.47000000000E+01 0. -1.
         -5    1    1    2    0  503 -0.16218526928E+03 -0.70200562255E+02 -0.40724277071E+03  0.44396052168E+03  0.47000000000E+01 0.  1.
<mgrwt>
<rscale>  0 0.23825050E+03</rscale>
<asrwt>0</asrwt>
<pdfrwt beam="1">  1        1 0.10215557E+00 0.25193065E+03</pdfrwt>
<pdfrwt beam="2">  1       -1 0.12473981E-01 0.25193065E+03</pdfrwt>
<totfact> 0.13121910E+03</totfact>
</mgrwt>
</event>
<event>
 8    1  0.6396648E-004  0.1268963E+03  0.7546771E-02  0.1237728E+00
         -2   -1    0    0    0  501 -0.00000000000E+00  0.00000000000E+00  0.19689917816E+02  0.19689917816E+02  0.00000000000E+00 0.  1.
          2   -1    0    0  501    0  0.00000000000E+00 -0.00000000000E+00 -0.78244620251E+03  0.78244620251E+03  0.00000000000E+00 0. -1.
         23    2    1    2    0    0 -0.84402325331E+00 -0.67167062434E+02 -0.46295763887E+03  0.47658749303E+03  0.91069953766E+02 0.  0.
         23    2    1    2    0    0  0.84402325331E+00  0.67167062434E+02 -0.29979864583E+03  0.32554862729E+03  0.10765943545E+03 0.  0.
          5    1    4    4  502    0  0.17310180398E+02  0.81517878429E+02 -0.28885018304E+03  0.30066813115E+03  0.47000000000E+01 0. -1.
         -5    1    4    4    0  502 -0.16466157145E+02 -0.14350815995E+02 -0.10948462790E+02  0.24880496143E+02  0.47000000000E+01 0.  1.
          5    1    3    3  503    0 -0.27948784491E+02 -0.36969374235E+01 -0.47698844996E+02  0.55606399944E+02  0.47000000000E+01 0. -1.
         -5    1    3    3    0  503  0.27104761238E+02 -0.63470125011E+02 -0.41525879387E+03  0.42098109309E+03  0.47000000000E+01 0.  1.
<mgrwt>
<rscale>  0 0.12331415E+03</rscale>
<asrwt>0</asrwt>
<pdfrwt beam="1">  1        2 0.12037635E+00 0.12689634E+03</pdfrwt>
<pdfrwt beam="2">  1       -2 0.30292179E-02 0.12689634E+03</pdfrwt>
<totfact> 0.14455860E+04</totfact>
</mgrwt>
</event>
<event>
 8    1  0.6396648E-004  0.1089044E+03  0.7546771E-02  0.1264125E+00
         -3   -1    0    0    0  501 -0.00000000000E+00  0.00000000000E+00  0.20315011321E+03  0.20315011321E+03  0.00000000000E+00 0.  1.
          3   -1    0    0  501    0  0.00000000000E+00 -0.00000000000E+00 -0.57188394413E+02  0.57188394413E+02  0.00000000000E+00 0. -1.
         23    2    1    2    0    0  0.57061831792E+02 -0.21699603686E+02  0.59787203262E+02  0.12146365539E+03  0.86324877404E+02 0.  0.
         23    2    1    2    0    0 -0.57061831792E+02  0.21699603686E+02  0.86174515540E+02  0.13887485224E+03  0.90184544175E+02 0.  0.
          5    1    3    3  502    0  0.36683967750E+02  0.21392596584E+02 -0.26063164426E+01  0.42804667547E+02  0.47000000000E+01 0. -1.
         -5    1    4    4    0  503 -0.69730116842E+02 -0.47574644947E+01  0.31834747289E+02  0.76944550153E+02  0.47000000000E+01 0.  1.
          5    1    4    4  503    0  0.12668285050E+02  0.26457068181E+02  0.54339768251E+02  0.61930302086E+02  0.47000000000E+01 0. -1.
         -5    1    3    3    0  502  0.20377864043E+02 -0.43092200270E+02  0.62393519704E+02  0.78658987841E+02  0.47000000000E+01 0.  1.
<mgrwt>
<rscale>  0 0.10810210E+03</rscale>
<asrwt>0</asrwt>
<pdfrwt beam="1">  1        3 0.87982146E-02 0.10890444E+03</pdfrwt>
<pdfrwt beam="2">  1       -3 0.31253863E-01 0.10890444E+03</pdfrwt>
<totfact> 0.19981660E+03</totfact>
</mgrwt>
</event>
<event>
 7    1  0.6396648E-004  0.2086282E+03  0.7546771E-02  0.1165220E+00
          2   -1    0    0  501    0  0.00000000000E+00  0.00000000000E+00  0.13157172803E+04  0.13157172803E+04  0.00000000000E+00 0.  1.
         -2   -1    0    0    0  501 -0.00000000000E+00 -0.00000000000E+00 -0.32238614030E+02  0.32238614030E+02  0.00000000000E+00 0. -1.
         23    2    1    2    0    0 -0.33093674234E+01 -0.81803216135E+02  0.14238985077E+03  0.18795183645E+03  0.91369060095E+02 0.  0.
          5    1    1    2  502    0  0.66843173160E+02 -0.34850651837E+02  0.43706787191E+03  0.44354593042E+03  0.47000000000E+01 0. -1.
         -5    1    1    2    0  502 -0.63533805737E+02  0.11665386797E+03  0.70402094361E+03  0.71645812747E+03  0.47000000000E+01 0.  1.
          5    1    3    3  503    0  0.23981772820E+02 -0.81179007970E+02  0.13477946706E+03  0.15922547379E+03  0.47000000000E+01 0. -1.
         -5    1    3    3    0  503 -0.27291140244E+02 -0.62420816546E+00  0.76103837009E+01  0.28726362661E+02  0.47000000000E+01 0.  1.
<mgrwt>
<rscale>  0 0.18269452E+03</rscale>
<asrwt>0</asrwt>
<pdfrwt beam="1">  1        2 0.20241800E+00 0.20862821E+03</pdfrwt>
<pdfrwt beam="2">  1       -2 0.49597878E-02 0.20862821E+03</pdfrwt>
<totfact> 0.33969066E+03</totfact>
</mgrwt>
</event>
<event>
 8    1  0.6396648E-004  0.1013646E+03  0.7546771E-02  0.1277716E+00
         -2   -1    0    0    0  501 -0.00000000000E+00  0.00000000000E+00  0.61374753683E+02  0.61374753683E+02  0.00000000000E+00 0.  1.
          2   -1    0    0  501    0  0.00000000000E+00 -0.00000000000E+00 -0.19730497707E+03  0.19730497707E+03  0.00000000000E+00 0. -1.
         23    2    1    2    0    0 -0.22020058192E+02 -0.39627680692E+02 -0.11915884767E+03  0.15644045883E+03  0.90661734713E+02 0.  0.
         23    2    1    2    0    0  0.22020058192E+02  0.39627680692E+02 -0.16771375713E+02  0.10223927192E+03  0.90090807740E+02 0.  0.
          5    1    3    3  502    0 -0.30376651412E+02  0.28652174165E+00 -0.11022359113E+03  0.11442968622E+03  0.47000000000E+01 0. -1.
         -5    1    4    4    0  503 -0.30701520412E+02  0.36173326538E+02 -0.53181395751E+01  0.47973591870E+02  0.47000000000E+01 0.  1.
          5    1    4    4  503    0  0.52721578604E+02  0.34543541541E+01 -0.11453236138E+02  0.54265680048E+02  0.47000000000E+01 0. -1.
         -5    1    3    3    0  502  0.83565932197E+01 -0.39914202434E+02 -0.89352565380E+01  0.42010772613E+02  0.47000000000E+01 0.  1.
<mgrwt>
<rscale>  0 0.10123680E+03</rscale>
<asrwt>0</asrwt>
<pdfrwt beam="1">  1        2 0.30354612E-01 0.10136462E+03</pdfrwt>
<pdfrwt beam="2">  1       -2 0.94422697E-02 0.10136462E+03</pdfrwt>
<totfact> 0.11539488E+04</totfact>
</mgrwt>
</event>
<event>
 8    1  0.6396648E-004  0.2266335E+03  0.7546771E-02  0.1129104E+00
          1   -1    0    0  501    0  0.00000000000E+00  0.00000000000E+00  0.46199781633E+03  0.46199781633E+03  0.00000000000E+00 0. -1.
         -1   -1    0    0    0  501 -0.00000000000E+00 -0.00000000000E+00 -0.13289971391E+03  0.13289971391E+03  0.00000000000E+00 0.  1.
         23    2    1    2    0    0  0.20561884774E+03  0.27651246505E+02  0.28523363444E+03  0.36405808235E+03  0.90201769018E+02 0.  0.
         23    2    1    2    0    0 -0.20561884774E+03 -0.27651246505E+02  0.43864467989E+02  0.23083944789E+03  0.91208865623E+02 0.  0.
          5    1    3    3  502    0  0.88160239740E+02  0.39370554075E+02  0.18663275174E+03  0.21018121329E+03  0.47000000000E+01 0. -1.
         -5    1    4    4    0  503 -0.14093343770E+03  0.80370570107E+01  0.62580011099E+02  0.15448357821E+03  0.47000000000E+01 0.  1.
          5    1    4    4  503    0 -0.64685410044E+02 -0.35688303516E+02 -0.18715543110E+02  0.76355869678E+02  0.47000000000E+01 0. -1.
         -5    1    3    3    0  502  0.11745860800E+03 -0.11719307570E+02  0.98600882695E+02  0.15387686906E+03  0.47000000000E+01 0.  1.
<mgrwt>
<rscale>  0 0.22653261E+03</rscale>
<asrwt>0</asrwt>
<pdfrwt beam="1">  1        1 0.71076586E-01 0.22663353E+03</pdfrwt>
<pdfrwt beam="2">  1       -1 0.20446110E-01 0.22663353E+03</pdfrwt>
<totfact> 0.97681893E+02</totfact>
</mgrwt>
</event>
<event>
 8    1  0.6396648E-004  0.9224168E+02  0.7546771E-02  0.1298466E+00
          2   -1    0    0  501    0  0.00000000000E+00  0.00000000000E+00  0.58580294250E+03  0.58580294250E+03  0.00000000000E+00 0.  1.
         -2   -1    0    0    0  501 -0.00000000000E+00 -0.00000000000E+00 -0.17686554157E+02  0.17686554157E+02  0.00000000000E+00 0. -1.
         23    2    1    2    0    0  0.44429361131E+01 -0.13715977652E+02  0.15349649696E+03  0.17908015409E+03  0.91107954027E+02 0.  0.
         23    2    1    2    0    0 -0.44429361131E+01  0.13715977652E+02  0.41461989138E+03  0.42440934256E+03  0.89474957394E+02 0.  0.
          5    1    4    4  502    0  0.16972760079E+02 -0.27947233246E+02  0.80892099500E+02  0.87377023251E+02  0.47000000000E+01 0. -1.
         -5    1    3    3    0  503 -0.33880656471E+02 -0.28237992831E+02  0.11247188578E+03  0.12090201906E+03  0.47000000000E+01 0.  1.
          5    1    3    3  503    0  0.38323592584E+02  0.14522015179E+02  0.41024611176E+02  0.58178135030E+02  0.47000000000E+01 0. -1.
         -5    1    4    4    0  502 -0.21415696192E+02  0.41663210898E+02  0.33372779188E+03  0.33703231931E+03  0.47000000000E+01 0.  1.
<mgrwt>
<rscale>  0 0.91835865E+02</rscale>
<asrwt>0</asrwt>
<pdfrwt beam="1">  1        2 0.90123515E-01 0.92241677E+02</pdfrwt>
<pdfrwt beam="2">  1       -2 0.27210088E-02 0.92241677E+02</pdfrwt>
<totfact> 0.23053823E+04</totfact>
</mgrwt>
</event>
<event>
 8    1  0.6396648E-004  0.1035249E+03  0.7546771E-02  0.1273883E+00
          1   -1    0    0  501    0  0.00000000000E+00  0.00000000000E+00  0.23717469601E+03  0.23717469601E+03  0.00000000000E+00 0. -1.
         -1   -1    0    0    0  501 -0.00000000000E+00 -0.00000000000E+00 -0.44571992558E+02  0.44571992558E+02  0.00000000000E+00 0.  1.
         23    2    1    2    0    0  0.41464252775E+02 -0.17919931624E+02  0.90508502839E+02  0.13751067091E+03  0.93150347933E+02 0.  0.
         23    2    1    2    0    0 -0.41464252775E+02  0.17919931624E+02  0.10209420061E+03  0.14423601766E+03  0.91325761886E+02 0.  0.
          5    1    3    3  502    0  0.15342112224E+02  0.22291986115E+02  0.84625671841E+02  0.88971385214E+02  0.47000000000E+01 0. -1.
         -5    1    3    3    0  502  0.26122140551E+02 -0.40211917739E+02  0.58828309987E+01  0.48539285695E+02  0.47000000000E+01 0.  1.
          5    1    4    4  503    0 -0.60493688642E+02  0.37399851108E+02  0.87907110236E+02  0.11317236968E+03  0.47000000000E+01 0. -1.
         -5    1    4    4    0  503  0.19029435867E+02 -0.19479919485E+02  0.14187090375E+02  0.31063647980E+02  0.47000000000E+01 0.  1.
<mgrwt>
<rscale>  0 0.10311274E+03</rscale>
<asrwt>0</asrwt>
<pdfrwt beam="1">  1        1 0.36488414E-01 0.10352485E+03</pdfrwt>
<pdfrwt beam="2">  1       -1 0.68572298E-02 0.10352485E+03</pdfrwt>
<totfact> 0.11827842E+04</totfact>
</mgrwt>
</event>
<event>
 7    1  0.6396648E-004  0.1405936E+03  0.7546771E-02  0.1225632E+00
         -2   -1    0    0    0  501 -0.00000000000E+00  0.00000000000E+00  0.80449653982E+02  0.80449653982E+02  0.00000000000E+00 0.  1.
          2   -1    0    0  501    0  0.00000000000E+00 -0.00000000000E+00 -0.20139394622E+03  0.20139394622E+03  0.00000000000E+00 0. -1.
         23    2    1    2    0    0  0.13804637782E+02  0.53038427914E+02 -0.19585129447E+02  0.10852237607E+03  0.91596320632E+02 0.  0.
          5    1    3    3  502    0 -0.34942001232E+02  0.39237181899E+02  0.30415103424E+01  0.52837871632E+02  0.47000000000E+01 0. -1.
         -5    1    1    2    0  503  0.85826774139E+01 -0.59020674971E+02  0.89627116232E+01  0.60493988340E+02  0.47000000000E+01 0.  1.
          5    1    1    2  503    0 -0.22387315196E+02  0.59822470571E+01 -0.11032187442E+03  0.11282723579E+03  0.47000000000E+01 0. -1.
         -5    1    3    3    0  502  0.48746639014E+02  0.13801246015E+02 -0.22626639789E+02  0.55684504441E+02  0.47000000000E+01 0.  1.
<mgrwt>
<rscale>  0 0.13123706E+03</rscale>
<asrwt>0</asrwt>
<pdfrwt beam="1">  1        2 0.30983684E-01 0.14059362E+03</pdfrwt>
<pdfrwt beam="2">  1       -2 0.12376870E-01 0.14059362E+03</pdfrwt>
<totfact> 0.75610637E+03</totfact>
</mgrwt>
</event>
<event>
 8    1  0.6396648E-004  0.9751359E+02  0.7546771E-02  0.1286570E+00
         -2   -1    0    0    0  501 -0.00000000000E+00  0.00000000000E+00  0.32433065803E+03  0.32433065803E+03  0.00000000000E+00 0.  1.
          2   -1    0    0  501    0  0.00000000000E+00 -0.00000000000E+00 -0.42456000510E+02  0.42456000510E+02  0.00000000000E+00 0. -1.
         23    2    1    2    0    0  0.24969657608E+02  0.23763478592E+02  0.24581930511E+03  0.26445421290E+03  0.91217943628E+02 0.  0.
         23    2    1    2    0    0 -0.24969657608E+02 -0.23763478592E+02  0.36055352417E+02  0.10233244565E+03  0.89351856603E+02 0.  0.
          5    1    3    3  502    0  0.76215323500E+01  0.56541703003E+02  0.11595155522E+03  0.12931320541E+03  0.47000000000E+01 0. -1.
         -5    1    3    3    0  502  0.17348125258E+02 -0.32778224411E+02  0.12986774988E+03  0.13514100749E+03  0.47000000000E+01 0.  1.
          5    1    4    4  503    0 -0.48573788483E+01  0.23116251999E+02 -0.16301665706E+02  0.29082461047E+02  0.47000000000E+01 0. -1.
         -5    1    4    4    0  503 -0.20112278760E+02 -0.46879730591E+02  0.52357018124E+02  0.73249984601E+02  0.47000000000E+01 0.  1.
<mgrwt>
<rscale>  0 0.97074801E+02</rscale>
<asrwt>0</asrwt>
<pdfrwt beam="1">  1        2 0.65316926E-02 0.97513589E+02</pdfrwt>
<pdfrwt beam="2">  1       -2 0.49897023E-01 0.97513589E+02</pdfrwt>
<totfact> 0.39613972E+03</totfact>
</mgrwt>
</event>
<event>
 8    1  0.6396648E-004  0.9815445E+02  0.7546771E-02  0.1284614E+00
         -2   -1    0    0    0  501 -0.00000000000E+00  0.00000000000E+00  0.16822643561E+03  0.16822643561E+03  0.00000000000E+00 0.  1.
          2   -1    0    0  501    0  0.00000000000E+00 -0.00000000000E+00 -0.61839362260E+02  0.61839362260E+02  0.00000000000E+00 0. -1.
         23    2    1    2    0    0  0.96910380535E+01  0.37301062514E+02  0.20704107151E+02  0.10031429147E+03  0.90271875671E+02 0.  0.
         23    2    1    2    0    0 -0.96910380535E+01 -0.37301062514E+02  0.85682966200E+02  0.12975150640E+03  0.89490766188E+02 0.  0.
          5    1    4    4  502    0  0.21852736095E+02 -0.56111263186E+02  0.52170010794E+02  0.79811126777E+02  0.47000000000E+01 0. -1.
         -5    1    3    3    0  503  0.69686954603E+01  0.67116654111E+02  0.17293970286E+02  0.69816755752E+02  0.47000000000E+01 0.  1.
          5    1    3    3  503    0  0.27223425932E+01 -0.29815591597E+02  0.34101368651E+01  0.30497535719E+02  0.47000000000E+01 0. -1.
         -5    1    4    4    0  502 -0.31543774148E+02  0.18810200672E+02  0.33512955406E+02  0.49940379623E+02  0.47000000000E+01 0.  1.
<mgrwt>
<rscale>  0 0.97974486E+02</rscale>
<asrwt>0</asrwt>
<pdfrwt beam="1">  1        2 0.95137481E-02 0.98154455E+02</pdfrwt>
<pdfrwt beam="2">  1       -2 0.25880990E-01 0.98154455E+02</pdfrwt>
<totfact> 0.83398199E+03</totfact>
</mgrwt>
</event>
<event>
 8    1  0.6396648E-004  0.2191788E+03  0.7546771E-02  0.1134530E+00
          2   -1    0    0  501    0  0.00000000000E+00  0.00000000000E+00  0.14130805649E+03  0.14130805649E+03  0.00000000000E+00 0. -1.
         -2   -1    0    0    0  501 -0.00000000000E+00 -0.00000000000E+00 -0.51518182872E+03  0.51518182872E+03  0.00000000000E+00 0.  1.
         23    2    1    2    0    0  0.33490940443E+02  0.19714390078E+03 -0.37846845932E+03  0.43726296462E+03  0.89292579885E+02 0.  0.
         23    2    1    2    0    0 -0.33490940443E+02 -0.19714390078E+03  0.45946870898E+01  0.21922692059E+03  0.89732774698E+02 0.  0.
          5    1    4    4  502    0 -0.40893040040E+02 -0.11004909152E+03 -0.35789709602E+02  0.12282522779E+03  0.47000000000E+01 0. -1.
         -5    1    3    3    0  503  0.35738337144E+02  0.16528920042E+03 -0.36497770042E+03  0.40227920692E+03  0.47000000000E+01 0.  1.
          5    1    3    3  503    0 -0.22473967015E+01  0.31854700362E+02 -0.13490758898E+02  0.34983757699E+02  0.47000000000E+01 0. -1.
         -5    1    4    4    0  502  0.74020995976E+01 -0.87094809260E+02  0.40384396692E+02  0.96401692799E+02  0.47000000000E+01 0.  1.
<mgrwt>
<rscale>  0 0.21913379E+03</rscale>
<asrwt>0</asrwt>
<pdfrwt beam="1">  1        2 0.21739701E-01 0.21917877E+03</pdfrwt>
<pdfrwt beam="2">  1       -2 0.79258742E-01 0.21917877E+03</pdfrwt>
<totfact> 0.36765260E+02</totfact>
</mgrwt>
</event>
<event>
 8    1  0.6396648E-004  0.1486571E+03  0.7546771E-02  0.1202285E+00
          1   -1    0    0  501    0  0.00000000000E+00  0.00000000000E+00  0.32812002927E+03  0.32812002927E+03  0.00000000000E+00 0. -1.
         -1   -1    0    0    0  501 -0.00000000000E+00 -0.00000000000E+00 -0.67772193707E+02  0.67772193707E+02  0.00000000000E+00 0.  1.
         23    2    1    2    0    0 -0.18074761060E+01  0.11742363483E+03  0.14967877514E+03  0.21095655899E+03  0.91144703998E+02 0.  0.
         23    2    1    2    0    0  0.18074761060E+01 -0.11742363483E+03  0.11066906042E+03  0.18493566399E+03  0.90343687623E+02 0.  0.
          5    1    4    4  502    0 -0.22389459069E+02 -0.11540795525E+02 -0.50973294405E+01  0.26125669488E+02  0.47000000000E+01 0. -1.
         -5    1    3    3    0  503  0.19331146458E+02  0.14476236958E+02  0.82608754371E+02  0.86194842993E+02  0.47000000000E+01 0.  1.
          5    1    3    3  503    0 -0.21138622564E+02  0.10294739787E+03  0.67070020767E+02  0.12476171600E+03  0.47000000000E+01 0. -1.
         -5    1    4    4    0  502  0.24196935175E+02 -0.10588283930E+03  0.11576638986E+03  0.15880999450E+03  0.47000000000E+01 0.  1.
<mgrwt>
<rscale>  0 0.14853451E+03</rscale>
<asrwt>0</asrwt>
<pdfrwt beam="1">  1        1 0.50480003E-01 0.14865710E+03</pdfrwt>
<pdfrwt beam="2">  1       -1 0.10426492E-01 0.14865710E+03</pdfrwt>
<totfact> 0.43176628E+03</totfact>
</mgrwt>
</event>
<event>
 8    1  0.6396648E-004  0.1537421E+03  0.7546771E-02  0.1196165E+00
          1   -1    0    0  501    0  0.00000000000E+00  0.00000000000E+00  0.15222604213E+03  0.15222604213E+03  0.00000000000E+00 0. -1.
         -1   -1    0    0    0  501 -0.00000000000E+00 -0.00000000000E+00 -0.17757489322E+03  0.17757489322E+03  0.00000000000E+00 0.  1.
         23    2    1    2    0    0 -0.76902787757E+02 -0.97807544089E+02 -0.72092027598E+02  0.16980545086E+03  0.90312104693E+02 0.  0.
         23    2    1    2    0    0  0.76902787757E+02  0.97807544089E+02  0.46743176505E+02  0.15999548448E+03  0.89068939919E+02 0.  0.
          5    1    4    4  502    0  0.57470800378E+02  0.72795775526E+02 -0.11454847575E+02  0.93570408589E+02  0.47000000000E+01 0. -1.
         -5    1    4    4    0  502  0.19431987379E+02  0.25011768563E+02  0.58198024080E+02  0.66425075890E+02  0.47000000000E+01 0.  1.
          5    1    3    3  503    0 -0.23371889555E+01 -0.66788162839E+02 -0.56015146013E+02  0.87326443478E+02  0.47000000000E+01 0. -1.
         -5    1    3    3    0  503 -0.74565598802E+02 -0.31019381251E+02 -0.16076881585E+02  0.82479007386E+02  0.47000000000E+01 0.  1.
<mgrwt>
<rscale>  0 0.15356003E+03</rscale>
<asrwt>0</asrwt>
<pdfrwt beam="1">  1        1 0.23419391E-01 0.15374209E+03</pdfrwt>
<pdfrwt beam="2">  1       -1 0.27319214E-01 0.15374209E+03</pdfrwt>
<totfact> 0.24348303E+03</totfact>
</mgrwt>
</event>
<event>
 8    1  0.6396648E-004  0.9163302E+02  0.7546771E-02  0.1300401E+00
          3   -1    0    0  501    0  0.00000000000E+00  0.00000000000E+00  0.25423509975E+02  0.25423509975E+02  0.00000000000E+00 0. -1.
         -3   -1    0    0    0  501 -0.00000000000E+00 -0.00000000000E+00 -0.37513018081E+03  0.37513018081E+03  0.00000000000E+00 0.  1.
         23    2    1    2    0    0  0.12009590854E+02 -0.19270439073E+02 -0.97169930541E+02  0.13190630807E+03  0.86265280458E+02 0.  0.
         23    2    1    2    0    0 -0.12009590854E+02  0.19270439073E+02 -0.25253674030E+03  0.26864738272E+03  0.88775170785E+02 0.  0.
          5    1    4    4  502    0 -0.29581876263E+02 -0.20268297997E+02 -0.51354641888E+02  0.62811468303E+02  0.47000000000E+01 0. -1.
         -5    1    4    4    0  502  0.17572285409E+02  0.39538737070E+02 -0.20118209841E+03  0.20583591442E+03  0.47000000000E+01 0.  1.
          5    1    3    3  503    0 -0.20300763673E+02  0.15817923049E+02 -0.31188641997E+01  0.26346631838E+02  0.47000000000E+01 0. -1.
         -5    1    3    3    0  503  0.32310354527E+02 -0.35088362122E+02 -0.94051066341E+02  0.10555967623E+03  0.47000000000E+01 0.  1.
<mgrwt>
<rscale>  0 0.91019529E+02</rscale>
<asrwt>0</asrwt>
<pdfrwt beam="1">  1        3 0.39113089E-02 0.91633024E+02</pdfrwt>
<pdfrwt beam="2">  1       -3 0.57712340E-01 0.91633024E+02</pdfrwt>
<totfact> 0.21344977E+03</totfact>
</mgrwt>
</event>
<event>
 8    1  0.6396648E-004  0.1290352E+03  0.7546771E-02  0.1229330E+00
          1   -1    0    0  501    0  0.00000000000E+00  0.00000000000E+00  0.36656936875E+03  0.36656936875E+03  0.00000000000E+00 0. -1.
         -1   -1    0    0    0  501 -0.00000000000E+00 -0.00000000000E+00 -0.86531371989E+02  0.86531371989E+02  0.00000000000E+00 0.  1.
         23    2    1    2    0    0  0.88289967930E+02  0.13673487150E+02  0.29661331409E+03  0.32300529636E+03  0.91492517136E+02 0.  0.
         23    2    1    2    0    0 -0.88289967930E+02 -0.13673487150E+02 -0.16575317330E+02  0.13009544438E+03  0.93102098881E+02 0.  0.
          5    1    4    4  502    0 -0.50710416471E+02 -0.46049655081E+02  0.16086332841E+02  0.70519339022E+02  0.47000000000E+01 0. -1.
         -5    1    4    4    0  502 -0.37579551459E+02  0.32376167932E+02 -0.32661650171E+02  0.59576105359E+02  0.47000000000E+01 0.  1.
          5    1    3    3  503    0  0.41820896437E+02  0.43053905159E+02  0.22314055860E+03  0.23111993644E+03  0.47000000000E+01 0. -1.
         -5    1    3    3    0  503  0.46469071493E+02 -0.29380418009E+02  0.73472755494E+02  0.91885359921E+02  0.47000000000E+01 0.  1.
<mgrwt>
<rscale>  0 0.12874510E+03</rscale>
<asrwt>0</asrwt>
<pdfrwt beam="1">  1        1 0.56395287E-01 0.12903520E+03</pdfrwt>
<pdfrwt beam="2">  1       -1 0.13312519E-01 0.12903520E+03</pdfrwt>
<totfact> 0.25633012E+03</totfact>
</mgrwt>
</event>
<event>
 8    1  0.6396648E-004  0.2035854E+03  0.7546771E-02  0.1147030E+00
          3   -1    0    0  501    0  0.00000000000E+00  0.00000000000E+00  0.14135933835E+03  0.14135933835E+03  0.00000000000E+00 0. -1.
         -3   -1    0    0    0  501 -0.00000000000E+00 -0.00000000000E+00 -0.34741648092E+03  0.34741648092E+03  0.00000000000E+00 0.  1.
         23    2    1    2    0    0 -0.33584536581E+02 -0.17730350696E+03 -0.50536792314E+01  0.20364811860E+03  0.94247344027E+02 0.  0.
         23    2    1    2    0    0  0.33584536581E+02  0.17730350696E+03 -0.20100346334E+03  0.28512770068E+03  0.91274085814E+02 0.  0.
          5    1    4    4  502    0  0.61035548548E+02  0.93092330014E+02 -0.91251330980E+02  0.14401533078E+03  0.47000000000E+01 0. -1.
         -5    1    3    3    0  503 -0.47836579259E+02 -0.10461153300E+03 -0.39641867804E+02  0.12175992294E+03  0.47000000000E+01 0.  1.
          5    1    3    3  503    0  0.14252042678E+02 -0.72691973966E+02  0.34588188573E+02  0.81888195659E+02  0.47000000000E+01 0. -1.
         -5    1    4    4    0  502 -0.27451011966E+02  0.84211176949E+02 -0.10975213236E+03  0.14111236990E+03  0.47000000000E+01 0.  1.
<mgrwt>
<rscale>  0 0.20324473E+03</rscale>
<asrwt>0</asrwt>
<pdfrwt beam="1">  1        3 0.21747591E-01 0.20358540E+03</pdfrwt>
<pdfrwt beam="2">  1       -3 0.53448689E-01 0.20358540E+03</pdfrwt>
<totfact> 0.16504032E+02</totfact>
</mgrwt>
</event>
<event>
 8    1  0.6396648E-004  0.1236553E+03  0.7546771E-02  0.1237670E+00
         -1   -1    0    0    0  501 -0.00000000000E+00  0.00000000000E+00  0.28110503602E+02  0.28110503602E+02  0.00000000000E+00 0.  1.
          1   -1    0    0  501    0  0.00000000000E+00 -0.00000000000E+00 -0.54830406167E+03  0.54830406167E+03  0.00000000000E+00 0. -1.
         23    2    1    2    0    0 -0.48621081305E+02  0.67386704055E+02 -0.29967230656E+03  0.32418223148E+03  0.91573197256E+02 0.  0.
         23    2    1    2    0    0  0.48621081305E+02 -0.67386704055E+02 -0.22052125151E+03  0.25223233380E+03  0.89925249040E+02 0.  0.
          5    1    3    3  502    0  0.12231270985E+02  0.17624957675E+02 -0.17734199277E+03  0.17869671380E+03  0.47000000000E+01 0. -1.
         -5    1    4    4    0  503  0.26648510611E+02  0.11520648261E+02 -0.19973564009E+02  0.35551395378E+02  0.47000000000E+01 0.  1.
          5    1    4    4  503    0  0.21972570694E+02 -0.78907352316E+02 -0.20054768750E+03  0.21668093842E+03  0.47000000000E+01 0. -1.
         -5    1    3    3    0  502 -0.60852352290E+02  0.49761746380E+02 -0.12233031379E+03  0.14548551768E+03  0.47000000000E+01 0.  1.
<mgrwt>
<rscale>  0 0.12335031E+03</rscale>
<asrwt>0</asrwt>
<pdfrwt beam="1">  1        1 0.84354466E-01 0.12365528E+03</pdfrwt>
<pdfrwt beam="2">  1       -1 0.43246931E-02 0.12365528E+03</pdfrwt>
<totfact> 0.82925447E+03</totfact>
</mgrwt>
</event>
<event>
 8    1  0.6396648E-004  0.1356894E+03  0.7546771E-02  0.1220239E+00
          1   -1    0    0  501    0  0.00000000000E+00  0.00000000000E+00  0.15055826145E+03  0.15055826145E+03  0.00000000000E+00 0. -1.
         -1   -1    0    0    0  501 -0.00000000000E+00 -0.00000000000E+00 -0.11981429209E+03  0.11981429209E+03  0.00000000000E+00 0.  1.
         23    2    1    2    0    0 -0.93761803165E+02  0.33589042631E+02  0.17249113837E+02  0.13401377020E+03  0.87992381248E+02 0.  0.
         23    2    1    2    0    0  0.93761803165E+02 -0.33589042631E+02  0.13494855521E+02  0.13635878334E+03  0.92152629641E+02 0.  0.
          5    1    4    4  502    0  0.70647147014E+02 -0.20451420175E+02  0.51377777313E+02  0.89839000273E+02  0.47000000000E+01 0. -1.
         -5    1    3    3    0  503 -0.62963914664E+02 -0.21887148947E+02  0.21627574192E+02  0.70237766225E+02  0.47000000000E+01 0.  1.
          5    1    3    3  503    0 -0.30797888501E+02  0.55476191578E+02 -0.43784603546E+01  0.63776003976E+02  0.47000000000E+01 0. -1.
         -5    1    4    4    0  502  0.23114656151E+02 -0.13137622457E+02 -0.37882921792E+02  0.46519783064E+02  0.47000000000E+01 0.  1.
<mgrwt>
<rscale>  0 0.13498635E+03</rscale>
<asrwt>0</asrwt>
<pdfrwt beam="1">  1        1 0.23162809E-01 0.13568938E+03</pdfrwt>
<pdfrwt beam="2">  1       -1 0.18432968E-01 0.13568938E+03</pdfrwt>
<totfact> 0.46542671E+03</totfact>
</mgrwt>
</event>
<event>
 8    1  0.6396648E-004  0.1011519E+03  0.7546771E-02  0.1277914E+00
         -1   -1    0    0    0  501 -0.00000000000E+00  0.00000000000E+00  0.30113877128E+03  0.30113877128E+03  0.00000000000E+00 0.  1.
          1   -1    0    0  501    0  0.00000000000E+00 -0.00000000000E+00 -0.35684439568E+02  0.35684439568E+02  0.00000000000E+00 0. -1.
         23    2    1    2    0    0  0.25631294305E+02  0.35044986650E+02  0.16975184488E+03  0.19760416148E+03  0.91359736526E+02 0.  0.
         23    2    1    2    0    0 -0.25631294305E+02 -0.35044986650E+02  0.95702486826E+02  0.13921904936E+03  0.91311901650E+02 0.  0.
          5    1    3    3  502    0  0.18756600865E+02 -0.26788111957E+02  0.30287474438E+02  0.44820019256E+02  0.47000000000E+01 0. -1.
         -5    1    4    4    0  503  0.18001625549E+02 -0.22351761970E+02  0.88266144258E+02  0.92933643035E+02  0.47000000000E+01 0.  1.
          5    1    4    4  503    0 -0.43632919855E+02 -0.12693224680E+02  0.74363425679E+01  0.46285406325E+02  0.47000000000E+01 0. -1.
         -5    1    3    3    0  502  0.68746934402E+01  0.61833098607E+02  0.13946437044E+03  0.15278414223E+03  0.47000000000E+01 0.  1.
<mgrwt>
<rscale>  0 0.10114114E+03</rscale>
<asrwt>0</asrwt>
<pdfrwt beam="1">  1        1 0.54899140E-02 0.10115194E+03</pdfrwt>
<pdfrwt beam="2">  1       -1 0.46329040E-01 0.10115194E+03</pdfrwt>
<totfact> 0.64088263E+03</totfact>
</mgrwt>
</event>
<event>
 8    1  0.6396648E-004  0.1279346E+03  0.7546771E-02  0.1230867E+00
          2   -1    0    0  501    0  0.00000000000E+00  0.00000000000E+00  0.22811089571E+03  0.22811089571E+03  0.00000000000E+00 0. -1.
         -2   -1    0    0    0  501 -0.00000000000E+00 -0.00000000000E+00 -0.74352153759E+02  0.74352153759E+02  0.00000000000E+00 0.  1.
         23    2    1    2    0    0  0.81278296228E+02  0.37531747050E+02  0.45940851456E+02  0.13515508162E+03  0.90230486979E+02 0.  0.
         23    2    1    2    0    0 -0.81278296228E+02 -0.37531747050E+02  0.10781789049E+03  0.16730796785E+03  0.91391821958E+02 0.  0.
          5    1    3    3  502    0  0.46667728574E+02  0.28554528942E+02  0.72080827982E+02  0.90614423664E+02  0.47000000000E+01 0. -1.
         -5    1    3    3    0  502  0.34610567654E+02  0.89772181073E+01 -0.26139976525E+02  0.44540657954E+02  0.47000000000E+01 0.  1.
          5    1    4    4  503    0 -0.61089921127E+02 -0.65707541086E+02  0.93035717016E+02  0.12933365401E+03  0.47000000000E+01 0. -1.
         -5    1    4    4    0  503 -0.20188375101E+02  0.28175794036E+02  0.14782173478E+02  0.37974313839E+02  0.47000000000E+01 0.  1.
<mgrwt>
<rscale>  0 0.12772733E+03</rscale>
<asrwt>0</asrwt>
<pdfrwt beam="1">  1        2 0.35093984E-01 0.12793459E+03</pdfrwt>
<pdfrwt beam="2">  1       -2 0.11438793E-01 0.12793459E+03</pdfrwt>
<totfact> 0.74497871E+03</totfact>
</mgrwt>
</event>
<event>
 8    1  0.6396648E-004  0.9048460E+02  0.7546771E-02  0.1301954E+00
          1   -1    0    0  501    0  0.00000000000E+00  0.00000000000E+00  0.13777639866E+03  0.13777639866E+03  0.00000000000E+00 0. -1.
         -1   -1    0    0    0  501 -0.00000000000E+00 -0.00000000000E+00 -0.76719704733E+02  0.76719704733E+02  0.00000000000E+00 0.  1.
         23    2    1    2    0    0  0.44857160509E+01 -0.48771418388E+01  0.81940263148E+02  0.12207239131E+03  0.90241641359E+02 0.  0.
         23    2    1    2    0    0 -0.44857160509E+01  0.48771418388E+01 -0.20883569224E+02  0.92423712077E+02  0.89789258431E+02 0.  0.
          5    1    4    4  502    0 -0.24747986295E+02  0.35970822844E+02  0.86541955053E+01  0.44758775917E+02  0.47000000000E+01 0. -1.
         -5    1    4    4    0  502  0.20262270244E+02 -0.31093681005E+02 -0.29537764730E+02  0.47664936160E+02  0.47000000000E+01 0.  1.
          5    1    3    3  503    0  0.94624802774E+01  0.30770576043E+02  0.79256754790E+02  0.85674325576E+02  0.47000000000E+01 0. -1.
         -5    1    3    3    0  503 -0.49767642265E+01 -0.35647717882E+02  0.26835083584E+01  0.36398065738E+02  0.47000000000E+01 0.  1.
<mgrwt>
<rscale>  0 0.90371593E+02</rscale>
<asrwt>0</asrwt>
<pdfrwt beam="1">  1        1 0.21196369E-01 0.90484595E+02</pdfrwt>
<pdfrwt beam="2">  1       -1 0.11803032E-01 0.90484595E+02</pdfrwt>
<totfact> 0.10102213E+04</totfact>
</mgrwt>
</event>
<event>
 8    1  0.6396648E-004  0.1017977E+03  0.7546771E-02  0.1278598E+00
         -3   -1    0    0    0  501 -0.00000000000E+00  0.00000000000E+00  0.43392456753E+03  0.43392456753E+03  0.00000000000E+00 0.  1.
          3   -1    0    0  501    0  0.00000000000E+00 -0.00000000000E+00 -0.37704203312E+03  0.37704203312E+03  0.00000000000E+00 0. -1.
         23    2    1    2    0    0 -0.36255050508E+02 -0.16661299272E+02  0.42140358000E+03  0.43352478787E+03  0.93652212359E+02 0.  0.
         23    2    1    2    0    0  0.36255050508E+02  0.16661299272E+02 -0.36452104559E+03  0.37744181278E+03  0.89413096240E+02 0.  0.
          5    1    3    3  502    0 -0.13148877534E+02  0.25376144487E+02  0.41688048742E+02  0.50762437858E+02  0.47000000000E+01 0. -1.
         -5    1    3    3    0  502 -0.23106172974E+02 -0.42037443759E+02  0.37971553126E+03  0.38276235001E+03  0.47000000000E+01 0.  1.
          5    1    4    4  503    0  0.43782674384E+02 -0.40744138503E+01 -0.34436547688E+03  0.34719331084E+03  0.47000000000E+01 0. -1.
         -5    1    4    4    0  503 -0.75276238764E+01  0.20735713122E+02 -0.20155568709E+02  0.30248501945E+02  0.47000000000E+01 0.  1.
<mgrwt>
<rscale>  0 0.10081199E+03</rscale>
<asrwt>0</asrwt>
<pdfrwt beam="1">  1        3 0.58006467E-01 0.10179766E+03</pdfrwt>
<pdfrwt beam="2">  1       -3 0.66757626E-01 0.10179766E+03</pdfrwt>
<totfact> 0.15204407E+01</totfact>
</mgrwt>
</event>
<event>
 8    1  0.6396648E-004  0.9945711E+02  0.7546771E-02  0.1284690E+00
          1   -1    0    0  501    0  0.00000000000E+00  0.00000000000E+00  0.16078126049E+03  0.16078126049E+03  0.00000000000E+00 0. -1.
         -1   -1    0    0    0  501 -0.00000000000E+00 -0.00000000000E+00 -0.96328703664E+02  0.96328703664E+02  0.00000000000E+00 0.  1.
         23    2    1    2    0    0 -0.14629702283E+02  0.86267099717E+01 -0.49535401935E+02  0.10583217025E+03  0.91968711539E+02 0.  0.
         23    2    1    2    0    0  0.14629702283E+02 -0.86267099717E+01  0.11398795876E+03  0.15127779390E+03  0.97996264574E+02 0.  0.
          5    1    3    3  502    0 -0.14711564733E+02  0.28876706647E+02  0.16451984926E+02  0.36647675665E+02  0.47000000000E+01 0. -1.
         -5    1    3    3    0  502  0.81862449983E-01 -0.20249996675E+02 -0.65987386861E+02  0.69184494590E+02  0.47000000000E+01 0.  1.
          5    1    4    4  503    0  0.15790812747E+02  0.14450302843E+02 -0.10694789163E+02  0.24385026855E+02  0.47000000000E+01 0. -1.
         -5    1    4    4    0  503 -0.11611104644E+01 -0.23077012815E+02  0.12468274792E+03  0.12689276704E+03  0.47000000000E+01 0.  1.
<mgrwt>
<rscale>  0 0.97939379E+02</rscale>
<asrwt>0</asrwt>
<pdfrwt beam="1">  1        1 0.24735579E-01 0.99457107E+02</pdfrwt>
<pdfrwt beam="2">  1       -1 0.14819801E-01 0.99457107E+02</pdfrwt>
<totfact> 0.59169155E+03</totfact>
</mgrwt>
</event>
<event>
 8    1  0.6396648E-004  0.9389891E+02  0.7546771E-02  0.1294213E+00
         -1   -1    0    0    0  501 -0.00000000000E+00  0.00000000000E+00  0.21730370959E+02  0.21730370959E+02  0.00000000000E+00 0.  1.
          1   -1    0    0  501    0  0.00000000000E+00 -0.00000000000E+00 -0.55152447330E+03  0.55152447330E+03  0.00000000000E+00 0. -1.
         23    2    1    2    0    0  0.21578235179E+01  0.19765099157E+02 -0.11647967693E+03  0.14961457436E+03  0.91769768314E+02 0.  0.
         23    2    1    2    0    0 -0.21578235179E+01 -0.19765099157E+02 -0.41331442541E+03  0.42364026989E+03  0.90812712105E+02 0.  0.
          5    1    4    4  502    0  0.28536916975E+02  0.18878281594E+02 -0.26543858690E+03  0.26767607021E+03  0.47000000000E+01 0. -1.
         -5    1    4    4    0  502 -0.30694740493E+02 -0.38643380751E+02 -0.14787583850E+03  0.15596419968E+03  0.47000000000E+01 0.  1.
          5    1    3    3  503    0  0.27020296400E+02 -0.19227664598E+02 -0.90197689624E+02  0.96215969137E+02  0.47000000000E+01 0. -1.
         -5    1    3    3    0  503 -0.24862472883E+02  0.38992763755E+02 -0.26281987306E+02  0.53398605224E+02  0.47000000000E+01 0.  1.
<mgrwt>
<rscale>  0 0.93664251E+02</rscale>
<asrwt>0</asrwt>
<pdfrwt beam="1">  1        1 0.84849916E-01 0.93898912E+02</pdfrwt>
<pdfrwt beam="2">  1       -1 0.33431341E-02 0.93898912E+02</pdfrwt>
<totfact> 0.11730093E+04</totfact>
</mgrwt>
</event>
<event>
 8    1  0.6396648E-004  0.9753336E+02  0.7546771E-02  0.1288232E+00
         -2   -1    0    0    0  501 -0.00000000000E+00  0.00000000000E+00  0.21636778942E+02  0.21636778942E+02  0.00000000000E+00 0.  1.
          2   -1    0    0  501    0  0.00000000000E+00 -0.00000000000E+00 -0.42283313134E+03  0.42283313134E+03  0.00000000000E+00 0. -1.
         23    2    1    2    0    0 -0.12386760407E+02  0.22548875711E+02 -0.17297342576E+03  0.19627953932E+03  0.89128939788E+02 0.  0.
         23    2    1    2    0    0  0.12386760407E+02 -0.22548875711E+02 -0.22822292664E+03  0.24819037096E+03  0.94079075065E+02 0.  0.
          5    1    3    3  502    0 -0.28370583445E+02 -0.24832077341E+02 -0.45556908597E+02  0.59321530586E+02  0.47000000000E+01 0.  1.
         -5    1    4    4    0  503  0.24444648364E+02 -0.41565936950E+02 -0.54380437859E+02  0.72832616113E+02  0.47000000000E+01 0.  1.
          5    1    4    4  503    0 -0.12057887957E+02  0.19017061239E+02 -0.17384248878E+03  0.17535775485E+03  0.47000000000E+01 0. -1.
         -5    1    3    3    0  502  0.15983823039E+02  0.47380953051E+02 -0.12741651716E+03  0.13695800873E+03  0.47000000000E+01 0. -1.
<mgrwt>
<rscale>  0 0.96319477E+02</rscale>
<asrwt>0</asrwt>
<pdfrwt beam="1">  1        2 0.65051248E-01 0.97533358E+02</pdfrwt>
<pdfrwt beam="2">  1       -2 0.33287354E-02 0.97533358E+02</pdfrwt>
<totfact> 0.24611768E+04</totfact>
</mgrwt>
</event>
<event>
 8    1  0.6396648E-004  0.9568985E+02  0.7546771E-02  0.1292540E+00
          1   -1    0    0  501    0  0.00000000000E+00  0.00000000000E+00  0.16479519152E+03  0.16479519152E+03  0.00000000000E+00 0. -1.
         -1   -1    0    0    0  501 -0.00000000000E+00 -0.00000000000E+00 -0.14873084917E+03  0.14873084917E+03  0.00000000000E+00 0.  1.
         23    2    1    2    0    0  0.19749185095E+02 -0.15554114680E+02 -0.11786528830E+03  0.15181822327E+03  0.92328684239E+02 0.  0.
         23    2    1    2    0    0 -0.19749185095E+02  0.15554114680E+02  0.13392963065E+03  0.16170781743E+03  0.87064984098E+02 0.  0.
          5    1    3    3  502    0  0.41409106868E+02 -0.18440136163E+02 -0.17214052328E+02  0.48715155248E+02  0.47000000000E+01 0. -1.
         -5    1    4    4    0  503  0.34005008170E+02 -0.27217835482E+00  0.53642534663E+02  0.63686938903E+02  0.47000000000E+01 0.  1.
          5    1    4    4  503    0 -0.53754193266E+02  0.15826293035E+02  0.80287095983E+02  0.98020878523E+02  0.47000000000E+01 0. -1.
         -5    1    3    3    0  502 -0.21659921773E+02  0.28860214826E+01 -0.10065123598E+03  0.10310306802E+03  0.47000000000E+01 0.  1.
<mgrwt>
<rscale>  0 0.94396808E+02</rscale>
<asrwt>0</asrwt>
<pdfrwt beam="1">  1        1 0.25353106E-01 0.95689847E+02</pdfrwt>
<pdfrwt beam="2">  1       -1 0.22881669E-01 0.95689847E+02</pdfrwt>
<totfact> 0.28811255E+03</totfact>
</mgrwt>
</event>
<event>
 8    1  0.6396648E-004  0.9980112E+02  0.7546771E-02  0.1283636E+00
          1   -1    0    0  501    0  0.00000000000E+00  0.00000000000E+00  0.70212268815E+03  0.70212268815E+03  0.00000000000E+00 0. -1.
         -1   -1    0    0    0  501 -0.00000000000E+00 -0.00000000000E+00 -0.14621093613E+02  0.14621093613E+02  0.00000000000E+00 0.  1.
         23    2    1    2    0    0  0.11046880211E+02  0.13683197285E+02  0.43718294506E+03  0.44726337507E+03  0.92770338858E+02 0.  0.
         23    2    1    2    0    0 -0.11046880211E+02 -0.13683197285E+02  0.25031864947E+03  0.26948040669E+03  0.98239502588E+02 0.  0.
          5    1    4    4  502    0 -0.50237347938E+01  0.39518425668E+02  0.15444317693E+03  0.15956731739E+03  0.47000000000E+01 0. -1.
         -5    1    3    3    0  503 -0.23085027117E+02 -0.28034076418E+02  0.11879053092E+03  0.12430650889E+03  0.47000000000E+01 0.  1.
          5    1    3    3  503    0  0.34131907328E+02  0.41717273703E+02  0.31839241414E+03  0.32295686617E+03  0.47000000000E+01 0. -1.
         -5    1    4    4    0  502 -0.60231454171E+01 -0.53201622953E+02  0.95875472537E+02  0.10991308930E+03  0.47000000000E+01 0.  1.
<mgrwt>
<rscale>  0 0.98428388E+02</rscale>
<asrwt>0</asrwt>
<pdfrwt beam="1">  1        1 0.10801885E+00 0.99801119E+02</pdfrwt>
<pdfrwt beam="2">  1       -1 0.22493996E-02 0.99801119E+02</pdfrwt>
<totfact> 0.15022353E+04</totfact>
</mgrwt>
</event>
<event>
 8    1  0.6396648E-004  0.1052344E+03  0.7546771E-02  0.1270302E+00
          1   -1    0    0  501    0  0.00000000000E+00  0.00000000000E+00  0.26912631131E+03  0.26912631131E+03  0.00000000000E+00 0. -1.
         -1   -1    0    0    0  501 -0.00000000000E+00 -0.00000000000E+00 -0.18375101835E+03  0.18375101835E+03  0.00000000000E+00 0.  1.
         23    2    1    2    0    0  0.22279327698E+02 -0.45552289673E+02 -0.15708669267E+03  0.18907803882E+03  0.92211150140E+02 0.  0.
         23    2    1    2    0    0 -0.22279327698E+02  0.45552289673E+02  0.24246198563E+03  0.26379929084E+03  0.90724152420E+02 0.  0.
          5    1    3    3  502    0 -0.89177711560E+01 -0.38372216299E+02 -0.13526354396E+02  0.41916654081E+02  0.47000000000E+01 0. -1.
         -5    1    3    3    0  502  0.31197098854E+02 -0.71800733731E+01 -0.14356033828E+03  0.14716138473E+03  0.47000000000E+01 0.  1.
          5    1    4    4  503    0  0.83551050728E+01  0.55506099927E+02  0.78387337619E+02  0.96526678224E+02  0.47000000000E+01 0.  1.
         -5    1    4    4    0  503 -0.30634432771E+02 -0.99538102545E+01  0.16407464802E+03  0.16727261262E+03  0.47000000000E+01 0. -1.
<mgrwt>
<rscale>  0 0.10490774E+03</rscale>
<asrwt>0</asrwt>
<pdfrwt beam="1">  1        1 0.41404048E-01 0.10523438E+03</pdfrwt>
<pdfrwt beam="2">  1       -1 0.28269387E-01 0.10523438E+03</pdfrwt>
<totfact> 0.11198654E+03</totfact>
</mgrwt>
</event>
<event>
 8    1  0.6396648E-004  0.1200992E+03  0.7546771E-02  0.1256791E+00
         -2   -1    0    0    0  501 -0.00000000000E+00  0.00000000000E+00  0.42506767553E+02  0.42506767553E+02  0.00000000000E+00 0.  1.
          2   -1    0    0  501    0  0.00000000000E+00 -0.00000000000E+00 -0.26683795880E+03  0.26683795880E+03  0.00000000000E+00 0. -1.
         23    2    1    2    0    0 -0.18370279651E+01  0.56844582588E+01 -0.76830895166E+02  0.11913393262E+03  0.90852736406E+02 0.  0.
         23    2    1    2    0    0  0.18370279651E+01 -0.56844582588E+01 -0.14750029608E+03  0.19021079373E+03  0.11995049383E+03 0.  0.
          5    1    4    4  502    0  0.32399521575E+02 -0.35955621768E+02 -0.13743376206E+03  0.14578293690E+03  0.47000000000E+01 0. -1.
         -5    1    3    3    0  503  0.24081014898E+02  0.25055483014E+02 -0.78930372263E+02  0.86369937901E+02  0.47000000000E+01 0.  1.
          5    1    3    3  503    0 -0.25918042863E+02 -0.19371024755E+02  0.20994770967E+01  0.32763994720E+02  0.47000000000E+01 0. -1.
         -5    1    4    4    0  502 -0.30562493610E+02  0.30271163509E+02 -0.10066534017E+02  0.44427856835E+02  0.47000000000E+01 0.  1.
<mgrwt>
<rscale>  0 0.11206595E+03</rscale>
<asrwt>0</asrwt>
<pdfrwt beam="1">  1        2 0.41051995E-01 0.12009916E+03</pdfrwt>
<pdfrwt beam="2">  1       -2 0.65395026E-02 0.12009916E+03</pdfrwt>
<totfact> 0.14932885E+04</totfact>
</mgrwt>
</event>
<event>
 8    1  0.6396648E-004  0.9178165E+02  0.7546771E-02  0.1298612E+00
          1   -1    0    0  501    0  0.00000000000E+00  0.00000000000E+00  0.27633106915E+03  0.27633106915E+03  0.00000000000E+00 0. -1.
         -1   -1    0    0    0  501 -0.00000000000E+00 -0.00000000000E+00 -0.43743507192E+02  0.43743507192E+02  0.00000000000E+00 0.  1.
         23    2    1    2    0    0 -0.37917248925E+01 -0.71854303673E+01  0.20442242347E+03  0.22406860551E+03  0.91390399787E+02 0.  0.
         23    2    1    2    0    0  0.37917248925E+01  0.71854303673E+01  0.28165138492E+02  0.96005970830E+02  0.91421353203E+02 0.  0.
          5    1    4    4  502    0  0.42593831040E+02 -0.79714847223E+01  0.31759009926E+02  0.53930545360E+02  0.47000000000E+01 0. -1.
         -5    1    3    3    0  503 -0.10740284407E+02  0.18147424779E+02  0.41173614178E+01  0.21993758212E+02  0.47000000000E+01 0.  1.
          5    1    3    3  503    0  0.69485595150E+01 -0.25332855146E+02  0.20030506205E+03  0.20207484730E+03  0.47000000000E+01 0. -1.
         -5    1    4    4    0  502 -0.38802106148E+02  0.15156915090E+02 -0.35938714341E+01  0.42075425469E+02  0.47000000000E+01 0.  1.
<mgrwt>
<rscale>  0 0.91773942E+02</rscale>
<asrwt>0</asrwt>
<pdfrwt beam="1">  1        1 0.42512471E-01 0.91781651E+02</pdfrwt>
<pdfrwt beam="2">  1       -1 0.67297705E-02 0.91781651E+02</pdfrwt>
<totfact> 0.99828666E+03</totfact>
</mgrwt>
</event>
<event>
 8    1  0.6396648E-004  0.1102123E+03  0.7546771E-02  0.1260438E+00
         -1   -1    0    0    0  501 -0.00000000000E+00  0.00000000000E+00  0.24450515300E+02  0.24450515300E+02  0.00000000000E+00 0.  1.
          1   -1    0    0  501    0  0.00000000000E+00 -0.00000000000E+00 -0.56651701919E+03  0.56651701919E+03  0.00000000000E+00 0. -1.
         23    2    1    2    0    0  0.58256442615E+02  0.18474169587E+02 -0.37596119881E+03  0.39162433036E+03  0.91036723738E+02 0.  0.
         23    2    1    2    0    0 -0.58256442615E+02 -0.18474169587E+02 -0.16610530508E+03  0.19934320413E+03  0.91714953035E+02 0.  0.
          5    1    3    3  502    0  0.87589228386E+01 -0.34953118047E+02 -0.11112269913E+03  0.11691357257E+03  0.47000000000E+01 0. -1.
         -5    1    3    3    0  502  0.49497519776E+02  0.53427287634E+02 -0.26483849968E+03  0.27471075778E+03  0.47000000000E+01 0.  1.
          5    1    4    4  503    0 -0.79784979610E+02 -0.97000393387E+01 -0.15128973964E+03  0.17137797132E+03  0.47000000000E+01 0. -1.
         -5    1    4    4    0  503  0.21528536995E+02 -0.87741302484E+01 -0.14815565436E+02  0.27965232807E+02  0.47000000000E+01 0.  1.
<mgrwt>
<rscale>  0 0.11007104E+03</rscale>
<asrwt>0</asrwt>
<pdfrwt beam="1">  1        1 0.87156459E-01 0.11021225E+03</pdfrwt>
<pdfrwt beam="2">  1       -1 0.37616180E-02 0.11021225E+03</pdfrwt>
<totfact> 0.96605966E+03</totfact>
</mgrwt>
</event>
<event>
 8    1  0.6396648E-004  0.9861391E+02  0.7546771E-02  0.1283629E+00
         -2   -1    0    0    0  501 -0.00000000000E+00  0.00000000000E+00  0.54004951477E+03  0.54004951477E+03  0.00000000000E+00 0.  1.
          2   -1    0    0  501    0  0.00000000000E+00 -0.00000000000E+00 -0.18140778071E+02  0.18140778071E+02  0.00000000000E+00 0. -1.
         23    2    1    2    0    0  0.22501383622E+02 -0.28150757724E+02  0.29572841765E+03  0.31173706954E+03  0.91792843364E+02 0.  0.
         23    2    1    2    0    0 -0.22501383622E+02  0.28150757724E+02  0.22618031905E+03  0.24645322330E+03  0.91010313294E+02 0.  0.
          5    1    4    4  502    0 -0.55071255287E+02  0.18783138612E+02  0.17823844012E+03  0.18755447473E+03  0.47000000000E+01 0. -1.
         -5    1    3    3    0  503  0.15281870402E+02  0.18679029276E+02  0.22581188929E+03  0.22714651889E+03  0.47000000000E+01 0.  1.
          5    1    3    3  503    0  0.72195132202E+01 -0.46829787000E+02  0.69916528363E+02  0.84590550654E+02  0.47000000000E+01 0. -1.
         -5    1    4    4    0  502  0.32569871666E+02  0.93676191115E+01  0.47941878930E+02  0.58898748573E+02  0.47000000000E+01 0.  1.
<mgrwt>
<rscale>  0 0.98431409E+02</rscale>
<asrwt>0</asrwt>
<pdfrwt beam="1">  1        2 0.27908893E-02 0.98613911E+02</pdfrwt>
<pdfrwt beam="2">  1       -2 0.83084528E-01 0.98613911E+02</pdfrwt>
<totfact> 0.41733358E+03</totfact>
</mgrwt>
</event>
<event>
 8    1  0.6396648E-004  0.9936339E+02  0.7546771E-02  0.1281923E+00
         -1   -1    0    0    0  501 -0.00000000000E+00  0.00000000000E+00  0.30165897022E+03  0.30165897022E+03  0.00000000000E+00 0.  1.
          1   -1    0    0  501    0  0.00000000000E+00 -0.00000000000E+00 -0.42488729485E+02  0.42488729485E+02  0.00000000000E+00 0. -1.
         23    2    1    2    0    0  0.42016960295E+02 -0.36266616966E+01  0.21305378409E+03  0.23508508707E+03  0.89969470494E+02 0.  0.
         23    2    1    2    0    0 -0.42016960295E+02  0.36266616966E+01  0.46116456643E+02  0.10906261263E+03  0.89383154304E+02 0.  0.
          5    1    3    3  502    0  0.62873116062E+01  0.29523713935E+02  0.21461239916E+02  0.37334364739E+02  0.47000000000E+01 0. -1.
         -5    1    3    3    0  502  0.35729648689E+02 -0.33150375631E+02  0.19159254418E+03  0.19775072234E+03  0.47000000000E+01 0.  1.
          5    1    4    4  503    0 -0.56372501416E+02 -0.10310873031E+02 -0.11599500078E+01  0.57511811853E+02  0.47000000000E+01 0. -1.
         -5    1    4    4    0  503  0.14355541121E+02  0.13937534728E+02  0.47276406650E+02  0.51550800779E+02  0.47000000000E+01 0.  1.
<mgrwt>
<rscale>  0 0.99230480E+02</rscale>
<asrwt>0</asrwt>
<pdfrwt beam="1">  1        1 0.65367278E-02 0.99363390E+02</pdfrwt>
<pdfrwt beam="2">  1       -1 0.46409071E-01 0.99363390E+02</pdfrwt>
<totfact> 0.50445519E+03</totfact>
</mgrwt>
</event>
<event>
 8    1  0.6396648E-004  0.9130348E+02  0.7546771E-02  0.1300180E+00
          3   -1    0    0  501    0  0.00000000000E+00  0.00000000000E+00  0.28356385246E+02  0.28356385246E+02  0.00000000000E+00 0. -1.
         -3   -1    0    0    0  501 -0.00000000000E+00 -0.00000000000E+00 -0.29287149190E+03  0.29287149190E+03  0.00000000000E+00 0.  1.
         23    2    1    2    0    0  0.45389719118E+01  0.99641952666E+01 -0.14254642763E+03  0.16887078529E+03  0.89877531352E+02 0.  0.
         23    2    1    2    0    0 -0.45389719118E+01 -0.99641952666E+01 -0.12196867902E+03  0.15235709185E+03  0.90644565869E+02 0.  0.
          5    1    3    3  502    0 -0.34207702921E+02 -0.12054955560E+00 -0.11493288379E+03  0.12000766329E+03  0.47000000000E+01 0. -1.
         -5    1    3    3    0  502  0.38746674833E+02  0.10084744822E+02 -0.27613543839E+02  0.48863122005E+02  0.47000000000E+01 0.  1.
          5    1    4    4  503    0  0.12403625009E+02 -0.43287081764E+02 -0.33873521493E+02  0.56543141222E+02  0.47000000000E+01 0. -1.
         -5    1    4    4    0  503 -0.16942596921E+02  0.33322886497E+02 -0.88095157529E+02  0.95813950628E+02  0.47000000000E+01 0.  1.
<mgrwt>
<rscale>  0 0.91112515E+02</rscale>
<asrwt>0</asrwt>
<pdfrwt beam="1">  1        3 0.43625212E-02 0.91303476E+02</pdfrwt>
<pdfrwt beam="2">  1       -3 0.45057149E-01 0.91303476E+02</pdfrwt>
<totfact> 0.29426346E+03</totfact>
</mgrwt>
</event>
<event>
 8    1  0.6396648E-004  0.1097599E+03  0.7546771E-02  0.1261127E+00
         -1   -1    0    0    0  501 -0.00000000000E+00  0.00000000000E+00  0.10794264640E+02  0.10794264640E+02  0.00000000000E+00 0.  1.
          1   -1    0    0  501    0  0.00000000000E+00 -0.00000000000E+00 -0.11476624055E+04  0.11476624055E+04  0.00000000000E+00 0. -1.
         23    2    1    2    0    0 -0.83824166655E+01  0.59137575717E+02 -0.46808818614E+03  0.48072968955E+03  0.91798511086E+02 0.  0.
         23    2    1    2    0    0  0.83824166655E+01 -0.59137575717E+02 -0.66877995470E+03  0.67772698057E+03  0.92085365923E+02 0.  0.
          5    1    4    4  502    0 -0.90996412484E+01 -0.79210624721E+02 -0.55852990609E+03  0.56421172669E+03  0.47000000000E+01 0. -1.
         -5    1    4    4    0  502  0.17482057914E+02  0.20073049004E+02 -0.11025004861E+03  0.11351525388E+03  0.47000000000E+01 0.  1.
          5    1    3    3  503    0 -0.34828868450E+02 -0.35321231186E+00 -0.26723454224E+03  0.26953583324E+03  0.47000000000E+01 0. -1.
         -5    1    3    3    0  503  0.26446451785E+02  0.59490788029E+02 -0.20085364390E+03  0.21119385631E+03  0.47000000000E+01 0.  1.
<mgrwt>
<rscale>  0 0.10969970E+03</rscale>
<asrwt>0</asrwt>
<pdfrwt beam="1">  1        1 0.17656344E+00 0.10975989E+03</pdfrwt>
<pdfrwt beam="2">  1       -1 0.16606562E-02 0.10975989E+03</pdfrwt>
<totfact> 0.10706262E+04</totfact>
</mgrwt>
</event>
<event>
 8    1  0.6396648E-004  0.2891221E+03  0.7546771E-02  0.1090885E+00
          1   -1    0    0  501    0  0.00000000000E+00  0.00000000000E+00  0.29147501697E+04  0.29147501697E+04  0.00000000000E+00 0. -1.
         -1   -1    0    0    0  501 -0.00000000000E+00 -0.00000000000E+00 -0.44011566609E+02  0.44011566609E+02  0.00000000000E+00 0.  1.
         23    2    1    2    0    0  0.11376603134E+03  0.24933732126E+03  0.56147920518E+03  0.63154613031E+03  0.92085868631E+02 0.  0.
         23    2    1    2    0    0 -0.11376603134E+03 -0.24933732126E+03  0.23092593979E+04  0.23272156060E+04  0.90231370878E+02 0.  0.
          5    1    4    4  502    0 -0.73719303477E+02 -0.22036945630E+03  0.20592010906E+04  0.20722761531E+04  0.47000000000E+01 0. -1.
         -5    1    4    4    0  502 -0.40046727861E+02 -0.28967864962E+02  0.25005830734E+03  0.25493945297E+03  0.47000000000E+01 0.  1.
          5    1    3    3  503    0  0.11150748867E+00  0.40824342422E+02  0.15882754343E+03  0.16405766645E+03  0.47000000000E+01 0. -1.
         -5    1    3    3    0  503  0.11365452385E+03  0.20851297884E+03  0.40265166175E+03  0.46748846386E+03  0.47000000000E+01 0.  1.
<mgrwt>
<rscale>  0 0.28897571E+03</rscale>
<asrwt>0</asrwt>
<pdfrwt beam="1">  1        1 0.44842295E+00 0.28912215E+03</pdfrwt>
<pdfrwt beam="2">  1       -1 0.67710125E-02 0.28912215E+03</pdfrwt>
<totfact> 0.91769379E+01</totfact>
</mgrwt>
</event>
<event>
 8    1  0.6396648E-004  0.1238809E+03  0.7546771E-02  0.1237815E+00
         -1   -1    0    0    0  501 -0.00000000000E+00  0.00000000000E+00  0.88091162324E+02  0.88091162324E+02  0.00000000000E+00 0.  1.
          1   -1    0    0  501    0  0.00000000000E+00 -0.00000000000E+00 -0.23237170589E+03  0.23237170589E+03  0.00000000000E+00 0. -1.
         23    2    1    2    0    0  0.23261900987E+02  0.79781885833E+02 -0.15517666847E+03  0.19856050089E+03  0.91870608630E+02 0.  0.
         23    2    1    2    0    0 -0.23261900987E+02 -0.79781885833E+02  0.10896124900E+02  0.12190236733E+03  0.88516644078E+02 0.  0.
          5    1    4    4  502    0 -0.46230176372E+02 -0.23781761942E+02  0.27447937965E+02  0.58976950642E+02  0.47000000000E+01 0. -1.
         -5    1    4    4    0  502  0.22968275385E+02 -0.56000123891E+02 -0.16551813065E+02  0.62925416691E+02  0.47000000000E+01 0.  1.
          5    1    3    3  503    0 -0.17217967969E+02  0.18076678324E+02 -0.10776617603E+03  0.11071975170E+03  0.47000000000E+01 0. -1.
         -5    1    3    3    0  503  0.40479868956E+02  0.61705207509E+02 -0.47410492442E+02  0.87840749189E+02  0.47000000000E+01 0.  1.
<mgrwt>
<rscale>  0 0.12325961E+03</rscale>
<asrwt>0</asrwt>
<pdfrwt beam="1">  1        1 0.35749493E-01 0.12388089E+03</pdfrwt>
<pdfrwt beam="2">  1       -1 0.13552487E-01 0.12388089E+03</pdfrwt>
<totfact> 0.43725044E+03</totfact>
</mgrwt>
</event>
<event>
 8    1  0.6396648E-004  0.1013034E+03  0.7546771E-02  0.1278853E+00
         -1   -1    0    0    0  501 -0.00000000000E+00  0.00000000000E+00  0.46788849420E+03  0.46788849420E+03  0.00000000000E+00 0.  1.
          1   -1    0    0  501    0  0.00000000000E+00 -0.00000000000E+00 -0.40238123839E+02  0.40238123839E+02  0.00000000000E+00 0. -1.
         23    2    1    2    0    0  0.15642215225E+02  0.38537702730E+02  0.41422876440E+02  0.10944514506E+03  0.92371812022E+02 0.  0.
         23    2    1    2    0    0 -0.15642215225E+02 -0.38537702730E+02  0.38622749392E+03  0.39868147298E+03  0.89696189472E+02 0.  0.
          5    1    4    4  502    0 -0.23480672302E+02  0.20276417847E+02  0.21775436284E+03  0.22000347185E+03  0.47000000000E+01 0. -1.
         -5    1    4    4    0  502  0.78384570765E+01 -0.58814120578E+02  0.16847313108E+03  0.17867800112E+03  0.47000000000E+01 0.  1.
          5    1    3    3  503    0 -0.23147077269E+01  0.23085103795E+02 -0.27575079374E+02  0.36342191618E+02  0.47000000000E+01 0. -1.
         -5    1    3    3    0  503  0.17956922952E+02  0.15452598936E+02  0.68997955814E+02  0.73102953444E+02  0.47000000000E+01 0.  1.
<mgrwt>
<rscale>  0 0.10068947E+03</rscale>
<asrwt>0</asrwt>
<pdfrwt beam="1">  1        1 0.61904809E-02 0.10130343E+03</pdfrwt>
<pdfrwt beam="2">  1       -1 0.71982841E-01 0.10130343E+03</pdfrwt>
<totfact> 0.23895013E+03</totfact>
</mgrwt>
</event>
<event>
 8    1  0.6396648E-004  0.1458419E+03  0.7546771E-02  0.1208126E+00
          1   -1    0    0  501    0  0.00000000000E+00  0.00000000000E+00  0.45064301800E+03  0.45064301800E+03  0.00000000000E+00 0. -1.
         -1   -1    0    0    0  501 -0.00000000000E+00 -0.00000000000E+00 -0.46008981224E+02  0.46008981224E+02  0.00000000000E+00 0.  1.
         23    2    1    2    0    0  0.10452135050E+03  0.79676568990E+01  0.16746920720E+03  0.22207160275E+03  0.10139854596E+03 0.  0.
         23    2    1    2    0    0 -0.10452135050E+03 -0.79676568990E+01  0.23716482957E+03  0.27458039647E+03  0.90327412642E+02 0.  0.
          5    1    3    3  502    0  0.75476676823E+02  0.52789699388E+02  0.10597813016E+03  0.14048820299E+03  0.47000000000E+01 0. -1.
         -5    1    4    4    0  503 -0.46797769110E+02 -0.34005439157E+02  0.48890964148E+02  0.75886872786E+02  0.47000000000E+01 0.  1.
          5    1    4    4  503    0 -0.57723581386E+02  0.26037782258E+02  0.18827386542E+03  0.19869352368E+03  0.47000000000E+01 0. -1.
         -5    1    3    3    0  502  0.29044673672E+02 -0.44822042489E+02  0.61491077041E+02  0.81583399765E+02  0.47000000000E+01 0.  1.
<mgrwt>
<rscale>  0 0.14393785E+03</rscale>
<asrwt>0</asrwt>
<pdfrwt beam="1">  1        1 0.69329692E-01 0.14584191E+03</pdfrwt>
<pdfrwt beam="2">  1       -1 0.70783051E-02 0.14584191E+03</pdfrwt>
<totfact> 0.52027379E+03</totfact>
</mgrwt>
</event>
<event>
 8    1  0.6396648E-004  0.1023868E+03  0.7546771E-02  0.1276084E+00
         -2   -1    0    0    0  501 -0.00000000000E+00  0.00000000000E+00  0.51878785354E+02  0.51878785354E+02  0.00000000000E+00 0.  1.
          2   -1    0    0  501    0  0.00000000000E+00 -0.00000000000E+00 -0.25774050332E+03  0.25774050332E+03  0.00000000000E+00 0. -1.
         23    2    1    2    0    0 -0.73987326319E+01  0.40154529785E+02 -0.17610530819E+03  0.20299614565E+03  0.92342991434E+02 0.  0.
         23    2    1    2    0    0  0.73987326319E+01 -0.40154529785E+02 -0.29756409779E+02  0.10662314303E+03  0.93893147782E+02 0.  0.
          5    1    3    3  502    0  0.37374605801E+02 -0.13442456494E+01 -0.87712919449E+02  0.95468918467E+02  0.47000000000E+01 0. -1.
         -5    1    3    3    0  502 -0.44773338433E+02  0.41498775435E+02 -0.88392388742E+02  0.10752722718E+03  0.47000000000E+01 0.  1.
          5    1    4    4  503    0  0.31895571167E+02 -0.32649235854E+02 -0.54122344454E+02  0.70955043732E+02  0.47000000000E+01 0. -1.
         -5    1    4    4    0  503 -0.24496838535E+02 -0.75052939309E+01  0.24365934674E+02  0.35668099301E+02  0.47000000000E+01 0.  1.
<mgrwt>
<rscale>  0 0.10202999E+03</rscale>
<asrwt>0</asrwt>
<pdfrwt beam="1">  1        2 0.39652384E-01 0.10238677E+03</pdfrwt>
<pdfrwt beam="2">  1       -2 0.79813518E-02 0.10238677E+03</pdfrwt>
<totfact> 0.11269287E+04</totfact>
</mgrwt>
</event>
<event>
 8    1  0.6396648E-004  0.1020572E+03  0.7546771E-02  0.1278497E+00
          1   -1    0    0  501    0  0.00000000000E+00  0.00000000000E+00  0.57554260998E+03  0.57554260998E+03  0.00000000000E+00 0. -1.
         -1   -1    0    0    0  501 -0.00000000000E+00 -0.00000000000E+00 -0.17041707650E+03  0.17041707650E+03  0.00000000000E+00 0.  1.
         23    2    1    2    0    0  0.22834705323E-01  0.34016843091E+02 -0.15148498808E+03  0.18007016688E+03  0.91216321182E+02 0.  0.
         23    2    1    2    0    0 -0.22834705323E-01 -0.34016843091E+02  0.55661052157E+03  0.56588951961E+03  0.96221253106E+02 0.  0.
          5    1    4    4  502    0  0.24787999021E+01 -0.65285898772E+02  0.44728004334E+03  0.45205079382E+03  0.47000000000E+01 0. -1.
         -5    1    4    4    0  502 -0.25016346075E+01  0.31269055681E+02  0.10933047823E+03  0.11383872578E+03  0.47000000000E+01 0.  1.
          5    1    3    3  503    0  0.35806341993E+02  0.39532910912E+02 -0.54327150179E+02  0.76278925128E+02  0.47000000000E+01 0. -1.
         -5    1    3    3    0  503 -0.35783507287E+02 -0.55160678213E+01 -0.97157837903E+02  0.10379124175E+03  0.47000000000E+01 0.  1.
<mgrwt>
<rscale>  0 0.10086021E+03</rscale>
<asrwt>0</asrwt>
<pdfrwt beam="1">  1        1 0.88545016E-01 0.10205722E+03</pdfrwt>
<pdfrwt beam="2">  1       -1 0.26218012E-01 0.10205722E+03</pdfrwt>
<totfact> 0.48731671E+02</totfact>
</mgrwt>
</event>
<event>
 8    1  0.6396648E-004  0.1840306E+03  0.7546771E-02  0.1164002E+00
          1   -1    0    0  501    0  0.00000000000E+00  0.00000000000E+00  0.10872429941E+04  0.10872429941E+04  0.00000000000E+00 0. -1.
         -1   -1    0    0    0  501 -0.00000000000E+00 -0.00000000000E+00 -0.36207433056E+02  0.36207433056E+02  0.00000000000E+00 0.  1.
         23    2    1    2    0    0  0.44268799504E+02 -0.15334540242E+03  0.31514478023E+03  0.36494311564E+03  0.91611713734E+02 0.  0.
         23    2    1    2    0    0 -0.44268799504E+02  0.15334540242E+03  0.73589078084E+03  0.75850731154E+03  0.91233553512E+02 0.  0.
          5    1    3    3  502    0  0.32867152811E+01 -0.32342503666E+02  0.10375043826E+02  0.34446648242E+02  0.47000000000E+01 0. -1.
         -5    1    3    3    0  502  0.40982084222E+02 -0.12100289875E+03  0.30476973641E+03  0.33049646740E+03  0.47000000000E+01 0.  1.
          5    1    4    4  503    0 -0.26971757964E+02  0.80749263004E+02  0.57255130462E+03  0.57886527416E+03  0.47000000000E+01 0. -1.
         -5    1    4    4    0  503 -0.17297041540E+02  0.72596139416E+02  0.16333947621E+03  0.17964203738E+03  0.47000000000E+01 0.  1.
<mgrwt>
<rscale>  0 0.18398355E+03</rscale>
<asrwt>0</asrwt>
<pdfrwt beam="1">  1        1 0.16726813E+00 0.18403055E+03</pdfrwt>
<pdfrwt beam="2">  1       -1 0.55703751E-02 0.18403055E+03</pdfrwt>
<totfact> 0.20541108E+03</totfact>
</mgrwt>
</event>
<event>
 8    1  0.6396648E-004  0.1128966E+03  0.7546771E-02  0.1256201E+00
          2   -1    0    0  501    0  0.00000000000E+00  0.00000000000E+00  0.97721879584E+03  0.97721879584E+03  0.00000000000E+00 0. -1.
         -2   -1    0    0    0  501 -0.00000000000E+00 -0.00000000000E+00 -0.18068741505E+02  0.18068741505E+02  0.00000000000E+00 0.  1.
         23    2    1    2    0    0 -0.35448238692E+02  0.54606539805E+02  0.21422055565E+03  0.24214890839E+03  0.92234459695E+02 0.  0.
         23    2    1    2    0    0  0.35448238692E+02 -0.54606539805E+02  0.74492949868E+03  0.75313862895E+03  0.89774075325E+02 0.  0.
          5    1    4    4  502    0 -0.10578123032E+02 -0.59468487928E+02  0.51491300734E+03  0.51846493890E+03  0.47000000000E+01 0. -1.
         -5    1    3    3    0  503 -0.24327148084E+02  0.37041332665E+02  0.23765811883E+02  0.50505190565E+02  0.47000000000E+01 0.  1.
          5    1    3    3  503    0 -0.11121090608E+02  0.17565207139E+02  0.19045474377E+03  0.19164371783E+03  0.47000000000E+01 0.  1.
         -5    1    4    4    0  502  0.46026361724E+02  0.48619481237E+01  0.23001649134E+03  0.23467369005E+03  0.47000000000E+01 0.  1.
<mgrwt>
<rscale>  0 0.11239301E+03</rscale>
<asrwt>0</asrwt>
<pdfrwt beam="1">  1        2 0.15034131E+00 0.11289662E+03</pdfrwt>
<pdfrwt beam="2">  1       -2 0.27798071E-02 0.11289662E+03</pdfrwt>
<totfact> 0.12221199E+04</totfact>
</mgrwt>
</event>
<event>
 8    1  0.6396648E-004  0.1038311E+03  0.7546771E-02  0.1274139E+00
         -2   -1    0    0    0  501 -0.00000000000E+00  0.00000000000E+00  0.36104875683E+02  0.36104875683E+02  0.00000000000E+00 0.  1.
          2   -1    0    0  501    0  0.00000000000E+00 -0.00000000000E+00 -0.35416655204E+03  0.35416655204E+03  0.00000000000E+00 0. -1.
         23    2    1    2    0    0  0.12993333947E+02  0.46002725048E+02 -0.24055681854E+03  0.26070328517E+03  0.88394244790E+02 0.  0.
         23    2    1    2    0    0 -0.12993333947E+02 -0.46002725048E+02 -0.77504857816E+02  0.12956814255E+03  0.92172789592E+02 0.  0.
          5    1    4    4  502    0 -0.24319199447E+02 -0.64682836703E+02 -0.26997791730E+02  0.74338843036E+02  0.47000000000E+01 0. -1.
         -5    1    3    3    0  503  0.48012396859E+02  0.38755308200E+02 -0.17854864222E+03  0.18896791210E+03  0.47000000000E+01 0.  1.
          5    1    3    3  503    0 -0.35019062912E+02  0.72474168479E+01 -0.62008176318E+02  0.71735373063E+02  0.47000000000E+01 0. -1.
         -5    1    4    4    0  502  0.11325865500E+02  0.18680111654E+02 -0.50507066086E+02  0.55229299519E+02  0.47000000000E+01 0.  1.
<mgrwt>
<rscale>  0 0.10298605E+03</rscale>
<asrwt>0</asrwt>
<pdfrwt beam="1">  1        2 0.54487163E-01 0.10383112E+03</pdfrwt>
<pdfrwt beam="2">  1       -2 0.55545961E-02 0.10383112E+03</pdfrwt>
<totfact> 0.13995325E+04</totfact>
</mgrwt>
</event>
<event>
 8    1  0.6396648E-004  0.9383849E+02  0.7546771E-02  0.1299149E+00
          2   -1    0    0  501    0  0.00000000000E+00  0.00000000000E+00  0.25352252945E+03  0.25352252945E+03  0.00000000000E+00 0. -1.
         -2   -1    0    0    0  501 -0.00000000000E+00 -0.00000000000E+00 -0.32112738860E+02  0.32112738860E+02  0.00000000000E+00 0.  1.
         23    2    1    2    0    0  0.23933483143E+02 -0.58408077727E+00  0.13514278519E+03  0.16452730542E+03  0.90733175171E+02 0.  0.
         23    2    1    2    0    0 -0.23933483143E+02  0.58408077727E+00  0.86267005409E+02  0.12110796289E+03  0.81559730796E+02 0.  0.
          5    1    4    4  502    0  0.14055976840E+02  0.31248010083E+02  0.46581747870E+02  0.58016875594E+02  0.47000000000E+01 0. -1.
         -5    1    4    4    0  502 -0.37989459983E+02 -0.30663929306E+02  0.39685257539E+02  0.63091087296E+02  0.47000000000E+01 0.  1.
          5    1    3    3  503    0 -0.14711529034E+02  0.33459696402E+02  0.84308768107E+02  0.92011079493E+02  0.47000000000E+01 0. -1.
         -5    1    3    3    0  503  0.38645012178E+02 -0.34043777179E+02  0.50834017079E+02  0.72516225931E+02  0.47000000000E+01 0.  1.
<mgrwt>
<rscale>  0 0.91546460E+02</rscale>
<asrwt>0</asrwt>
<pdfrwt beam="1">  1        2 0.39003465E-01 0.93838488E+02</pdfrwt>
<pdfrwt beam="2">  1       -2 0.49404215E-02 0.93838488E+02</pdfrwt>
<totfact> 0.23436649E+04</totfact>
</mgrwt>
</event>
<event>
 8    1  0.6396648E-004  0.1218860E+03  0.7546771E-02  0.1240306E+00
         -1   -1    0    0    0  501 -0.00000000000E+00  0.00000000000E+00  0.29834863816E+03  0.29834863816E+03  0.00000000000E+00 0.  1.
          1   -1    0    0  501    0  0.00000000000E+00 -0.00000000000E+00 -0.10135137424E+03  0.10135137424E+03  0.00000000000E+00 0. -1.
         23    2    1    2    0    0  0.61865315020E+02  0.50374014367E+02  0.24157871380E+03  0.27058544212E+03  0.92148510550E+02 0.  0.
         23    2    1    2    0    0 -0.61865315020E+02 -0.50374014367E+02 -0.44581449888E+02  0.12911457028E+03  0.91204210755E+02 0.  0.
          5    1    4    4  502    0 -0.76651496222E+02 -0.33066467580E+02 -0.56882819067E+01  0.83805069669E+02  0.47000000000E+01 0. -1.
         -5    1    4    4    0  502  0.14786181202E+02 -0.17307546788E+02 -0.38893167981E+02  0.45309500614E+02  0.47000000000E+01 0.  1.
          5    1    3    3  503    0  0.31555799897E+02 -0.79177934391E+01  0.17940684729E+02  0.37448873529E+02  0.47000000000E+01 0. -1.
         -5    1    3    3    0  503  0.30309515123E+02  0.58291807806E+02  0.22363802908E+03  0.23313656859E+03  0.47000000000E+01 0.  1.
<mgrwt>
<rscale>  0 0.12170756E+03</rscale>
<asrwt>0</asrwt>
<pdfrwt beam="1">  1        1 0.15592519E-01 0.12188604E+03</pdfrwt>
<pdfrwt beam="2">  1       -1 0.45899790E-01 0.12188604E+03</pdfrwt>
<totfact> 0.16582001E+03</totfact>
</mgrwt>
</event>
<event>
 8    1  0.6396648E-004  0.1084863E+03  0.7546771E-02  0.1278667E+00
         -1   -1    0    0    0  501 -0.00000000000E+00  0.00000000000E+00  0.11145660421E+03  0.11145660421E+03  0.00000000000E+00 0.  1.
          1   -1    0    0  501    0  0.00000000000E+00 -0.00000000000E+00 -0.80391423130E+02  0.80391423130E+02  0.00000000000E+00 0. -1.
         23    2    1    2    0    0  0.44181621675E+02 -0.37246288883E+02  0.15244062709E+02  0.82214174803E+02  0.56457837022E+02 0.  0.
         23    2    1    2    0    0 -0.44181621675E+02  0.37246288883E+02  0.15821118370E+02  0.10963385254E+03  0.91814879547E+02 0.  0.
          5    1    4    4  502    0  0.26300787514E+02 -0.28902821257E+01  0.78611382941E+01  0.27999511601E+02  0.47000000000E+01 0. -1.
         -5    1    4    4    0  502 -0.70482409188E+02  0.40136571009E+02  0.79599800760E+01  0.81634340937E+02  0.47000000000E+01 0.  1.
          5    1    3    3  503    0  0.28569616163E+02  0.66645816142E+01 -0.67492569777E+01  0.30467722028E+02  0.47000000000E+01 0. -1.
         -5    1    3    3    0  503  0.15612005511E+02 -0.43910870497E+02  0.21993319687E+02  0.51746452775E+02  0.47000000000E+01 0.  1.
<mgrwt>
<rscale>  0 0.10077866E+03</rscale>
<asrwt>0</asrwt>
<pdfrwt beam="1">  1        1 0.12367911E-01 0.10848628E+03</pdfrwt>
<pdfrwt beam="2">  1       -1 0.17147170E-01 0.10848628E+03</pdfrwt>
<totfact> 0.11457528E+04</totfact>
</mgrwt>
</event>
<event>
 8    1  0.6396648E-004  0.1144931E+03  0.7546771E-02  0.1253797E+00
         -1   -1    0    0    0  501 -0.00000000000E+00  0.00000000000E+00  0.53471228870E+03  0.53471228870E+03  0.00000000000E+00 0.  1.
          1   -1    0    0  501    0  0.00000000000E+00 -0.00000000000E+00 -0.38414978990E+02  0.38414978990E+02  0.00000000000E+00 0. -1.
         23    2    1    2    0    0 -0.61484815202E+02  0.29353377921E+02  0.42236844832E+03  0.43684026700E+03  0.88274058743E+02 0.  0.
         23    2    1    2    0    0  0.61484815202E+02 -0.29353377921E+02  0.73928861399E+02  0.13628700069E+03  0.92014491869E+02 0.  0.
          5    1    3    3  502    0 -0.19804370255E+01  0.46891034641E+02  0.22532226722E+03  0.23020622356E+03  0.47000000000E+01 0. -1.
         -5    1    3    3    0  502 -0.59504378177E+02 -0.17537656719E+02  0.19704618110E+03  0.20663404344E+03  0.47000000000E+01 0.  1.
          5    1    4    4  503    0  0.38533318257E+02  0.30315545682E+02  0.22723575813E+02  0.54242970269E+02  0.47000000000E+01 0. -1.
         -5    1    4    4    0  503  0.22951496945E+02 -0.59668923603E+02  0.51205285585E+02  0.82044030422E+02  0.47000000000E+01 0.  1.
<mgrwt>
<rscale>  0 0.11373973E+03</rscale>
<asrwt>0</asrwt>
<pdfrwt beam="1">  1        1 0.59099972E-02 0.11449310E+03</pdfrwt>
<pdfrwt beam="2">  1       -1 0.82263424E-01 0.11449310E+03</pdfrwt>
<totfact> 0.19569483E+03</totfact>
</mgrwt>
</event>
<event>
 8    1  0.6396648E-004  0.2099967E+03  0.7546771E-02  0.1142759E+00
         -1   -1    0    0    0  501 -0.00000000000E+00  0.00000000000E+00  0.10391741302E+04  0.10391741302E+04  0.00000000000E+00 0.  1.
          1   -1    0    0  501    0  0.00000000000E+00 -0.00000000000E+00 -0.45831717002E+02  0.45831717002E+02  0.00000000000E+00 0. -1.
         23    2    1    2    0    0 -0.97581180678E+02 -0.15492795840E+03  0.33151400640E+03  0.39242854084E+03  0.10282929596E+03 0.  0.
         23    2    1    2    0    0  0.97581180678E+02  0.15492795840E+03  0.66182840677E+03  0.69257730634E+03  0.90120619874E+02 0.  0.
          5    1    4    4  502    0  0.90529282757E+02  0.96086407049E+02  0.55311830863E+03  0.56867398569E+03  0.47000000000E+01 0. -1.
         -5    1    4    4    0  502  0.70518979213E+01  0.58841551354E+02  0.10871009814E+03  0.12390332065E+03  0.47000000000E+01 0.  1.
          5    1    3    3  503    0 -0.71279598371E+02 -0.22704307813E+02  0.11149153444E+03  0.13434552091E+03  0.47000000000E+01 0. -1.
         -5    1    3    3    0  503 -0.26301582307E+02 -0.13222365059E+03  0.22002247196E+03  0.25808301992E+03  0.47000000000E+01 0.  1.
<mgrwt>
<rscale>  0 0.20850030E+03</rscale>
<asrwt>0</asrwt>
<pdfrwt beam="1">  1        1 0.70510342E-02 0.20999672E+03</pdfrwt>
<pdfrwt beam="2">  1       -1 0.15987293E+00 0.20999672E+03</pdfrwt>
<totfact> 0.33036164E+02</totfact>
</mgrwt>
</event>
<event>
 8    1  0.6396648E-004  0.9433403E+02  0.7546771E-02  0.1294398E+00
          2   -1    0    0  501    0  0.00000000000E+00  0.00000000000E+00  0.18502328696E+03  0.18502328696E+03  0.00000000000E+00 0.  1.
         -2   -1    0    0    0  501 -0.00000000000E+00 -0.00000000000E+00 -0.35287690682E+03  0.35287690682E+03  0.00000000000E+00 0. -1.
         23    2    1    2    0    0  0.16270173071E+02 -0.18223538950E+02 -0.33466410550E+03  0.34770529563E+03  0.91115822967E+02 0.  0.
         23    2    1    2    0    0 -0.16270173071E+02  0.18223538950E+02  0.16681048565E+03  0.19019489815E+03  0.88042860343E+02 0.  0.
          5    1    4    4  502    0 -0.45571825508E+02 -0.66913789251E+01  0.12445994557E+03  0.13279282316E+03  0.47000000000E+01 0. -1.
         -5    1    4    4    0  502  0.29301652438E+02  0.24914917875E+02  0.42350540078E+02  0.57402074990E+02  0.47000000000E+01 0.  1.
          5    1    3    3  503    0  0.24254020005E+02 -0.43046930695E+02 -0.10092091288E+03  0.11246517855E+03  0.47000000000E+01 0. -1.
         -5    1    3    3    0  503 -0.79838469344E+01  0.24823391745E+02 -0.23374319262E+03  0.23524011708E+03  0.47000000000E+01 0.  1.
<mgrwt>
<rscale>  0 0.93583965E+02</rscale>
<asrwt>0</asrwt>
<pdfrwt beam="1">  1        2 0.28465121E-01 0.94334029E+02</pdfrwt>
<pdfrwt beam="2">  1       -2 0.54288755E-01 0.94334029E+02</pdfrwt>
<totfact> 0.59678422E+02</totfact>
</mgrwt>
</event>
<event>
 7    1  0.6396648E-004  0.3204019E+03  0.7546771E-02  0.1078113E+00
         -2   -1    0    0    0  501 -0.00000000000E+00  0.00000000000E+00  0.35629676086E+03  0.35629676086E+03  0.00000000000E+00 0.  1.
          2   -1    0    0  501    0  0.00000000000E+00 -0.00000000000E+00 -0.56787309684E+03  0.56787309684E+03  0.00000000000E+00 0. -1.
         23    2    1    2    0    0  0.19978875241E+03  0.20187109251E+03 -0.43939308689E+03  0.53103140382E+03  0.90887751939E+02 0.  0.
          5    1    3    3  502    0  0.12831136460E+03  0.67695355033E+02 -0.23585925038E+03  0.27694429651E+03  0.47000000000E+01 0. -1.
         -5    1    1    2    0  503 -0.10692178507E+03 -0.64498024868E+02  0.18249156084E+03  0.22117306145E+03  0.47000000000E+01 0.  1.
          5    1    1    2  503    0 -0.92866967344E+02 -0.13737306765E+03  0.45325190076E+02  0.17196539243E+03  0.47000000000E+01 0. -1.
         -5    1    3    3    0  502  0.71477387807E+02  0.13417573748E+03 -0.20353383651E+03  0.25408710731E+03  0.47000000000E+01 0.  1.
<mgrwt>
<rscale>  0 0.31470320E+03</rscale>
<asrwt>0</asrwt>
<pdfrwt beam="1">  1        2 0.87365092E-01 0.32040189E+03</pdfrwt>
<pdfrwt beam="2">  1       -2 0.54814886E-01 0.32040189E+03</pdfrwt>
<totfact> 0.17234663E+02</totfact>
</mgrwt>
</event>
<event>
 8    1  0.6396648E-004  0.9038629E+02  0.7546771E-02  0.1302336E+00
         -1   -1    0    0    0  501 -0.00000000000E+00  0.00000000000E+00  0.42173395505E+03  0.42173395505E+03  0.00000000000E+00 0.  1.
          1   -1    0    0  501    0  0.00000000000E+00 -0.00000000000E+00 -0.24356145809E+02  0.24356145809E+02  0.00000000000E+00 0. -1.
         23    2    1    2    0    0 -0.88116119592E+01  0.54452738551E+01  0.95703863069E+02  0.13116653648E+03  0.89096214129E+02 0.  0.
         23    2    1    2    0    0  0.88116119592E+01 -0.54452738551E+01  0.30167394618E+03  0.31492356439E+03  0.89790790686E+02 0.  0.
          5    1    4    4  502    0  0.42203011798E+02 -0.13537741810E+02  0.90038823348E+02  0.10046613543E+03  0.47000000000E+01 0. -1.
         -5    1    3    3    0  503 -0.38158476849E+00 -0.28756904656E+02  0.90714351613E+02  0.95280054370E+02  0.47000000000E+01 0.  1.
          5    1    3    3  503    0 -0.84300271907E+01  0.34202178511E+02  0.49895114561E+01  0.35886482106E+02  0.47000000000E+01 0. -1.
         -5    1    4    4    0  502 -0.33391399839E+02  0.80924679545E+01  0.21163512283E+03  0.21445742896E+03  0.47000000000E+01 0.  1.
<mgrwt>
<rscale>  0 0.90213304E+02</rscale>
<asrwt>0</asrwt>
<pdfrwt beam="1">  1        1 0.37470997E-02 0.90386291E+02</pdfrwt>
<pdfrwt beam="2">  1       -1 0.64882141E-01 0.90386291E+02</pdfrwt>
<totfact> 0.57235085E+03</totfact>
</mgrwt>
</event>
<event>
 8    1  0.6396648E-004  0.9684428E+02  0.7546771E-02  0.1288195E+00
         -1   -1    0    0    0  501 -0.00000000000E+00  0.00000000000E+00  0.53169175828E+02  0.53169175828E+02  0.00000000000E+00 0.  1.
          1   -1    0    0  501    0  0.00000000000E+00 -0.00000000000E+00 -0.19438243667E+03  0.19438243667E+03  0.00000000000E+00 0. -1.
         23    2    1    2    0    0  0.12640882192E+02 -0.26222697305E+02 -0.28647623246E+02  0.99059736007E+02  0.90248120332E+02 0.  0.
         23    2    1    2    0    0 -0.12640882192E+02  0.26222697305E+02 -0.11256563759E+03  0.14849187649E+03  0.92365539353E+02 0.  0.
          5    1    3    3  502    0  0.32249234642E+02 -0.45483356224E+02 -0.40178497190E+02  0.68885052550E+02  0.47000000000E+01 0. -1.
         -5    1    4    4    0  503 -0.34597661271E+02  0.38896579383E+02 -0.11096387646E+03  0.12265811809E+03  0.47000000000E+01 0.  1.
          5    1    4    4  503    0  0.21956779079E+02 -0.12673882078E+02 -0.16017611304E+01  0.25833758402E+02  0.47000000000E+01 0. -1.
         -5    1    3    3    0  502 -0.19608352450E+02  0.19260658919E+02  0.11530873944E+02  0.30174683456E+02  0.47000000000E+01 0.  1.
<mgrwt>
<rscale>  0 0.96335952E+02</rscale>
<asrwt>0</asrwt>
<pdfrwt beam="1">  1        1 0.29904990E-01 0.96844280E+02</pdfrwt>
<pdfrwt beam="2">  1       -1 0.81798732E-02 0.96844280E+02</pdfrwt>
<totfact> 0.11538441E+04</totfact>
</mgrwt>
</event>
<event>
 8    1  0.6396648E-004  0.1103936E+03  0.7546771E-02  0.1260452E+00
          2   -1    0    0  501    0  0.00000000000E+00  0.00000000000E+00  0.59036133463E+03  0.59036133463E+03  0.00000000000E+00 0. -1.
         -2   -1    0    0    0  501 -0.00000000000E+00 -0.00000000000E+00 -0.21622585399E+02  0.21622585399E+02  0.00000000000E+00 0.  1.
         23    2    1    2    0    0  0.71609360086E+01  0.60421590332E+02  0.35879892324E+03  0.37539767810E+03  0.92112441225E+02 0.  0.
         23    2    1    2    0    0 -0.71609360086E+01 -0.60421590332E+02  0.20993982599E+03  0.23658624192E+03  0.90533263204E+02 0.  0.
          5    1    4    4  502    0 -0.27391495404E+02  0.93366927273E+01  0.10399540336E+03  0.10804907113E+03  0.47000000000E+01 0. -1.
         -5    1    3    3    0  503  0.38172138229E+02  0.63633651054E+02  0.19720129311E+03  0.21075292095E+03  0.47000000000E+01 0.  1.
          5    1    3    3  503    0 -0.31011202220E+02 -0.32120607219E+01  0.16159763013E+03  0.16464475716E+03  0.47000000000E+01 0. -1.
         -5    1    4    4    0  502  0.20230559395E+02 -0.69758283060E+02  0.10594442263E+03  0.12853717079E+03  0.47000000000E+01 0.  1.
<mgrwt>
<rscale>  0 0.11006359E+03</rscale>
<asrwt>0</asrwt>
<pdfrwt beam="1">  1        2 0.90824809E-01 0.11039361E+03</pdfrwt>
<pdfrwt beam="2">  1       -2 0.33265520E-02 0.11039361E+03</pdfrwt>
<totfact> 0.17337248E+04</totfact>
</mgrwt>
</event>
<event>
 8    1  0.6396648E-004  0.1185053E+03  0.7546771E-02  0.1247276E+00
          2   -1    0    0  501    0  0.00000000000E+00  0.00000000000E+00  0.11669308180E+03  0.11669308180E+03  0.00000000000E+00 0.  1.
         -2   -1    0    0    0  501 -0.00000000000E+00 -0.00000000000E+00 -0.11668896320E+03  0.11668896320E+03  0.00000000000E+00 0. -1.
         23    2    1    2    0    0  0.42428764932E+02 -0.52525448565E+02  0.62487839153E+01  0.11866994712E+03  0.97387813449E+02 0.  0.
         23    2    1    2    0    0 -0.42428764932E+02  0.52525448565E+02 -0.62446653154E+01  0.11471209787E+03  0.92524303362E+02 0.  0.
          5    1    3    3  502    0  0.38750114659E+02  0.75715351859E+01  0.33896999690E+02  0.52249364773E+02  0.47000000000E+01 0. -1.
         -5    1    4    4    0  503 -0.33613947851E+02  0.12113889255E+02  0.39088040517E+02  0.53165860423E+02  0.47000000000E+01 0.  1.
          5    1    4    4  503    0 -0.88148170814E+01  0.40411559310E+02 -0.45332705833E+02  0.61546237449E+02  0.47000000000E+01 0. -1.
         -5    1    3    3    0  502  0.36786502730E+01 -0.60096983751E+02 -0.27648215775E+02  0.66420582347E+02  0.47000000000E+01 0.  1.
<mgrwt>
<rscale>  0 0.11750181E+03</rscale>
<asrwt>0</asrwt>
<pdfrwt beam="1">  1        2 0.17952782E-01 0.11850531E+03</pdfrwt>
<pdfrwt beam="2">  1       -2 0.17952148E-01 0.11850531E+03</pdfrwt>
<totfact> 0.74548913E+03</totfact>
</mgrwt>
</event>
<event>
 8    1  0.6396648E-004  0.1327661E+03  0.7546771E-02  0.1231313E+00
         -2   -1    0    0    0  501 -0.00000000000E+00  0.00000000000E+00  0.83590191752E+02  0.83590191752E+02  0.00000000000E+00 0.  1.
          2   -1    0    0  501    0  0.00000000000E+00 -0.00000000000E+00 -0.22287700925E+03  0.22287700925E+03  0.00000000000E+00 0. -1.
         23    2    1    2    0    0 -0.12808552075E+02  0.60152449396E+02 -0.73709000413E+01  0.13297056472E+03  0.11766250354E+03 0.  0.
         23    2    1    2    0    0  0.12808552075E+02 -0.60152449396E+02 -0.13191591745E+03  0.17349663628E+03  0.94429324620E+02 0.  0.
          5    1    3    3  502    0  0.48703755428E+02  0.40528935832E+01 -0.69331640595E+01  0.49584680124E+02  0.47000000000E+01 0. -1.
         -5    1    4    4    0  503  0.39126523771E+02  0.48572897893E+01 -0.30340634126E+02  0.49971213770E+02  0.47000000000E+01 0.  1.
          5    1    4    4  503    0 -0.26317971695E+02 -0.65009739186E+02 -0.10157528333E+03  0.12352542251E+03  0.47000000000E+01 0. -1.
         -5    1    3    3    0  502 -0.61512307503E+02  0.56099555813E+02 -0.43773598184E+00  0.83385884594E+02  0.47000000000E+01 0.  1.
<mgrwt>
<rscale>  0 0.12743473E+03</rscale>
<asrwt>0</asrwt>
<pdfrwt beam="1">  1        2 0.34288770E-01 0.13276611E+03</pdfrwt>
<pdfrwt beam="2">  1       -2 0.12860030E-01 0.13276611E+03</pdfrwt>
<totfact> 0.63511301E+03</totfact>
</mgrwt>
</event>
<event>
 7    1  0.8510885E-004  0.2010564E+03  0.7546771E-02  0.1170067E+00
         -4   -1    0    0    0  501 -0.00000000000E+00  0.00000000000E+00  0.18764034285E+03  0.18764034285E+03  0.00000000000E+00 0.  1.
          4   -1    0    0  501    0  0.00000000000E+00 -0.00000000000E+00 -0.14891813374E+03  0.14891813374E+03  0.00000000000E+00 0. -1.
         23    2    1    2    0    0  0.81565085675E+02 -0.38851465639E+01  0.55895282127E+02  0.13476996114E+03  0.91491542213E+02 0.  0.
          5    1    1    2  502    0 -0.45390618032E+02  0.34262066437E+02 -0.94886456760E+02  0.11072365185E+03  0.47000000000E+01 0. -1.
         -5    1    1    2    0  502 -0.36174467643E+02 -0.30376919873E+02  0.77713383744E+02  0.91064863604E+02  0.47000000000E+01 0.  1.
          5    1    3    3  503    0  0.88700473539E+02 -0.24641301203E+02  0.62502728034E+02  0.11137166939E+03  0.47000000000E+01 0. -1.
         -5    1    3    3    0  503 -0.71353878646E+01  0.20756154639E+02 -0.66074459070E+01  0.23398291749E+02  0.47000000000E+01 0.  1.
<mgrwt>
<rscale>  0 0.17768044E+03</rscale>
<asrwt>0</asrwt>
<pdfrwt beam="1">  1        4 0.22910482E-01 0.20105644E+03</pdfrwt>
<pdfrwt beam="2">  1       -4 0.28867745E-01 0.20105644E+03</pdfrwt>
<totfact> 0.35848363E+02</totfact>
</mgrwt>
</event>
<event>
 8    1  0.6396648E-004  0.1223637E+03  0.7546771E-02  0.1239366E+00
          2   -1    0    0  501    0  0.00000000000E+00  0.00000000000E+00  0.11151230717E+04  0.11151230717E+04  0.00000000000E+00 0. -1.
         -2   -1    0    0    0  501 -0.00000000000E+00 -0.00000000000E+00 -0.17024428504E+02  0.17024428504E+02  0.00000000000E+00 0.  1.
         23    2    1    2    0    0 -0.67868149758E+02  0.45277210470E+02  0.28715721097E+03  0.31202624359E+03  0.90801989713E+02 0.  0.
         23    2    1    2    0    0  0.67868149758E+02 -0.45277210470E+02  0.81094143227E+03  0.82012125666E+03  0.91196258227E+02 0.  0.
          5    1    4    4  502    0  0.38715531668E+02  0.24570592875E+02  0.34082628842E+03  0.34392914285E+03  0.47000000000E+01 0. -1.
         -5    1    4    4    0  502  0.29152618090E+02 -0.69847803345E+02  0.47011514385E+03  0.47619211381E+03  0.47000000000E+01 0.  1.
          5    1    3    3  503    0  0.29715030718E+01  0.49864819184E+02  0.13610841803E+03  0.14506178504E+03  0.47000000000E+01 0. -1.
         -5    1    3    3    0  503 -0.70839652830E+02 -0.45876087146E+01  0.15104879295E+03  0.16696445855E+03  0.47000000000E+01 0.  1.
<mgrwt>
<rscale>  0 0.12229022E+03</rscale>
<asrwt>0</asrwt>
<pdfrwt beam="1">  1        2 0.17155734E+00 0.12236368E+03</pdfrwt>
<pdfrwt beam="2">  1       -2 0.26191437E-02 0.12236368E+03</pdfrwt>
<totfact> 0.11136971E+04</totfact>
</mgrwt>
</event>
<event>
 8    1  0.6396648E-004  0.1045004E+03  0.7546771E-02  0.1271232E+00
         -1   -1    0    0    0  501 -0.00000000000E+00  0.00000000000E+00  0.47125106045E+02  0.47125106045E+02  0.00000000000E+00 0.  1.
          1   -1    0    0  501    0  0.00000000000E+00 -0.00000000000E+00 -0.23226125320E+03  0.23226125320E+03  0.00000000000E+00 0. -1.
         23    2    1    2    0    0 -0.24308517685E+02 -0.43513736486E+02 -0.83115525545E+02  0.13352351718E+03  0.91847644270E+02 0.  0.
         23    2    1    2    0    0  0.24308517685E+02  0.43513736486E+02 -0.10202062161E+03  0.14586284207E+03  0.91560975133E+02 0.  0.
          5    1    4    4  502    0  0.11596520703E+02  0.71791021283E+02 -0.72557028541E+02  0.10283502526E+03  0.47000000000E+01 0. -1.
         -5    1    4    4    0  502  0.12711996982E+02 -0.28277284797E+02 -0.29463593070E+02  0.43027816809E+02  0.47000000000E+01 0.  1.
          5    1    3    3  503    0  0.21568233793E+02  0.85128627329E+01 -0.52446388216E+02  0.57535825168E+02  0.47000000000E+01 0. -1.
         -5    1    3    3    0  503 -0.45876751478E+02 -0.52026599219E+02 -0.30669137329E+02  0.75987692010E+02  0.47000000000E+01 0.  1.
<mgrwt>
<rscale>  0 0.10443740E+03</rscale>
<asrwt>0</asrwt>
<pdfrwt beam="1">  1        1 0.35732500E-01 0.10450043E+03</pdfrwt>
<pdfrwt beam="2">  1       -1 0.72500164E-02 0.10450043E+03</pdfrwt>
<totfact> 0.11179001E+04</totfact>
</mgrwt>
</event>
<event>
 8    1  0.6396648E-004  0.1269040E+03  0.7546771E-02  0.1233139E+00
         -1   -1    0    0    0  501 -0.00000000000E+00  0.00000000000E+00  0.42647222975E+02  0.42647222975E+02  0.00000000000E+00 0.  1.
          1   -1    0    0  501    0  0.00000000000E+00 -0.00000000000E+00 -0.57541322997E+03  0.57541322997E+03  0.00000000000E+00 0. -1.
         23    2    1    2    0    0  0.67154567057E+02  0.44985049592E+02 -0.79899803112E+02  0.14774946417E+03  0.94406223641E+02 0.  0.
         23    2    1    2    0    0 -0.67154567057E+02 -0.44985049592E+02 -0.45286620389E+03  0.47031098878E+03  0.97832698928E+02 0.  0.
          5    1    3    3  502    0 -0.14982613116E+02  0.36721181870E+02 -0.37686597557E+02  0.54911688457E+02  0.47000000000E+01 0. -1.
         -5    1    4    4    0  503  0.20388510032E+02 -0.76708858314E+01 -0.33346351982E+02  0.40107393599E+02  0.47000000000E+01 0.  1.
          5    1    4    4  503    0 -0.87543077089E+02 -0.37314163761E+02 -0.41951985190E+03  0.43020359518E+03  0.47000000000E+01 0. -1.
         -5    1    3    3    0  502  0.82137180172E+02  0.82638677219E+01 -0.42213205555E+02  0.92837775714E+02  0.47000000000E+01 0.  1.
<mgrwt>
<rscale>  0 0.12624327E+03</rscale>
<asrwt>0</asrwt>
<pdfrwt beam="1">  1        1 0.88525115E-01 0.12690401E+03</pdfrwt>
<pdfrwt beam="2">  1       -1 0.65611110E-02 0.12690401E+03</pdfrwt>
<totfact> 0.42022235E+03</totfact>
</mgrwt>
</event>
<event>
 8    1  0.6396648E-004  0.9515870E+02  0.7546771E-02  0.1292181E+00
         -3   -1    0    0    0  501 -0.00000000000E+00  0.00000000000E+00  0.11320239802E+03  0.11320239802E+03  0.00000000000E+00 0.  1.
          3   -1    0    0  501    0  0.00000000000E+00 -0.00000000000E+00 -0.80014695540E+02  0.80014695540E+02  0.00000000000E+00 0. -1.
         23    2    1    2    0    0 -0.84258657338E+01 -0.17651900593E+02  0.14493189756E+01  0.95169737212E+02  0.93126760642E+02 0.  0.
         23    2    1    2    0    0  0.84258657338E+01  0.17651900593E+02  0.31738383499E+02  0.98047356343E+02  0.90682822468E+02 0.  0.
          5    1    3    3  502    0  0.19705671083E+02 -0.95709041129E+01 -0.39025624436E+02  0.45000056010E+02  0.47000000000E+01 0. -1.
         -5    1    3    3    0  502 -0.28131536816E+02 -0.80809964803E+01  0.40474943411E+02  0.50169681202E+02  0.47000000000E+01 0.  1.
          5    1    4    4  503    0  0.48304240247E+02  0.10852418124E+02  0.65474417589E+01  0.50160079730E+02  0.47000000000E+01 0. -1.
         -5    1    4    4    0  503 -0.39878374513E+02  0.67994824688E+01  0.25190941740E+02  0.47887276613E+02  0.47000000000E+01 0.  1.
<mgrwt>
<rscale>  0 0.94555390E+02</rscale>
<asrwt>0</asrwt>
<pdfrwt beam="1">  1        3 0.12309953E-01 0.95158701E+02</pdfrwt>
<pdfrwt beam="2">  1       -3 0.17415753E-01 0.95158701E+02</pdfrwt>
<totfact> 0.31710816E+03</totfact>
</mgrwt>
</event>
<event>
 8    1  0.6396648E-004  0.1006115E+03  0.7546771E-02  0.1279514E+00
          1   -1    0    0  501    0  0.00000000000E+00  0.00000000000E+00  0.11571781493E+04  0.11571781493E+04  0.00000000000E+00 0. -1.
         -1   -1    0    0    0  501 -0.00000000000E+00 -0.00000000000E+00 -0.87168045028E+01  0.87168045028E+01  0.00000000000E+00 0.  1.
         23    2    1    2    0    0 -0.37175675915E+02 -0.21802725184E+02  0.52665099627E+03  0.53599752082E+03  0.89859227364E+02 0.  0.
         23    2    1    2    0    0  0.37175675915E+02  0.21802725184E+02  0.62181034851E+03  0.62989743297E+03  0.90913567985E+02 0.  0.
          5    1    4    4  502    0  0.27605812690E+02 -0.33855547356E+02  0.26836077032E+03  0.27193358018E+03  0.47000000000E+01 0. -1.
         -5    1    4    4    0  502  0.95698632250E+01  0.55658272540E+02  0.35344957819E+03  0.35796385279E+03  0.47000000000E+01 0.  1.
          5    1    3    3  503    0 -0.22962647311E+02 -0.48656926059E+02  0.45269750405E+03  0.45590777554E+03  0.47000000000E+01 0. -1.
         -5    1    3    3    0  503 -0.14213028604E+02  0.26854200874E+02  0.73953492227E+02  0.80089745281E+02  0.47000000000E+01 0.  1.
<mgrwt>
<rscale>  0 0.10037269E+03</rscale>
<asrwt>0</asrwt>
<pdfrwt beam="1">  1        1 0.17802729E+00 0.10061146E+03</pdfrwt>
<pdfrwt beam="2">  1       -1 0.13410478E-02 0.10061146E+03</pdfrwt>
<totfact> 0.14218954E+04</totfact>
</mgrwt>
</event>
<event>
 8    1  0.6396648E-004  0.1106573E+03  0.7546771E-02  0.1262963E+00
          3   -1    0    0  501    0  0.00000000000E+00  0.00000000000E+00  0.73448787458E+03  0.73448787458E+03  0.00000000000E+00 0. -1.
         -3   -1    0    0    0  501 -0.00000000000E+00 -0.00000000000E+00 -0.15553203327E+02  0.15553203327E+02  0.00000000000E+00 0.  1.
         23    2    1    2    0    0  0.17395299024E+02 -0.58608974420E+02  0.36979067584E+03  0.38599244955E+03  0.92235670202E+02 0.  0.
         23    2    1    2    0    0 -0.17395299024E+02  0.58608974420E+02  0.34914399541E+03  0.36404862836E+03  0.83019672172E+02 0.  0.
          5    1    3    3  502    0 -0.16540800117E+02 -0.64390440032E+02  0.30776369077E+03  0.31489729467E+03  0.47000000000E+01 0. -1.
         -5    1    4    4    0  503  0.46983682392E+01  0.68495405122E+02  0.31176446406E+03  0.31926926917E+03  0.47000000000E+01 0.  1.
          5    1    4    4  503    0 -0.22093667263E+02 -0.98864307017E+01  0.37379531350E+02  0.44779359186E+02  0.47000000000E+01 0. -1.
         -5    1    3    3    0  502  0.33936099141E+02  0.57814656116E+01  0.62026985069E+02  0.71095154872E+02  0.47000000000E+01 0.  1.
<mgrwt>
<rscale>  0 0.10871787E+03</rscale>
<asrwt>0</asrwt>
<pdfrwt beam="1">  1        3 0.11299811E+00 0.11065725E+03</pdfrwt>
<pdfrwt beam="2">  1       -3 0.23928011E-02 0.11065725E+03</pdfrwt>
<totfact> 0.11024010E+03</totfact>
</mgrwt>
</event>
<event>
 8    1  0.6396648E-004  0.9823528E+02  0.7546771E-02  0.1287325E+00
          1   -1    0    0  501    0  0.00000000000E+00  0.00000000000E+00  0.18521269527E+03  0.18521269527E+03  0.00000000000E+00 0. -1.
         -1   -1    0    0    0  501 -0.00000000000E+00 -0.00000000000E+00 -0.53242172298E+02  0.53242172298E+02  0.00000000000E+00 0.  1.
         23    2    1    2    0    0  0.34382702167E+01 -0.18449676990E+02  0.97628579846E+02  0.13438979513E+03  0.90427126174E+02 0.  0.
         23    2    1    2    0    0 -0.34382702167E+01  0.18449676990E+02  0.34341943127E+02  0.10406507244E+03  0.96425919554E+02 0.  0.
          5    1    4    4  502    0 -0.69377049613E+01  0.57324519980E+02  0.13167022794E+02  0.59411218051E+02  0.47000000000E+01 0.  1.
         -5    1    3    3    0  503 -0.15829818867E+02 -0.31132256197E+02  0.13407995518E+01  0.35265964962E+02  0.47000000000E+01 0.  1.
          5    1    3    3  503    0  0.19268089083E+02  0.12682579208E+02  0.96287780294E+02  0.99123830163E+02  0.47000000000E+01 0. -1.
         -5    1    4    4    0  502  0.34994347446E+01 -0.38874842990E+02  0.21174920333E+02  0.44653854393E+02  0.47000000000E+01 0. -1.
<mgrwt>
<rscale>  0 0.96730770E+02</rscale>
<asrwt>0</asrwt>
<pdfrwt beam="1">  1        1 0.28494261E-01 0.98235280E+02</pdfrwt>
<pdfrwt beam="2">  1       -1 0.81911035E-02 0.98235280E+02</pdfrwt>
<totfact> 0.12237324E+04</totfact>
</mgrwt>
</event>
<event>
 8    1  0.6396648E-004  0.1345961E+03  0.7546771E-02  0.1220827E+00
          1   -1    0    0  501    0  0.00000000000E+00  0.00000000000E+00  0.44792416113E+02  0.44792416113E+02  0.00000000000E+00 0. -1.
         -1   -1    0    0    0  501 -0.00000000000E+00 -0.00000000000E+00 -0.46158059956E+03  0.46158059956E+03  0.00000000000E+00 0.  1.
         23    2    1    2    0    0 -0.95007142469E+01 -0.99629233617E+02 -0.29777815176E+03  0.32678424013E+03  0.89999245360E+02 0.  0.
         23    2    1    2    0    0  0.95007142469E+01  0.99629233617E+02 -0.11901003168E+03  0.17958877554E+03  0.89847052809E+02 0.  0.
          5    1    3    3  502    0 -0.49071769835E+02 -0.66459449859E+02 -0.18389027020E+03  0.20164974224E+03  0.47000000000E+01 0. -1.
         -5    1    4    4    0  503  0.28622786209E+02  0.45630560003E+02 -0.10840588052E+03  0.12114180462E+03  0.47000000000E+01 0.  1.
          5    1    4    4  503    0 -0.19122071962E+02  0.53998673614E+02 -0.10604151166E+02  0.58446970924E+02  0.47000000000E+01 0. -1.
         -5    1    3    3    0  502  0.39571055588E+02 -0.33169783757E+02 -0.11388788157E+03  0.12513449789E+03  0.47000000000E+01 0.  1.
<mgrwt>
<rscale>  0 0.13457067E+03</rscale>
<asrwt>0</asrwt>
<pdfrwt beam="1">  1        1 0.68911409E-02 0.13459611E+03</pdfrwt>
<pdfrwt beam="2">  1       -1 0.71012400E-01 0.13459611E+03</pdfrwt>
<totfact> 0.21558316E+03</totfact>
</mgrwt>
</event>
<event>
 8    1  0.6396648E-004  0.9541777E+02  0.7546771E-02  0.1290958E+00
         -1   -1    0    0    0  501 -0.00000000000E+00  0.00000000000E+00  0.39591872135E+03  0.39591872135E+03  0.00000000000E+00 0.  1.
          1   -1    0    0  501    0  0.00000000000E+00 -0.00000000000E+00 -0.32960658335E+03  0.32960658335E+03  0.00000000000E+00 0. -1.
         23    2    1    2    0    0 -0.21618119537E+02 -0.13192892489E+02  0.38322520843E+03  0.39492544999E+03  0.91995408423E+02 0.  0.
         23    2    1    2    0    0  0.21618119537E+02  0.13192892489E+02 -0.31691307043E+03  0.33059985471E+03  0.90669588192E+02 0.  0.
          5    1    4    4  502    0 -0.29750149110E+02 -0.16754182917E+02 -0.11213291431E+03  0.11731007838E+03  0.47000000000E+01 0. -1.
         -5    1    4    4    0  502  0.51368268647E+02  0.29947075406E+02 -0.20478015611E+03  0.21328977633E+03  0.47000000000E+01 0.  1.
          5    1    3    3  503    0  0.24184271568E+02 -0.61761648457E+01  0.33129753327E+02  0.41745593288E+02  0.47000000000E+01 0. -1.
         -5    1    3    3    0  503 -0.45802391105E+02 -0.70167276432E+01  0.35009545510E+03  0.35317985671E+03  0.47000000000E+01 0.  1.
<mgrwt>
<rscale>  0 0.95096750E+02</rscale>
<asrwt>0</asrwt>
<pdfrwt beam="1">  1        1 0.50708705E-01 0.95417769E+02</pdfrwt>
<pdfrwt beam="2">  1       -1 0.60910572E-01 0.95417769E+02</pdfrwt>
<totfact> 0.22666502E+02</totfact>
</mgrwt>
</event>
<event>
 8    1  0.6396648E-004  0.1117078E+03  0.7546771E-02  0.1257691E+00
         -2   -1    0    0    0  501 -0.00000000000E+00  0.00000000000E+00  0.60405379636E+03  0.60405379636E+03  0.00000000000E+00 0.  1.
          2   -1    0    0  501    0  0.00000000000E+00 -0.00000000000E+00 -0.20567412291E+02  0.20567412291E+02  0.00000000000E+00 0. -1.
         23    2    1    2    0    0  0.14601975401E+02  0.61310007693E+02  0.29840723204E+03  0.31843701589E+03  0.91559391772E+02 0.  0.
         23    2    1    2    0    0 -0.14601975401E+02 -0.61310007693E+02  0.28507915203E+03  0.30618419277E+03  0.92230701236E+02 0.  0.
          5    1    3    3  502    0 -0.34531002981E+02  0.49226858950E+02  0.15855067739E+03  0.16963514114E+03  0.47000000000E+01 0. -1.
         -5    1    3    3    0  502  0.49132978382E+02  0.12083148743E+02  0.13985655466E+03  0.14880187475E+03  0.47000000000E+01 0.  1.
          5    1    4    4  503    0 -0.53572306865E+02 -0.38712519077E+02  0.17711574349E+03  0.18910507077E+03  0.47000000000E+01 0. -1.
         -5    1    4    4    0  503  0.38970331464E+02 -0.22597488616E+02  0.10796340853E+03  0.11707912200E+03  0.47000000000E+01 0.  1.
<mgrwt>
<rscale>  0 0.11156916E+03</rscale>
<asrwt>0</asrwt>
<pdfrwt beam="1">  1        2 0.31642177E-02 0.11170782E+03</pdfrwt>
<pdfrwt beam="2">  1       -2 0.92931340E-01 0.11170782E+03</pdfrwt>
<totfact> 0.27821957E+03</totfact>
</mgrwt>
</event>
<event>
 8    1  0.6396648E-004  0.1295514E+03  0.7546771E-02  0.1231642E+00
         -1   -1    0    0    0  501 -0.00000000000E+00  0.00000000000E+00  0.13056934380E+03  0.13056934380E+03  0.00000000000E+00 0.  1.
          1   -1    0    0  501    0  0.00000000000E+00 -0.00000000000E+00 -0.12211317135E+03  0.12211317135E+03  0.00000000000E+00 0. -1.
         23    2    1    2    0    0  0.15559664777E+02  0.92780690741E+02  0.22170494161E+02  0.13143471299E+03  0.89068474926E+02 0.  0.
         23    2    1    2    0    0 -0.15559664777E+02 -0.92780690741E+02 -0.13714321709E+02  0.12124780215E+03  0.75250163886E+02 0.  0.
          5    1    4    4  502    0 -0.34969546799E+02 -0.37049802300E+02 -0.30689013662E+02  0.59661232081E+02  0.47000000000E+01 0. -1.
         -5    1    3    3    0  503 -0.16431260744E+02  0.91743671185E+02  0.30228026740E+02  0.98095418510E+02  0.47000000000E+01 0.  1.
          5    1    3    3  503    0  0.31990925522E+02  0.10370195563E+01 -0.80575325787E+01  0.33339294482E+02  0.47000000000E+01 0. -1.
         -5    1    4    4    0  502  0.19409882022E+02 -0.55730888441E+02  0.16974691953E+02  0.61586570073E+02  0.47000000000E+01 0.  1.
<mgrwt>
<rscale>  0 0.12721869E+03</rscale>
<asrwt>0</asrwt>
<pdfrwt beam="1">  1        1 0.18786642E-01 0.12955135E+03</pdfrwt>
<pdfrwt beam="2">  1       -1 0.20087591E-01 0.12955135E+03</pdfrwt>
<totfact> 0.52738102E+03</totfact>
</mgrwt>
</event>
<event>
 8    1  0.6396648E-004  0.9464027E+02  0.7546771E-02  0.1293970E+00
         -2   -1    0    0    0  501 -0.00000000000E+00  0.00000000000E+00  0.10061811658E+03  0.10061811658E+03  0.00000000000E+00 0.  1.
          2   -1    0    0  501    0  0.00000000000E+00 -0.00000000000E+00 -0.48296325452E+03  0.48296325452E+03  0.00000000000E+00 0. -1.
         23    2    1    2    0    0 -0.29572516620E+01  0.25620790782E+02  0.74046142609E+02  0.11748075884E+03  0.87485582834E+02 0.  0.
         23    2    1    2    0    0  0.29572516620E+01 -0.25620790782E+02 -0.45639128055E+03  0.46610061227E+03  0.91058275502E+02 0.  0.
          5    1    4    4  502    0 -0.19160293224E+02 -0.50438163607E+02 -0.35951756946E+03  0.36357406114E+03  0.47000000000E+01 0. -1.
         -5    1    3    3    0  503 -0.15529817549E+02 -0.12977183093E+02  0.73743491642E+02  0.76614457341E+02  0.47000000000E+01 0.  1.
          5    1    3    3  503    0  0.12572565887E+02  0.38597973875E+02  0.30265096728E+00  0.40866301495E+02  0.47000000000E+01 0. -1.
         -5    1    4    4    0  502  0.22117544886E+02  0.24817372825E+02 -0.96873711096E+02  0.10252655113E+03  0.47000000000E+01 0.  1.
<mgrwt>
<rscale>  0 0.93770274E+02</rscale>
<asrwt>0</asrwt>
<pdfrwt beam="1">  1        2 0.74302042E-01 0.94640265E+02</pdfrwt>
<pdfrwt beam="2">  1       -2 0.15479710E-01 0.94640265E+02</pdfrwt>
<totfact> 0.20371963E+03</totfact>
</mgrwt>
</event>
<event>
 8    1  0.6396648E-004  0.1260873E+03  0.7546771E-02  0.1233603E+00
          2   -1    0    0  501    0  0.00000000000E+00  0.00000000000E+00  0.15404065776E+03  0.15404065776E+03  0.00000000000E+00 0. -1.
         -2   -1    0    0    0  501 -0.00000000000E+00 -0.00000000000E+00 -0.12308454267E+03  0.12308454267E+03  0.00000000000E+00 0.  1.
         23    2    1    2    0    0  0.77419674625E+02 -0.46150024913E+02 -0.40832521235E+02  0.13253413369E+03  0.88172393542E+02 0.  0.
         23    2    1    2    0    0 -0.77419674625E+02  0.46150024913E+02  0.71788636327E+02  0.14459106674E+03  0.87346078662E+02 0.  0.
          5    1    4    4  502    0 -0.33676618326E+02 -0.24377397921E+02  0.30511125888E+02  0.51782148992E+02  0.47000000000E+01 0. -1.
         -5    1    4    4    0  502 -0.43743056300E+02  0.70527422834E+02  0.41277510438E+02  0.92808917751E+02  0.47000000000E+01 0.  1.
          5    1    3    3  503    0  0.59259863776E+02 -0.72416657743E+02 -0.27833750305E+02  0.97737973323E+02  0.47000000000E+01 0. -1.
         -5    1    3    3    0  503  0.18159810850E+02  0.26266632829E+02 -0.12998770929E+02  0.34796160362E+02  0.47000000000E+01 0.  1.
<mgrwt>
<rscale>  0 0.12594292E+03</rscale>
<asrwt>0</asrwt>
<pdfrwt beam="1">  1        2 0.23698563E-01 0.12608728E+03</pdfrwt>
<pdfrwt beam="2">  1       -2 0.18936084E-01 0.12608728E+03</pdfrwt>
<totfact> 0.50143401E+03</totfact>
</mgrwt>
</event>
<event>
 8    1  0.6396648E-004  0.9024146E+02  0.7546771E-02  0.1306734E+00
          1   -1    0    0  501    0  0.00000000000E+00  0.00000000000E+00  0.22233221382E+02  0.22233221382E+02  0.00000000000E+00 0. -1.
         -1   -1    0    0    0  501 -0.00000000000E+00 -0.00000000000E+00 -0.37285844793E+03  0.37285844793E+03  0.00000000000E+00 0.  1.
         23    2    1    2    0    0 -0.10515511152E+02  0.52237756549E+01 -0.10853995162E+03  0.13673377436E+03  0.82324602311E+02 0.  0.
         23    2    1    2    0    0  0.10515511152E+02 -0.52237756549E+01 -0.24208527493E+03  0.25835789496E+03  0.89474341245E+02 0.  0.
          5    1    3    3  502    0  0.21677368337E+02  0.80314149077E+01 -0.21231501711E+00  0.23591248401E+02  0.47000000000E+01 0. -1.
         -5    1    3    3    0  502 -0.32192879490E+02 -0.28076392529E+01 -0.10832763660E+03  0.11314252596E+03  0.47000000000E+01 0.  1.
          5    1    4    4  503    0  0.39798372118E+02 -0.31025395156E+02 -0.14578548677E+03  0.15434371941E+03  0.47000000000E+01 0. -1.
         -5    1    4    4    0  503 -0.29282860966E+02  0.25801619501E+02 -0.96299788159E+02  0.10401417555E+03  0.47000000000E+01 0.  1.
<mgrwt>
<rscale>  0 0.88415869E+02</rscale>
<asrwt>0</asrwt>
<pdfrwt beam="1">  1        1 0.34204955E-02 0.90241462E+02</pdfrwt>
<pdfrwt beam="2">  1       -1 0.57362840E-01 0.90241462E+02</pdfrwt>
<totfact> 0.81764158E+03</totfact>
</mgrwt>
</event>
<event>
 8    1  0.6396648E-004  0.1212216E+03  0.7546771E-02  0.1245564E+00
          2   -1    0    0  501    0  0.00000000000E+00  0.00000000000E+00  0.62803515578E+03  0.62803515578E+03  0.00000000000E+00 0. -1.
         -2   -1    0    0    0  501 -0.00000000000E+00 -0.00000000000E+00 -0.32649857992E+02  0.32649857992E+02  0.00000000000E+00 0.  1.
         23    2    1    2    0    0  0.39979594560E+02  0.51388513823E+02  0.11291144729E+03  0.16566131831E+03  0.10225228664E+03 0.  0.
         23    2    1    2    0    0 -0.39979594560E+02 -0.51388513823E+02  0.48247385050E+03  0.49502369546E+03  0.89600755109E+02 0.  0.
          5    1    3    3  502    0  0.12624916502E+02 -0.28975950782E+02  0.52140845325E+02  0.61153511687E+02  0.47000000000E+01 0. -1.
         -5    1    4    4    0  503  0.24452214222E+02 -0.30567027616E+02  0.24050963045E+03  0.24371956486E+03  0.47000000000E+01 0.  1.
          5    1    4    4  503    0 -0.64431808781E+02 -0.20821486207E+02  0.24196422005E+03  0.25130413060E+03  0.47000000000E+01 0. -1.
         -5    1    3    3    0  502  0.27354678058E+02  0.80364464605E+02  0.60770601966E+02  0.10450780663E+03  0.47000000000E+01 0.  1.
<mgrwt>
<rscale>  0 0.11851663E+03</rscale>
<asrwt>0</asrwt>
<pdfrwt beam="1">  1        2 0.96620784E-01 0.12122160E+03</pdfrwt>
<pdfrwt beam="2">  1       -2 0.50230555E-02 0.12122160E+03</pdfrwt>
<totfact> 0.88382728E+03</totfact>
</mgrwt>
</event>
<event>
 8    1  0.6396648E-004  0.9159947E+02  0.7546771E-02  0.1303636E+00
          2   -1    0    0  501    0  0.00000000000E+00  0.00000000000E+00  0.55769329190E+02  0.55769329190E+02  0.00000000000E+00 0. -1.
         -2   -1    0    0    0  501 -0.00000000000E+00 -0.00000000000E+00 -0.13865053388E+03  0.13865053388E+03  0.00000000000E+00 0.  1.
         23    2    1    2    0    0 -0.12967004109E+02  0.15746114329E+02 -0.36073576877E+02  0.91553845984E+02  0.81637739151E+02 0.  0.
         23    2    1    2    0    0  0.12967004109E+02 -0.15746114329E+02 -0.46807627810E+02  0.10286601708E+03  0.89299384864E+02 0.  0.
          5    1    4    4  502    0  0.34502723850E+01 -0.50452737786E+02 -0.11172700512E+02  0.52002907288E+02  0.47000000000E+01 0. -1.
         -5    1    4    4    0  502  0.95167317236E+01  0.34706623457E+02 -0.35634927297E+02  0.50863109794E+02  0.47000000000E+01 0.  1.
          5    1    3    3  503    0  0.25179474043E+02 -0.98398231697E+01  0.70980001655E+01  0.28342541161E+02  0.47000000000E+01 0. -1.
         -5    1    3    3    0  503 -0.38146478152E+02  0.25585937499E+02 -0.43171577043E+02  0.63211304823E+02  0.47000000000E+01 0.  1.
<mgrwt>
<rscale>  0 0.89676789E+02</rscale>
<asrwt>0</asrwt>
<pdfrwt beam="1">  1        2 0.85798969E-02 0.91599473E+02</pdfrwt>
<pdfrwt beam="2">  1       -2 0.21330851E-01 0.91599473E+02</pdfrwt>
<totfact> 0.13103732E+04</totfact>
</mgrwt>
</event>
<event>
 8    1  0.6449516E-004  0.1514829E+03  0.7546771E-02  0.1199452E+00
          1   -1    0    0  501    0  0.00000000000E+00  0.00000000000E+00  0.28543581761E+03  0.28543581761E+03  0.00000000000E+00 0. -1.
         -1   -1    0    0    0  501 -0.00000000000E+00 -0.00000000000E+00 -0.48204817790E+03  0.48204817790E+03  0.00000000000E+00 0.  1.
         23    2    1    2    0    0  0.84007616121E+02 -0.81791518150E+02  0.25270845849E+03  0.29331496017E+03  0.91787629123E+02 0.  0.
         23    2    1    2    0    0 -0.84007616121E+02  0.81791518150E+02 -0.44932081878E+03  0.47416903534E+03  0.95916337892E+02 0.  0.
          5    1    3    3  502    0  0.49298589290E+02 -0.91634561182E+02  0.22377885867E+03  0.24683255720E+03  0.47000000000E+01 0. -1.
         -5    1    3    3    0  502  0.34709026831E+02  0.98430430315E+01  0.28929599819E+02  0.46482402965E+02  0.47000000000E+01 0.  1.
          5    1    4    4  503    0  0.12006239459E+02  0.46359084400E+02 -0.16883219068E+03  0.17555544168E+03  0.47000000000E+01 0. -1.
         -5    1    4    4    0  503 -0.96013855580E+02  0.35432433751E+02 -0.28048862810E+03  0.29861359366E+03  0.47000000000E+01 0.  1.
<mgrwt>
<rscale>  0 0.15083378E+03</rscale>
<asrwt>0</asrwt>
<pdfrwt beam="1">  1        1 0.43913203E-01 0.15148292E+03</pdfrwt>
<pdfrwt beam="2">  1       -1 0.74161258E-01 0.15148292E+03</pdfrwt>
<totfact> 0.18254358E+02</totfact>
</mgrwt>
</event>
<event>
 8    1  0.6396648E-004  0.1000222E+03  0.7546771E-02  0.1281317E+00
          3   -1    0    0  501    0  0.00000000000E+00  0.00000000000E+00  0.19754203943E+02  0.19754203943E+02  0.00000000000E+00 0. -1.
         -3   -1    0    0    0  501 -0.00000000000E+00 -0.00000000000E+00 -0.65390859476E+03  0.65390859476E+03  0.00000000000E+00 0.  1.
         23    2    1    2    0    0  0.27350174193E+02  0.28380426464E+02 -0.48486705417E+03  0.49507625750E+03  0.91929102517E+02 0.  0.
         23    2    1    2    0    0 -0.27350174193E+02 -0.28380426464E+02 -0.14928733665E+03  0.17858654120E+03  0.89738303862E+02 0.  0.
          5    1    3    3  502    0  0.13567249229E+02  0.61564556450E+02 -0.28211353999E+03  0.28910967522E+03  0.47000000000E+01 0. -1.
         -5    1    4    4    0  503  0.27123051535E+02 -0.57212076181E+00 -0.86635743347E+02  0.90905606384E+02  0.47000000000E+01 0.  1.
          5    1    4    4  503    0 -0.54473225728E+02 -0.27808305702E+02 -0.62651593300E+02  0.87680934816E+02  0.47000000000E+01 0. -1.
         -5    1    3    3    0  502  0.13782924964E+02 -0.33184129986E+02 -0.20275351418E+03  0.20596658228E+03  0.47000000000E+01 0.  1.
<mgrwt>
<rscale>  0 0.99515936E+02</rscale>
<asrwt>0</asrwt>
<pdfrwt beam="1">  1        3 0.30391083E-02 0.10002220E+03</pdfrwt>
<pdfrwt beam="2">  1       -3 0.10060132E+00 0.10002220E+03</pdfrwt>
<totfact> 0.97726302E+02</totfact>
</mgrwt>
</event>
<event>
 8    1  0.6396648E-004  0.9968491E+02  0.7546771E-02  0.1282921E+00
         -3   -1    0    0    0  501 -0.00000000000E+00  0.00000000000E+00  0.11434563708E+03  0.11434563708E+03  0.00000000000E+00 0.  1.
          3   -1    0    0  501    0  0.00000000000E+00 -0.00000000000E+00 -0.84022430334E+02  0.84022430334E+02  0.00000000000E+00 0. -1.
         23    2    1    2    0    0  0.13833982443E+02 -0.33264582984E+02  0.93308141247E+01  0.96496764198E+02  0.89031735112E+02 0.  0.
         23    2    1    2    0    0 -0.13833982443E+02  0.33264582984E+02  0.20992392619E+02  0.10187130321E+03  0.92947137230E+02 0.  0.
          5    1    3    3  502    0  0.14939320521E+02 -0.56328856713E+02 -0.17267066328E+02  0.60961996160E+02  0.47000000000E+01 0. -1.
         -5    1    4    4    0  503 -0.52214937856E+02  0.14109107903E+02  0.96984104616E+00  0.54300066784E+02  0.47000000000E+01 0.  1.
          5    1    4    4  503    0  0.38380955413E+02  0.19155475081E+02  0.20022551573E+02  0.47571236430E+02  0.47000000000E+01 0. -1.
         -5    1    3    3    0  502 -0.11053380783E+01  0.23064273729E+02  0.26597880452E+02  0.35534768037E+02  0.47000000000E+01 0.  1.
<mgrwt>
<rscale>  0 0.98762094E+02</rscale>
<asrwt>0</asrwt>
<pdfrwt beam="1">  1        3 0.12926528E-01 0.99684913E+02</pdfrwt>
<pdfrwt beam="2">  1       -3 0.17591637E-01 0.99684913E+02</pdfrwt>
<totfact> 0.28998453E+03</totfact>
</mgrwt>
</event>
<event>
 8    1  0.6396648E-004  0.9494881E+02  0.7546771E-02  0.1292773E+00
          1   -1    0    0  501    0  0.00000000000E+00  0.00000000000E+00  0.21584417065E+03  0.21584417065E+03  0.00000000000E+00 0. -1.
         -1   -1    0    0    0  501 -0.00000000000E+00 -0.00000000000E+00 -0.11069759482E+03  0.11069759482E+03  0.00000000000E+00 0.  1.
         23    2    1    2    0    0 -0.22877547526E+02  0.61320345070E+00  0.18219314508E+03  0.20426564274E+03  0.89478223544E+02 0.  0.
         23    2    1    2    0    0  0.22877547526E+02 -0.61320345070E+00 -0.77046569248E+02  0.12227612274E+03  0.92149433853E+02 0.  0.
          5    1    4    4  502    0  0.53242144744E+02  0.20029838515E+02 -0.38597145315E+02  0.68903918861E+02  0.47000000000E+01 0. -1.
         -5    1    3    3    0  503 -0.62737556627E+00 -0.41616565924E+02  0.61671324006E+02  0.74550481984E+02  0.47000000000E+01 0.  1.
          5    1    3    3  503    0 -0.22250171960E+02  0.42229769375E+02  0.12052182108E+03  0.12971516075E+03  0.47000000000E+01 0. -1.
         -5    1    4    4    0  502 -0.30364597218E+02 -0.20643041966E+02 -0.38449423933E+02  0.53372203876E+02  0.47000000000E+01 0.  1.
<mgrwt>
<rscale>  0 0.94294525E+02</rscale>
<asrwt>0</asrwt>
<pdfrwt beam="1">  1        1 0.33206795E-01 0.94948809E+02</pdfrwt>
<pdfrwt beam="2">  1       -1 0.17030399E-01 0.94948809E+02</pdfrwt>
<totfact> 0.33019810E+03</totfact>
</mgrwt>
</event>
<event>
 8    1  0.6396648E-004  0.2242287E+03  0.7546771E-02  0.1130850E+00
          2   -1    0    0  501    0  0.00000000000E+00  0.00000000000E+00  0.15654795183E+04  0.15654795183E+04  0.00000000000E+00 0. -1.
         -2   -1    0    0    0  501 -0.00000000000E+00 -0.00000000000E+00 -0.39131109022E+02  0.39131109022E+02  0.00000000000E+00 0.  1.
         23    2    1    2    0    0 -0.20237395771E+03  0.30294508061E+02  0.11037663682E+04  0.11262236799E+04  0.90590317229E+02 0.  0.
         23    2    1    2    0    0  0.20237395771E+03 -0.30294508061E+02  0.42258204110E+03  0.47838694746E+03  0.91681590650E+02 0.  0.
          5    1    3    3  502    0 -0.11095160024E+03  0.56803498940E+01  0.80857385496E+03  0.81618398226E+03  0.47000000000E+01 0. -1.
         -5    1    4    4    0  503  0.18184402512E+03  0.37177437208E+01  0.31733424206E+03  0.36579253994E+03  0.47000000000E+01 0.  1.
          5    1    4    4  503    0  0.20529932595E+02 -0.34012251782E+02  0.10524779904E+03  0.11259440752E+03  0.47000000000E+01 0. -1.
         -5    1    3    3    0  502 -0.91422357476E+02  0.24614158167E+02  0.29519251323E+03  0.31003969762E+03  0.47000000000E+01 0.  1.
<mgrwt>
<rscale>  0 0.22411758E+03</rscale>
<asrwt>0</asrwt>
<pdfrwt beam="1">  1        2 0.24084295E+00 0.22422866E+03</pdfrwt>
<pdfrwt beam="2">  1       -2 0.60201718E-02 0.22422866E+03</pdfrwt>
<totfact> 0.18569374E+03</totfact>
</mgrwt>
</event>
<event>
 8    1  0.6396648E-004  0.9278012E+02  0.7546771E-02  0.1296848E+00
          1   -1    0    0  501    0  0.00000000000E+00  0.00000000000E+00  0.46883957947E+02  0.46883957947E+02  0.00000000000E+00 0. -1.
         -1   -1    0    0    0  501 -0.00000000000E+00 -0.00000000000E+00 -0.19188662513E+03  0.19188662513E+03  0.00000000000E+00 0.  1.
         23    2    1    2    0    0 -0.53025595367E+00  0.90218556758E+01 -0.44491141701E+02  0.10198345685E+03  0.91320801193E+02 0.  0.
         23    2    1    2    0    0  0.53025595367E+00 -0.90218556758E+01 -0.10051152549E+03  0.13678712623E+03  0.92338919719E+02 0.  0.
          5    1    3    3  502    0  0.26384357908E+01 -0.20484558355E+02  0.21063004072E+02  0.29871702579E+02  0.47000000000E+01 0.  1.
         -5    1    4    4    0  503 -0.25428699120E+02 -0.97557631844E+01 -0.10624434559E+03  0.10978043826E+03  0.47000000000E+01 0.  1.
          5    1    4    4  503    0  0.25958955074E+02  0.73390750864E+00  0.57328201037E+01  0.27006687970E+02  0.47000000000E+01 0. -1.
         -5    1    3    3    0  502 -0.31686917444E+01  0.29506414031E+02 -0.65554145773E+02  0.72111754273E+02  0.47000000000E+01 0. -1.
<mgrwt>
<rscale>  0 0.92525773E+02</rscale>
<asrwt>0</asrwt>
<pdfrwt beam="1">  1        1 0.72129166E-02 0.92780123E+02</pdfrwt>
<pdfrwt beam="2">  1       -1 0.29521019E-01 0.92780123E+02</pdfrwt>
<totfact> 0.95628639E+03</totfact>
</mgrwt>
</event>
<event>
 8    1  0.6396648E-004  0.9563777E+02  0.7546771E-02  0.1290887E+00
         -1   -1    0    0    0  501 -0.00000000000E+00  0.00000000000E+00  0.23933126478E+03  0.23933126478E+03  0.00000000000E+00 0.  1.
          1   -1    0    0  501    0  0.00000000000E+00 -0.00000000000E+00 -0.40288208938E+02  0.40288208938E+02  0.00000000000E+00 0. -1.
         23    2    1    2    0    0  0.29838271386E+02 -0.98939062327E+01  0.61194335977E+02  0.11184327424E+03  0.88181400627E+02 0.  0.
         23    2    1    2    0    0 -0.29838271386E+02  0.98939062327E+01  0.13784871987E+03  0.16777619948E+03  0.90323705217E+02 0.  0.
          5    1    3    3  502    0  0.61027820861E+02 -0.10255825413E+02  0.41402114150E+02  0.74604302356E+02  0.47000000000E+01 0. -1.
         -5    1    3    3    0  502 -0.31189549474E+02  0.36191918050E+00  0.19792221828E+02  0.37238971882E+02  0.47000000000E+01 0.  1.
          5    1    4    4  503    0  0.28809503482E+02 -0.13173908241E+02  0.53946828401E+02  0.62736669052E+02  0.47000000000E+01 0. -1.
         -5    1    4    4    0  503 -0.58647774868E+02  0.23067814474E+02  0.83901891465E+02  0.10503953043E+03  0.47000000000E+01 0.  1.
<mgrwt>
<rscale>  0 0.95128565E+02</rscale>
<asrwt>0</asrwt>
<pdfrwt beam="1">  1        1 0.61981861E-02 0.95637773E+02</pdfrwt>
<pdfrwt beam="2">  1       -1 0.36820194E-01 0.95637773E+02</pdfrwt>
<totfact> 0.80931903E+03</totfact>
</mgrwt>
</event>
<event>
 8    1  0.6396648E-004  0.9097435E+02  0.7546771E-02  0.1300745E+00
         -1   -1    0    0    0  501 -0.00000000000E+00  0.00000000000E+00  0.80495840728E+02  0.80495840728E+02  0.00000000000E+00 0.  1.
          1   -1    0    0  501    0  0.00000000000E+00 -0.00000000000E+00 -0.10737587418E+03  0.10737587418E+03  0.00000000000E+00 0. -1.
         23    2    1    2    0    0 -0.68503113330E+01 -0.89637208284E+00  0.68115529787E+01  0.91228992006E+02  0.90711639166E+02 0.  0.
         23    2    1    2    0    0  0.68503113330E+01  0.89637208284E+00 -0.33691586429E+02  0.96642722900E+02  0.90315904718E+02 0.  0.
          5    1    4    4  502    0  0.28619311269E+02  0.37589566880E+02 -0.20725735278E+02  0.51804310811E+02  0.47000000000E+01 0. -1.
         -5    1    4    4    0  502 -0.21768999937E+02 -0.36693194797E+02 -0.12965851151E+02  0.44838412089E+02  0.47000000000E+01 0.  1.
          5    1    3    3  503    0  0.63634512731E+01  0.40922725214E+02 -0.11855088057E+02  0.43333544326E+02  0.47000000000E+01 0. -1.
         -5    1    3    3    0  503 -0.13213762606E+02 -0.41819097297E+02  0.18666641036E+02  0.47895447680E+02  0.47000000000E+01 0.  1.
<mgrwt>
<rscale>  0 0.90875539E+02</rscale>
<asrwt>0</asrwt>
<pdfrwt beam="1">  1        1 0.16519365E-01 0.90974347E+02</pdfrwt>
<pdfrwt beam="2">  1       -1 0.12383976E-01 0.90974347E+02</pdfrwt>
<totfact> 0.12861510E+04</totfact>
</mgrwt>
</event>
<event>
 8    1  0.6396648E-004  0.1011004E+03  0.7546771E-02  0.1279357E+00
          1   -1    0    0  501    0  0.00000000000E+00  0.00000000000E+00  0.50442313702E+03  0.50442313702E+03  0.00000000000E+00 0. -1.
         -1   -1    0    0    0  501 -0.00000000000E+00 -0.00000000000E+00 -0.20264593170E+02  0.20264593170E+02  0.00000000000E+00 0.  1.
         23    2    1    2    0    0 -0.25375676299E+02 -0.27362929482E+02  0.19716001073E+03  0.22040259365E+03  0.91173343685E+02 0.  0.
         23    2    1    2    0    0  0.25375676299E+02  0.27362929482E+02  0.28699853312E+03  0.30428513654E+03  0.93960797403E+02 0.  0.
          5    1    3    3  502    0  0.31248687523E+02 -0.25795435367E+02  0.97186050165E+02  0.10539973105E+03  0.47000000000E+01 0. -1.
         -5    1    3    3    0  502 -0.56624363822E+02 -0.15674941151E+01  0.99973960562E+02  0.11500286260E+03  0.47000000000E+01 0.  1.
          5    1    4    4  503    0  0.43754855269E+02  0.52386724313E+02  0.21783974483E+03  0.22833112068E+03  0.47000000000E+01 0. -1.
         -5    1    4    4    0  503 -0.18379178970E+02 -0.25023794831E+02  0.69158788292E+02  0.75954015860E+02  0.47000000000E+01 0.  1.
<mgrwt>
<rscale>  0 0.10044778E+03</rscale>
<asrwt>0</asrwt>
<pdfrwt beam="1">  1        1 0.77603550E-01 0.10110038E+03</pdfrwt>
<pdfrwt beam="2">  1       -1 0.31176301E-02 0.10110038E+03</pdfrwt>
<totfact> 0.14669055E+04</totfact>
</mgrwt>
</event>
<event>
 8    1  0.6396648E-004  0.9128704E+02  0.7546771E-02  0.1300324E+00
         -1   -1    0    0    0  501 -0.00000000000E+00  0.00000000000E+00  0.27705710068E+02  0.27705710068E+02  0.00000000000E+00 0.  1.
          1   -1    0    0  501    0  0.00000000000E+00 -0.00000000000E+00 -0.39654399502E+03  0.39654399502E+03  0.00000000000E+00 0. -1.
         23    2    1    2    0    0 -0.70190013432E+01  0.57308377989E+01 -0.29103593539E+03  0.30501678477E+03  0.90836195527E+02 0.  0.
         23    2    1    2    0    0  0.70190013432E+01 -0.57308377989E+01 -0.77802349563E+02  0.11923292033E+03  0.89895354775E+02 0.  0.
          5    1    3    3  502    0  0.26006829280E+01 -0.35122415595E+02 -0.21608097696E+03  0.21898270761E+03  0.47000000000E+01 0. -1.
         -5    1    3    3    0  502 -0.96196842712E+01  0.40853253394E+02 -0.74954958433E+02  0.86034077156E+02  0.47000000000E+01 0.  1.
          5    1    4    4  503    0  0.10381035105E+02 -0.46544315953E+02 -0.32043824715E+02  0.57645779896E+02  0.47000000000E+01 0. -1.
         -5    1    4    4    0  503 -0.33620337618E+01  0.40813478154E+02 -0.45758524848E+02  0.61587140430E+02  0.47000000000E+01 0.  1.
<mgrwt>
<rscale>  0 0.91052096E+02</rscale>
<asrwt>0</asrwt>
<pdfrwt beam="1">  1        1 0.61006773E-01 0.91287038E+02</pdfrwt>
<pdfrwt beam="2">  1       -1 0.42624166E-02 0.91287038E+02</pdfrwt>
<totfact> 0.12518597E+04</totfact>
</mgrwt>
</event>
<event>
 8    1  0.6396648E-004  0.1079556E+03  0.7546771E-02  0.1264827E+00
          3   -1    0    0  501    0  0.00000000000E+00  0.00000000000E+00  0.72353462568E+01  0.72353462568E+01  0.00000000000E+00 0. -1.
         -3   -1    0    0    0  501 -0.00000000000E+00 -0.00000000000E+00 -0.15991161045E+04  0.15991161045E+04  0.00000000000E+00 0.  1.
         23    2    1    2    0    0  0.44579274013E+02  0.33320293583E+02 -0.82449006154E+03  0.83152767048E+03  0.92503251603E+02 0.  0.
         23    2    1    2    0    0 -0.44579274013E+02 -0.33320293583E+02 -0.76739069667E+03  0.77482378025E+03  0.91465050493E+02 0.  0.
          5    1    3    3  502    0  0.63243510642E+02 -0.56909104152E+01 -0.43964280333E+03  0.44422968454E+03  0.47000000000E+01 0. -1.
         -5    1    4    4    0  503 -0.67579446477E+02 -0.14310362860E+02 -0.64729204918E+03  0.65098452747E+03  0.47000000000E+01 0.  1.
          5    1    4    4  503    0  0.23000172464E+02 -0.19009930723E+02 -0.12009864749E+03  0.12383925278E+03  0.47000000000E+01 0. -1.
         -5    1    3    3    0  502 -0.18664236629E+02  0.39011203998E+02 -0.38484725821E+03  0.38729798594E+03  0.47000000000E+01 0.  1.
<mgrwt>
<rscale>  0 0.10773282E+03</rscale>
<asrwt>0</asrwt>
<pdfrwt beam="1">  1        3 0.11131282E-02 0.10795557E+03</pdfrwt>
<pdfrwt beam="2">  1       -3 0.24601830E+00 0.10795557E+03</pdfrwt>
<totfact> 0.45982031E+02</totfact>
</mgrwt>
</event>
<event>
 8    1  0.6396648E-004  0.1280169E+03  0.7546771E-02  0.1233327E+00
          3   -1    0    0  501    0  0.00000000000E+00  0.00000000000E+00  0.37303805314E+03  0.37303805314E+03  0.00000000000E+00 0. -1.
         -3   -1    0    0    0  501 -0.00000000000E+00 -0.00000000000E+00 -0.41702328165E+02  0.41702328165E+02  0.00000000000E+00 0.  1.
         23    2    1    2    0    0  0.76967013676E+02 -0.24992449476E+02  0.18751537317E+03  0.22704701062E+03  0.99195696130E+02 0.  0.
         23    2    1    2    0    0 -0.76967013676E+02  0.24992449476E+02  0.14382035180E+03  0.18769337068E+03  0.89420154782E+02 0.  0.
          5    1    3    3  502    0 -0.23966919606E+02 -0.41281131419E+01  0.39379493084E+02  0.46521919877E+02  0.47000000000E+01 0. -1.
         -5    1    3    3    0  502  0.10093393328E+03 -0.20864336334E+02  0.14813588009E+03  0.18052509074E+03  0.47000000000E+01 0.  1.
          5    1    4    4  503    0 -0.81742654366E+02  0.47594663601E+02  0.12830170135E+03  0.15946952723E+03  0.47000000000E+01 0. -1.
         -5    1    4    4    0  503  0.47756406901E+01 -0.22602214124E+02  0.15518650447E+02  0.28223843449E+02  0.47000000000E+01 0.  1.
<mgrwt>
<rscale>  0 0.12612114E+03</rscale>
<asrwt>0</asrwt>
<pdfrwt beam="1">  1        3 0.57390468E-01 0.12801691E+03</pdfrwt>
<pdfrwt beam="2">  1       -3 0.64157430E-02 0.12801691E+03</pdfrwt>
<totfact> 0.10536653E+03</totfact>
</mgrwt>
</event>
<event>
 8    1  0.6396648E-004  0.1123135E+03  0.7546771E-02  0.1262022E+00
          1   -1    0    0  501    0  0.00000000000E+00  0.00000000000E+00  0.33164139089E+02  0.33164139089E+02  0.00000000000E+00 0. -1.
         -1   -1    0    0    0  501 -0.00000000000E+00 -0.00000000000E+00 -0.34777485456E+03  0.34777485456E+03  0.00000000000E+00 0.  1.
         23    2    1    2    0    0  0.55988919791E+01  0.33819854574E+02 -0.17481375908E+03  0.20161383697E+03  0.94409526736E+02 0.  0.
         23    2    1    2    0    0 -0.55988919791E+01 -0.33819854574E+02 -0.13979695639E+03  0.17932515668E+03  0.10695416143E+03 0.  0.
          5    1    4    4  502    0 -0.47535819948E+02 -0.62096474355E+01 -0.11159117750E+03  0.12154379785E+03  0.47000000000E+01 0. -1.
         -5    1    3    3    0  503  0.92870954470E+01 -0.32271048921E+02 -0.64794319413E+02  0.73130462658E+02  0.47000000000E+01 0.  1.
          5    1    3    3  503    0 -0.36882034679E+01  0.66090903495E+02 -0.11001943967E+03  0.12848337431E+03  0.47000000000E+01 0. -1.
         -5    1    4    4    0  502  0.41936927969E+02 -0.27610207138E+02 -0.28205778891E+02  0.57781358832E+02  0.47000000000E+01 0.  1.
<mgrwt>
<rscale>  0 0.10921975E+03</rscale>
<asrwt>0</asrwt>
<pdfrwt beam="1">  1        1 0.51021757E-02 0.11231350E+03</pdfrwt>
<pdfrwt beam="2">  1       -1 0.53503819E-01 0.11231350E+03</pdfrwt>
<totfact> 0.54975772E+03</totfact>
</mgrwt>
</event>
<event>
 8    1  0.6396648E-004  0.9252783E+02  0.7546771E-02  0.1298053E+00
          1   -1    0    0  501    0  0.00000000000E+00  0.00000000000E+00  0.43097776211E+02  0.43097776211E+02  0.00000000000E+00 0. -1.
         -1   -1    0    0    0  501 -0.00000000000E+00 -0.00000000000E+00 -0.56422597813E+03  0.56422597813E+03  0.00000000000E+00 0.  1.
         23    2    1    2    0    0  0.82393616639E+01  0.15054291136E+02 -0.50745080929E+03  0.51581752895E+03  0.90922387569E+02 0.  0.
         23    2    1    2    0    0 -0.82393616639E+01 -0.15054291136E+02 -0.13677392634E+02  0.91506225394E+02  0.88835800522E+02 0.  0.
          5    1    3    3  502    0  0.76021202584E+01 -0.38081308701E+02 -0.22427129407E+03  0.22765693850E+03  0.47000000000E+01 0. -1.
         -5    1    4    4    0  503 -0.14280553819E+02 -0.50300131113E+02 -0.17255219971E+02  0.55261831526E+02  0.47000000000E+01 0.  1.
          5    1    4    4  503    0  0.60411921549E+01  0.35245839978E+02  0.35778273377E+01  0.36244393868E+02  0.47000000000E+01 0. -1.
         -5    1    3    3    0  502  0.63724140558E+00  0.53135599837E+02 -0.28317951522E+03  0.28816059045E+03  0.47000000000E+01 0.  1.
<mgrwt>
<rscale>  0 0.92011129E+02</rscale>
<asrwt>0</asrwt>
<pdfrwt beam="1">  1        1 0.66304278E-02 0.92527830E+02</pdfrwt>
<pdfrwt beam="2">  1       -1 0.86803987E-01 0.92527830E+02</pdfrwt>
<totfact> 0.14853219E+03</totfact>
</mgrwt>
</event>
<event>
 8    1  0.6396648E-004  0.1196685E+03  0.7546771E-02  0.1245666E+00
         -1   -1    0    0    0  501 -0.00000000000E+00  0.00000000000E+00  0.22672258325E+03  0.22672258325E+03  0.00000000000E+00 0.  1.
          1   -1    0    0  501    0  0.00000000000E+00 -0.00000000000E+00 -0.40341664832E+03  0.40341664832E+03  0.00000000000E+00 0. -1.
         23    2    1    2    0    0  0.48748029728E+02  0.56708647695E+02  0.20232840750E+03  0.23267403525E+03  0.87224887927E+02 0.  0.
         23    2    1    2    0    0 -0.48748029728E+02 -0.56708647695E+02 -0.37902247257E+03  0.39746519632E+03  0.93425405804E+02 0.  0.
          5    1    3    3  502    0  0.16531564196E+02  0.40991320003E+02  0.23598872122E+02  0.50324722511E+02  0.47000000000E+01 0.  1.
         -5    1    3    3    0  502  0.32216465531E+02  0.15717327692E+02  0.17872953538E+03  0.18234931274E+03  0.47000000000E+01 0.  1.
          5    1    4    4  503    0 -0.25694200904E+02 -0.80222480400E+02 -0.30207937772E+03  0.31363972766E+03  0.47000000000E+01 0. -1.
         -5    1    4    4    0  503 -0.23053828824E+02  0.23513832705E+02 -0.76943094844E+02  0.83825468660E+02  0.47000000000E+01 0.  1.
<mgrwt>
<rscale>  0 0.11845635E+03</rscale>
<asrwt>0</asrwt>
<pdfrwt beam="1">  1        1 0.62064100E-01 0.11966849E+03</pdfrwt>
<pdfrwt beam="2">  1       -1 0.34880397E-01 0.11966849E+03</pdfrwt>
<totfact> 0.47730505E+02</totfact>
</mgrwt>
</event>
<event>
 8    1  0.6396648E-004  0.1372842E+03  0.7546771E-02  0.1217301E+00
          2   -1    0    0  501    0  0.00000000000E+00  0.00000000000E+00  0.10582923606E+04  0.10582923606E+04  0.00000000000E+00 0. -1.
         -2   -1    0    0    0  501 -0.00000000000E+00 -0.00000000000E+00 -0.17714248745E+02  0.17714248745E+02  0.00000000000E+00 0.  1.
         23    2    1    2    0    0 -0.22200491102E+02  0.10003448922E+03  0.51134225644E+03  0.52945053228E+03  0.91363023536E+02 0.  0.
         23    2    1    2    0    0  0.22200491102E+02 -0.10003448922E+03  0.52923585542E+03  0.54655607707E+03  0.90184221915E+02 0.  0.
          5    1    4    4  502    0  0.56500027715E+02 -0.66321740215E+02  0.37005700082E+03  0.38020402445E+03  0.47000000000E+01 0. -1.
         -5    1    3    3    0  503 -0.25849077344E+02  0.25203154913E+01  0.23241692506E+03  0.23391076042E+03  0.47000000000E+01 0.  1.
          5    1    3    3  503    0  0.36485862414E+01  0.97514173732E+02  0.27892533138E+03  0.29553977185E+03  0.47000000000E+01 0. -1.
         -5    1    4    4    0  502 -0.34299536613E+02 -0.33712749008E+02  0.15917885460E+03  0.16635205262E+03  0.47000000000E+01 0.  1.
<mgrwt>
<rscale>  0 0.13708841E+03</rscale>
<asrwt>0</asrwt>
<pdfrwt beam="1">  1        2 0.16281416E+00 0.13728424E+03</pdfrwt>
<pdfrwt beam="2">  1       -2 0.27252699E-02 0.13728424E+03</pdfrwt>
<totfact> 0.11403253E+04</totfact>
</mgrwt>
</event>
<event>
 8    1  0.6396648E-004  0.1095069E+03  0.7546771E-02  0.1261627E+00
          1   -1    0    0  501    0  0.00000000000E+00  0.00000000000E+00  0.86602516333E+02  0.86602516333E+02  0.00000000000E+00 0. -1.
         -1   -1    0    0    0  501 -0.00000000000E+00 -0.00000000000E+00 -0.13942439823E+03  0.13942439823E+03  0.00000000000E+00 0.  1.
         23    2    1    2    0    0 -0.56277475710E+02 -0.22152206783E+02 -0.15304286128E+02  0.11027147712E+03  0.90926909964E+02 0.  0.
         23    2    1    2    0    0  0.56277475710E+02  0.22152206783E+02 -0.37517595770E+02  0.11575543744E+03  0.91290069377E+02 0.  0.
          5    1    3    3  502    0 -0.81674933664E+01  0.20582932829E+02 -0.35988425734E+02  0.42516136449E+02  0.47000000000E+01 0. -1.
         -5    1    3    3    0  502 -0.48109982344E+02 -0.42735139612E+02  0.20684139606E+02  0.67755340675E+02  0.47000000000E+01 0.  1.
          5    1    4    4  503    0  0.64401976909E+01  0.51023995083E+02 -0.15554980259E+02  0.53934883252E+02  0.47000000000E+01 0. -1.
         -5    1    4    4    0  503  0.49837278019E+02 -0.28871788300E+02 -0.21962615511E+02  0.61820554188E+02  0.47000000000E+01 0.  1.
<mgrwt>
<rscale>  0 0.10943114E+03</rscale>
<asrwt>0</asrwt>
<pdfrwt beam="1">  1        1 0.13323464E-01 0.10950686E+03</pdfrwt>
<pdfrwt beam="2">  1       -1 0.21449907E-01 0.10950686E+03</pdfrwt>
<totfact> 0.72920649E+03</totfact>
</mgrwt>
</event>
<event>
 8    1  0.6396648E-004  0.1229610E+03  0.7546771E-02  0.1238850E+00
          2   -1    0    0  501    0  0.00000000000E+00  0.00000000000E+00  0.30357213446E+03  0.30357213446E+03  0.00000000000E+00 0. -1.
         -2   -1    0    0    0  501 -0.00000000000E+00 -0.00000000000E+00 -0.63704590103E+02  0.63704590103E+02  0.00000000000E+00 0.  1.
         23    2    1    2    0    0  0.19572201980E+02 -0.78686953799E+02  0.31911986923E+02  0.12568839652E+03  0.90578641637E+02 0.  0.
         23    2    1    2    0    0 -0.19572201980E+02  0.78686953799E+02  0.20795555743E+03  0.24158832804E+03  0.92437538869E+02 0.  0.
          5    1    4    4  502    0  0.10113360194E+01  0.65394234827E+02  0.20642847304E+03  0.21659232034E+03  0.47000000000E+01 0. -1.
         -5    1    4    4    0  502 -0.20583537999E+02  0.13292718972E+02  0.15270843886E+01  0.24996007701E+02  0.47000000000E+01 0.  1.
          5    1    3    3  503    0 -0.31824833970E+02 -0.23242493322E+02 -0.73604034142E+01  0.40364577187E+02  0.47000000000E+01 0. -1.
         -5    1    3    3    0  503  0.51397035950E+02 -0.55444460476E+02  0.39272390337E+02  0.85323819328E+02  0.47000000000E+01 0.  1.
<mgrwt>
<rscale>  0 0.12261169E+03</rscale>
<asrwt>0</asrwt>
<pdfrwt beam="1">  1        2 0.46703404E-01 0.12296100E+03</pdfrwt>
<pdfrwt beam="2">  1       -2 0.98007063E-02 0.12296100E+03</pdfrwt>
<totfact> 0.69994778E+03</totfact>
</mgrwt>
</event>
<event>
 8    1  0.6396648E-004  0.1144624E+03  0.7546771E-02  0.1253274E+00
          1   -1    0    0  501    0  0.00000000000E+00  0.00000000000E+00  0.45061946469E+03  0.45061946469E+03  0.00000000000E+00 0. -1.
         -1   -1    0    0    0  501 -0.00000000000E+00 -0.00000000000E+00 -0.37723031594E+02  0.37723031594E+02  0.00000000000E+00 0.  1.
         23    2    1    2    0    0  0.42716215296E+02  0.54712313719E+02  0.85497370310E+02  0.14151144194E+03  0.88868304514E+02 0.  0.
         23    2    1    2    0    0 -0.42716215296E+02 -0.54712313719E+02  0.32739906279E+03  0.34683105435E+03  0.91013854032E+02 0.  0.
          5    1    3    3  502    0 -0.26012537724E+02  0.69318303889E+01  0.31904313509E+02  0.42008066033E+02  0.47000000000E+01 0. -1.
         -5    1    3    3    0  502  0.68728753020E+02  0.47780483330E+02  0.53593056802E+02  0.99503375904E+02  0.47000000000E+01 0.  1.
          5    1    4    4  503    0 -0.48270724847E+02  0.93532918016E+01  0.12477344484E+03  0.13419407394E+03  0.47000000000E+01 0. -1.
         -5    1    4    4    0  503  0.55545095510E+01 -0.64065605521E+02  0.20262561795E+03  0.21263698041E+03  0.47000000000E+01 0.  1.
<mgrwt>
<rscale>  0 0.11403536E+03</rscale>
<asrwt>0</asrwt>
<pdfrwt beam="1">  1        1 0.69326068E-01 0.11446237E+03</pdfrwt>
<pdfrwt beam="2">  1       -1 0.58035436E-02 0.11446237E+03</pdfrwt>
<totfact> 0.68973118E+03</totfact>
</mgrwt>
</event>
<event>
 8    1  0.6396648E-004  0.9331073E+02  0.7546771E-02  0.1296533E+00
         -1   -1    0    0    0  501 -0.00000000000E+00  0.00000000000E+00  0.64899541703E+03  0.64899541703E+03  0.00000000000E+00 0.  1.
          1   -1    0    0  501    0  0.00000000000E+00 -0.00000000000E+00 -0.14123684526E+02  0.14123684526E+02  0.00000000000E+00 0. -1.
         23    2    1    2    0    0 -0.13556885445E+02  0.60936145584E+01  0.22187702435E+03  0.23971442275E+03  0.89513514405E+02 0.  0.
         23    2    1    2    0    0  0.13556885445E+02 -0.60936145584E+01  0.41299470815E+03  0.42340467880E+03  0.92119334484E+02 0.  0.
          5    1    4    4  502    0  0.19763450756E+02  0.38308769915E+02  0.27037604495E+03  0.27383106383E+03  0.47000000000E+01 0. -1.
         -5    1    4    4    0  502 -0.62065653102E+01 -0.44402384473E+02  0.14261866321E+03  0.14957361497E+03  0.47000000000E+01 0.  1.
          5    1    3    3  503    0 -0.32212155115E+02  0.15837486009E+02  0.31109758950E+02  0.47732127568E+02  0.47000000000E+01 0. -1.
         -5    1    3    3    0  503  0.18655269670E+02 -0.97438714507E+01  0.19076726540E+03  0.19198229518E+03  0.47000000000E+01 0.  1.
<mgrwt>
<rscale>  0 0.92661081E+02</rscale>
<asrwt>0</asrwt>
<pdfrwt beam="1">  1        1 0.21728750E-02 0.93310734E+02</pdfrwt>
<pdfrwt beam="2">  1       -1 0.99845425E-01 0.93310734E+02</pdfrwt>
<totfact> 0.50373316E+03</totfact>
</mgrwt>
</event>
<event>
 7    1  0.6396648E-004  0.2879403E+03  0.7546771E-02  0.1124942E+00
          1   -1    0    0  501    0  0.00000000000E+00  0.00000000000E+00  0.19224969943E+03  0.19224969943E+03  0.00000000000E+00 0. -1.
         -1   -1    0    0    0  501 -0.00000000000E+00 -0.00000000000E+00 -0.24573891919E+03  0.24573891919E+03  0.00000000000E+00 0.  1.
         23    2    1    2    0    0  0.36141027137E+02  0.71210419787E+02  0.49908015172E+02  0.13204646473E+03  0.92565442470E+02 0.  0.
          5    1    3    3  502    0  0.29269738359E+02  0.93284641221E+02  0.45927811496E+02  0.10812120856E+03  0.47000000000E+01 0. -1.
         -5    1    3    3    0  502  0.68712887772E+01 -0.22074221434E+02  0.39802036761E+01  0.23925256168E+02  0.47000000000E+01 0.  1.
          5    1    1    2  503    0 -0.36475109994E+02 -0.10469371844E+03  0.68729260759E+02  0.13052589633E+03  0.47000000000E+01 0. -1.
         -5    1    1    2    0  503  0.33408285706E+00  0.33483298651E+02 -0.17212649569E+03  0.17541625757E+03  0.47000000000E+01 0.  1.
<mgrwt>
<rscale>  0 0.23242909E+03</rscale>
<asrwt>0</asrwt>
<pdfrwt beam="1">  1        1 0.29576877E-01 0.28794029E+03</pdfrwt>
<pdfrwt beam="2">  1       -1 0.37805987E-01 0.28794029E+03</pdfrwt>
<totfact> 0.10542435E+03</totfact>
</mgrwt>
</event>
<event>
 8    1  0.6396648E-004  0.1096457E+03  0.7546771E-02  0.1261514E+00
          1   -1    0    0  501    0  0.00000000000E+00  0.00000000000E+00  0.44068817558E+03  0.44068817558E+03  0.00000000000E+00 0. -1.
         -1   -1    0    0    0  501 -0.00000000000E+00 -0.00000000000E+00 -0.28788354822E+02  0.28788354822E+02  0.00000000000E+00 0.  1.
         23    2    1    2    0    0  0.45584401972E+02  0.40344003721E+02  0.14902718757E+03  0.18465343798E+03  0.90455586808E+02 0.  0.
         23    2    1    2    0    0 -0.45584401972E+02 -0.40344003721E+02  0.26287263319E+03  0.28482309242E+03  0.91195374640E+02 0.  0.
          5    1    4    4  502    0  0.43192457619E+01  0.24741466349E+02  0.87660891730E+02  0.91308915118E+02  0.47000000000E+01 0. -1.
         -5    1    3    3    0  503  0.14174969277E+02 -0.26963440995E+02  0.67851440868E+02  0.74524257341E+02  0.47000000000E+01 0.  1.
          5    1    3    3  503    0  0.31409432695E+02  0.67307444716E+02  0.81175746700E+02  0.11012918064E+03  0.47000000000E+01 0. -1.
         -5    1    4    4    0  502 -0.49903647734E+02 -0.65085470070E+02  0.17521174146E+03  0.19351417730E+03  0.47000000000E+01 0.  1.
<mgrwt>
<rscale>  0 0.10949171E+03</rscale>
<asrwt>0</asrwt>
<pdfrwt beam="1">  1        1 0.67798176E-01 0.10964567E+03</pdfrwt>
<pdfrwt beam="2">  1       -1 0.44289780E-02 0.10964567E+03</pdfrwt>
<totfact> 0.10532020E+04</totfact>
</mgrwt>
</event>
<event>
 8    1  0.6396648E-004  0.9709283E+02  0.7546771E-02  0.1290850E+00
          2   -1    0    0  501    0  0.00000000000E+00  0.00000000000E+00  0.11525134418E+03  0.11525134418E+03  0.00000000000E+00 0. -1.
         -2   -1    0    0    0  501 -0.00000000000E+00 -0.00000000000E+00 -0.82866036284E+02  0.82866036284E+02  0.00000000000E+00 0.  1.
         23    2    1    2    0    0  0.13931436337E+02 -0.14676073759E+02  0.46202921945E+02  0.10752547262E+03  0.94960756137E+02 0.  0.
         23    2    1    2    0    0 -0.13931436337E+02  0.14676073759E+02 -0.13817614045E+02  0.90591907851E+02  0.87215223733E+02 0.  0.
          5    1    4    4  502    0  0.26080568967E+02  0.99664853671E+01 -0.34850236360E+02  0.44901624499E+02  0.47000000000E+01 0. -1.
         -5    1    4    4    0  502 -0.40012005305E+02  0.47095883916E+01  0.21032622316E+02  0.45690283352E+02  0.47000000000E+01 0.  1.
          5    1    3    3  503    0 -0.30598575426E+01 -0.39892654496E+02  0.61222210502E+02  0.73287349997E+02  0.47000000000E+01 0. -1.
         -5    1    3    3    0  503  0.16991293880E+02  0.25216580737E+02 -0.15019288557E+02  0.34238122620E+02  0.47000000000E+01 0.  1.
<mgrwt>
<rscale>  0 0.95144756E+02</rscale>
<asrwt>0</asrwt>
<pdfrwt beam="1">  1        2 0.17730976E-01 0.97092828E+02</pdfrwt>
<pdfrwt beam="2">  1       -2 0.12748621E-01 0.97092828E+02</pdfrwt>
<totfact> 0.12966080E+04</totfact>
</mgrwt>
</event>
<event>
 8    1  0.6396648E-004  0.1193494E+03  0.7546771E-02  0.1244777E+00
          1   -1    0    0  501    0  0.00000000000E+00  0.00000000000E+00  0.85061850908E+03  0.85061850908E+03  0.00000000000E+00 0. -1.
         -1   -1    0    0    0  501 -0.00000000000E+00 -0.00000000000E+00 -0.55302808958E+02  0.55302808958E+02  0.00000000000E+00 0.  1.
         23    2    1    2    0    0 -0.65591095070E+02 -0.41769556459E+02  0.77758037977E+03  0.78668642267E+03  0.90539455530E+02 0.  0.
         23    2    1    2    0    0  0.65591095070E+02  0.41769556459E+02  0.17735320353E+02  0.11923489537E+03  0.88631433966E+02 0.  0.
          5    1    3    3  502    0 -0.22113057904E+02  0.21591421335E+02  0.10067065187E+03  0.10541274568E+03  0.47000000000E+01 0.  1.
         -5    1    3    3    0  502 -0.43478037166E+02 -0.63360977794E+02  0.67690972790E+03  0.68127367698E+03  0.47000000000E+01 0. -1.
          5    1    4    4  503    0  0.35772605987E+02  0.29826788271E+02  0.53396093171E+02  0.71010910455E+02  0.47000000000E+01 0. -1.
         -5    1    4    4    0  503  0.29818489083E+02  0.11942768188E+02 -0.35660772818E+02  0.48223984916E+02  0.47000000000E+01 0.  1.
<mgrwt>
<rscale>  0 0.11898754E+03</rscale>
<asrwt>0</asrwt>
<pdfrwt beam="1">  1        1 0.13086438E+00 0.11934941E+03</pdfrwt>
<pdfrwt beam="2">  1       -1 0.85081251E-02 0.11934941E+03</pdfrwt>
<totfact> 0.16242667E+03</totfact>
</mgrwt>
</event>
<event>
 8    1  0.6396648E-004  0.1452939E+03  0.7546771E-02  0.1206774E+00
          1   -1    0    0  501    0  0.00000000000E+00  0.00000000000E+00  0.15229299782E+04  0.15229299782E+04  0.00000000000E+00 0. -1.
         -1   -1    0    0    0  501 -0.00000000000E+00 -0.00000000000E+00 -0.19234248528E+02  0.19234248528E+02  0.00000000000E+00 0.  1.
         23    2    1    2    0    0 -0.10949849714E+03  0.24841256358E+02  0.11660741779E+04  0.11750911899E+04  0.92213379431E+02 0.  0.
         23    2    1    2    0    0  0.10949849714E+03 -0.24841256358E+02  0.33762155178E+03  0.36707303683E+03  0.90262357851E+02 0.  0.
          5    1    4    4  502    0  0.51778589944E+01  0.23425065689E+02  0.10170490561E+03  0.10460172920E+03  0.47000000000E+01 0. -1.
         -5    1    3    3    0  503 -0.99832163955E+02 -0.17521318501E+02  0.79253812799E+03  0.79900702868E+03  0.47000000000E+01 0.  1.
          5    1    3    3  503    0 -0.96663331835E+01  0.42362574859E+02  0.37353604986E+03  0.37608416118E+03  0.47000000000E+01 0. -1.
         -5    1    4    4    0  502  0.10432063814E+03 -0.48266322048E+02  0.23591664617E+03  0.26247130763E+03  0.47000000000E+01 0.  1.
<mgrwt>
<rscale>  0 0.14498532E+03</rscale>
<asrwt>0</asrwt>
<pdfrwt beam="1">  1        1 0.23429683E+00 0.14529390E+03</pdfrwt>
<pdfrwt beam="2">  1       -1 0.29591164E-02 0.14529390E+03</pdfrwt>
<totfact> 0.26472825E+03</totfact>
</mgrwt>
</event>
<event>
 8    1  0.6396648E-004  0.2332639E+03  0.7546771E-02  0.1124607E+00
         -1   -1    0    0    0  501 -0.00000000000E+00  0.00000000000E+00  0.67713108480E+02  0.67713108480E+02  0.00000000000E+00 0.  1.
          1   -1    0    0  501    0  0.00000000000E+00 -0.00000000000E+00 -0.14055013357E+04  0.14055013357E+04  0.00000000000E+00 0. -1.
         23    2    1    2    0    0 -0.17581394090E+03 -0.12052892680E+03 -0.11517292864E+04  0.11748355627E+04  0.91216699522E+02 0.  0.
         23    2    1    2    0    0  0.17581394090E+03  0.12052892680E+03 -0.18605894083E+03  0.29837888147E+03  0.94732589094E+02 0.  0.
          5    1    4    4  502    0  0.10081250963E+03  0.73601401111E+02 -0.16564082247E+03  0.20745915360E+03  0.47000000000E+01 0. -1.
         -5    1    3    3    0  503 -0.14530206703E+03 -0.48568670719E+02 -0.73459976413E+03  0.75042022222E+03  0.47000000000E+01 0.  1.
          5    1    3    3  503    0 -0.30511873868E+02 -0.71960256076E+02 -0.41712952228E+03  0.42441534050E+03  0.47000000000E+01 0. -1.
         -5    1    4    4    0  502  0.75001431267E+02  0.46927525684E+02 -0.20418118362E+02  0.90919727873E+02  0.47000000000E+01 0.  1.
<mgrwt>
<rscale>  0 0.23291166E+03</rscale>
<asrwt>0</asrwt>
<pdfrwt beam="1">  1        1 0.21623099E+00 0.23326386E+03</pdfrwt>
<pdfrwt beam="2">  1       -1 0.10417401E-01 0.23326386E+03</pdfrwt>
<totfact> 0.47702476E+02</totfact>
</mgrwt>
</event>
<event>
 7    1  0.6396648E-004  0.2857093E+03  0.7546771E-02  0.1132274E+00
         -1   -1    0    0    0  501 -0.00000000000E+00  0.00000000000E+00  0.15407992056E+03  0.15407992056E+03  0.00000000000E+00 0.  1.
          1   -1    0    0  501    0  0.00000000000E+00 -0.00000000000E+00 -0.25210786586E+03  0.25210786586E+03  0.00000000000E+00 0. -1.
         23    2    1    2    0    0  0.47880946269E+02 -0.17213867739E+02 -0.52347965983E+02  0.11684978718E+03  0.91239580031E+02 0.  0.
          5    1    1    2  502    0 -0.13676330329E+03 -0.76210293528E+02 -0.22659637212E+02  0.15826483856E+03  0.47000000000E+01 0. -1.
         -5    1    3    3    0  503  0.72533849898E+02 -0.23648793919E+02 -0.48832738681E+02  0.90703644921E+02  0.47000000000E+01 0.  1.
          5    1    3    3  503    0 -0.24652903628E+02  0.64349261803E+01 -0.35152273024E+01  0.26146142263E+02  0.47000000000E+01 0. -1.
         -5    1    1    2    0  502  0.88882357023E+02  0.93424161267E+02 -0.23020342095E+02  0.13107316067E+03  0.47000000000E+01 0.  1.
<mgrwt>
<rscale>  0 0.22217190E+03</rscale>
<asrwt>0</asrwt>
<pdfrwt beam="1">  1        1 0.38785825E-01 0.28570932E+03</pdfrwt>
<pdfrwt beam="2">  1       -1 0.23704603E-01 0.28570932E+03</pdfrwt>
<totfact> 0.16622522E+03</totfact>
</mgrwt>
</event>
<event>
 8    1  0.6396648E-004  0.1740422E+03  0.7546771E-02  0.1173857E+00
         -4   -1    0    0    0  501 -0.00000000000E+00  0.00000000000E+00  0.75676502856E+02  0.75676502856E+02  0.00000000000E+00 0.  1.
          4   -1    0    0  501    0  0.00000000000E+00 -0.00000000000E+00 -0.81894433268E+03  0.81894433268E+03  0.00000000000E+00 0. -1.
         23    2    1    2    0    0 -0.58005945377E+02  0.13526813079E+03 -0.51576680444E+02  0.18152368069E+03  0.92889912142E+02 0.  0.
         23    2    1    2    0    0  0.58005945377E+02 -0.13526813079E+03 -0.69169114938E+03  0.71309715486E+03  0.91699232390E+02 0.  0.
          5    1    3    3  502    0 -0.51744057555E+02  0.15937829533E+02 -0.19101564321E+02  0.57605743307E+02  0.47000000000E+01 0. -1.
         -5    1    3    3    0  502 -0.62618878226E+01  0.11933030126E+03 -0.32475116123E+02  0.12391793738E+03  0.47000000000E+01 0.  1.
          5    1    4    4  503    0 -0.71799450538E+01 -0.73355559150E+02 -0.43142895796E+03  0.43770495249E+03  0.47000000000E+01 0. -1.
         -5    1    4    4    0  503  0.65185890431E+02 -0.61912571639E+02 -0.26026219143E+03  0.27539220237E+03  0.47000000000E+01 0.  1.
<mgrwt>
<rscale>  0 0.17388386E+03</rscale>
<asrwt>0</asrwt>
<pdfrwt beam="1">  1        4 0.12599144E+00 0.17404222E+03</pdfrwt>
<pdfrwt beam="2">  1       -4 0.11642539E-01 0.17404222E+03</pdfrwt>
<totfact> 0.50318351E+01</totfact>
</mgrwt>
</event>
<event>
 8    1  0.6396648E-004  0.1136300E+03  0.7546771E-02  0.1256038E+00
          3   -1    0    0  501    0  0.00000000000E+00  0.00000000000E+00  0.11181114004E+03  0.11181114004E+03  0.00000000000E+00 0. -1.
         -3   -1    0    0    0  501 -0.00000000000E+00 -0.00000000000E+00 -0.11735463434E+03  0.11735463434E+03  0.00000000000E+00 0.  1.
         23    2    1    2    0    0  0.16203056438E+02 -0.64850200662E+02 -0.29510824312E+02  0.11303567628E+03  0.86244349365E+02 0.  0.
         23    2    1    2    0    0 -0.16203056438E+02  0.64850200662E+02  0.23967330011E+02  0.11613009809E+03  0.91889494560E+02 0.  0.
          5    1    3    3  502    0  0.25165074453E+02 -0.22039869675E+01  0.19989243277E+02  0.32554544653E+02  0.47000000000E+01 0. -1.
         -5    1    3    3    0  502 -0.89620180154E+01 -0.62646213695E+02 -0.49500067589E+02  0.80481131630E+02  0.47000000000E+01 0.  1.
          5    1    4    4  503    0 -0.30902473893E+02  0.82652310875E+02  0.26945662431E+02  0.92382498936E+02  0.47000000000E+01 0. -1.
         -5    1    4    4    0  503  0.14699417456E+02 -0.17802110213E+02 -0.29783324200E+01  0.23747599154E+02  0.47000000000E+01 0.  1.
<mgrwt>
<rscale>  0 0.11248411E+03</rscale>
<asrwt>0</asrwt>
<pdfrwt beam="1">  1        3 0.17201714E-01 0.11362996E+03</pdfrwt>
<pdfrwt beam="2">  1       -3 0.18054559E-01 0.11362996E+03</pdfrwt>
<totfact> 0.17495335E+03</totfact>
</mgrwt>
</event>
<event>
 7    1  0.6396648E-004  0.1556025E+03  0.7546771E-02  0.1210356E+00
         -1   -1    0    0    0  501 -0.00000000000E+00  0.00000000000E+00  0.34503293105E+03  0.34503293105E+03  0.00000000000E+00 0.  1.
          1   -1    0    0  501    0  0.00000000000E+00 -0.00000000000E+00 -0.52103191637E+02  0.52103191637E+02  0.00000000000E+00 0. -1.
         23    2    1    2    0    0  0.27398009145E+01  0.58558759070E+02  0.87852696664E+02  0.13970901146E+03  0.91454233357E+02 0.  0.
          5    1    1    2  502    0  0.64398273000E+02 -0.48774209683E+02  0.73523845495E+02  0.10933392407E+03  0.47000000000E+01 0. -1.
         -5    1    3    3    0  503  0.34128320153E+01 -0.23347382780E+02  0.83567248098E+01  0.25469050917E+02  0.47000000000E+01 0.  1.
          5    1    3    3  503    0 -0.67303110073E+00  0.81906141851E+02  0.79495971854E+02  0.11423996054E+03  0.47000000000E+01 0. -1.
         -5    1    1    2    0  502 -0.67138073914E+02 -0.97845493876E+01  0.13155319726E+03  0.14809318716E+03  0.47000000000E+01 0.  1.
<mgrwt>
<rscale>  0 0.14223286E+03</rscale>
<asrwt>0</asrwt>
<pdfrwt beam="1">  1        1 0.80158759E-02 0.15560246E+03</pdfrwt>
<pdfrwt beam="2">  1       -1 0.53081988E-01 0.15560246E+03</pdfrwt>
<totfact> 0.30910971E+03</totfact>
</mgrwt>
</event>
<event>
 8    1  0.6396648E-004  0.1052571E+03  0.7546771E-02  0.1271948E+00
         -4   -1    0    0    0  501 -0.00000000000E+00  0.00000000000E+00  0.11956867383E+03  0.11956867383E+03  0.00000000000E+00 0.  1.
          4   -1    0    0  501    0  0.00000000000E+00 -0.00000000000E+00 -0.12951353807E+03  0.12951353807E+03  0.00000000000E+00 0. -1.
         23    2    1    2    0    0  0.17098405810E+02 -0.43126595436E+02  0.64920670761E+02  0.12366794241E+03  0.94481785403E+02 0.  0.
         23    2    1    2    0    0 -0.17098405810E+02  0.43126595436E+02 -0.74865534999E+02  0.12541426949E+03  0.89283996019E+02 0.  0.
          5    1    3    3  502    0 -0.33268150275E+02 -0.27722161919E+02  0.51476951336E+01  0.43862020580E+02  0.47000000000E+01 0. -1.
         -5    1    3    3    0  502  0.50366556085E+02 -0.15404433517E+02  0.59772975628E+02  0.79805921831E+02  0.47000000000E+01 0.  1.
          5    1    4    4  503    0 -0.39481815435E+02  0.55690031212E+02 -0.32728516730E+02  0.75851428028E+02  0.47000000000E+01 0. -1.
         -5    1    4    4    0  503  0.22383409624E+02 -0.12563435777E+02 -0.42137018269E+02  0.49562841459E+02  0.47000000000E+01 0.  1.
<mgrwt>
<rscale>  0 0.10407756E+03</rscale>
<asrwt>0</asrwt>
<pdfrwt beam="1">  1        4 0.19925160E-01 0.10525714E+03</pdfrwt>
<pdfrwt beam="2">  1       -4 0.18395181E-01 0.10525714E+03</pdfrwt>
<totfact> 0.93041716E+02</totfact>
</mgrwt>
</event>
<event>
 8    1  0.6396648E-004  0.9985285E+02  0.7546771E-02  0.1280938E+00
          2   -1    0    0  501    0  0.00000000000E+00  0.00000000000E+00  0.37448712292E+02  0.37448712292E+02  0.00000000000E+00 0. -1.
         -2   -1    0    0    0  501 -0.00000000000E+00 -0.00000000000E+00 -0.28273561781E+03  0.28273561781E+03  0.00000000000E+00 0.  1.
         23    2    1    2    0    0  0.36429153200E+02 -0.12174492578E+02 -0.81706382917E+02  0.12853574882E+03  0.91488820322E+02 0.  0.
         23    2    1    2    0    0 -0.36429153200E+02  0.12174492578E+02 -0.16358052261E+03  0.19164858128E+03  0.92169896710E+02 0.  0.
          5    1    3    3  502    0  0.53863421195E+02  0.22950940605E+02 -0.57590170176E+02  0.82260145383E+02  0.47000000000E+01 0. -1.
         -5    1    4    4    0  503 -0.37891867274E+02  0.40238593222E+02 -0.50437566732E+02  0.74973169387E+02  0.47000000000E+01 0.  1.
          5    1    4    4  503    0  0.14627140744E+01 -0.28064100644E+02 -0.11314295587E+03  0.11667541190E+03  0.47000000000E+01 0. -1.
         -5    1    3    3    0  502 -0.17434267995E+02 -0.35125433183E+02 -0.24116212741E+02  0.46275603441E+02  0.47000000000E+01 0.  1.
<mgrwt>
<rscale>  0 0.99695395E+02</rscale>
<asrwt>0</asrwt>
<pdfrwt beam="1">  1        2 0.57613402E-02 0.99852848E+02</pdfrwt>
<pdfrwt beam="2">  1       -2 0.43497788E-01 0.99852848E+02</pdfrwt>
<totfact> 0.60752510E+03</totfact>
</mgrwt>
</event>
<event>
 8    1  0.6396648E-004  0.9467401E+02  0.7546771E-02  0.1292086E+00
          1   -1    0    0  501    0  0.00000000000E+00  0.00000000000E+00  0.77920185545E+03  0.77920185545E+03  0.00000000000E+00 0. -1.
         -1   -1    0    0    0  501 -0.00000000000E+00 -0.00000000000E+00 -0.17480045036E+03  0.17480045036E+03  0.00000000000E+00 0.  1.
         23    2    1    2    0    0  0.22337930506E+02  0.10019893592E+02 -0.15885892170E+03  0.18493059746E+03  0.91453744962E+02 0.  0.
         23    2    1    2    0    0 -0.22337930506E+02 -0.10019893592E+02  0.76326032679E+03  0.76907170834E+03  0.91134980736E+02 0.  0.
          5    1    3    3  502    0  0.40237009212E+02 -0.24223895198E+02 -0.47495563997E+02  0.66960679568E+02  0.47000000000E+01 0. -1.
         -5    1    4    4    0  503 -0.51846782701E+01 -0.49892666051E+02  0.44054778585E+03  0.44341921545E+03  0.47000000000E+01 0.  1.
          5    1    4    4  503    0 -0.17153252236E+02  0.39872772459E+02  0.32271254095E+03  0.32565249290E+03  0.47000000000E+01 0. -1.
         -5    1    3    3    0  502 -0.17899078706E+02  0.34243788790E+02 -0.11136335770E+03  0.11796991789E+03  0.47000000000E+01 0.  1.
<mgrwt>
<rscale>  0 0.94596948E+02</rscale>
<asrwt>0</asrwt>
<pdfrwt beam="1">  1        1 0.11987721E+00 0.94674014E+02</pdfrwt>
<pdfrwt beam="2">  1       -1 0.26892377E-01 0.94674014E+02</pdfrwt>
<totfact> 0.30686075E+02</totfact>
</mgrwt>
</event>
<event>
 8    1  0.6396648E-004  0.9705830E+02  0.7546771E-02  0.1287212E+00
          2   -1    0    0  501    0  0.00000000000E+00  0.00000000000E+00  0.29109592580E+03  0.29109592580E+03  0.00000000000E+00 0. -1.
         -2   -1    0    0    0  501 -0.00000000000E+00 -0.00000000000E+00 -0.38622606176E+02  0.38622606176E+02  0.00000000000E+00 0.  1.
         23    2    1    2    0    0  0.16484240795E+01  0.32162873673E+02  0.19392704910E+03  0.21636960598E+03  0.90393242422E+02 0.  0.
         23    2    1    2    0    0 -0.16484240795E+01 -0.32162873673E+02  0.58546270522E+02  0.11334892599E+03  0.91559518820E+02 0.  0.
          5    1    3    3  502    0  0.16291994403E+02 -0.26018874460E+02  0.10092255845E+03  0.10559291507E+03  0.47000000000E+01 0. -1.
         -5    1    3    3    0  502 -0.14643570324E+02  0.58181748133E+02  0.93004490652E+02  0.11077669091E+03  0.47000000000E+01 0.  1.
          5    1    4    4  503    0  0.44257653508E+02 -0.12300424761E+02  0.34568306850E+02  0.57681003647E+02  0.47000000000E+01 0. -1.
         -5    1    4    4    0  503 -0.45906077587E+02 -0.19862448912E+02  0.23977963672E+02  0.55667922344E+02  0.47000000000E+01 0.  1.
<mgrwt>
<rscale>  0 0.96782267E+02</rscale>
<asrwt>0</asrwt>
<pdfrwt beam="1">  1        2 0.44783987E-01 0.97058298E+02</pdfrwt>
<pdfrwt beam="2">  1       -2 0.59419396E-02 0.97058298E+02</pdfrwt>
<totfact> 0.15441903E+04</totfact>
</mgrwt>
</event>
<event>
 8    1  0.6396648E-004  0.1103532E+03  0.7546771E-02  0.1264426E+00
          3   -1    0    0  501    0  0.00000000000E+00  0.00000000000E+00  0.85046743870E+02  0.85046743870E+02  0.00000000000E+00 0. -1.
         -3   -1    0    0    0  501 -0.00000000000E+00 -0.00000000000E+00 -0.14190327611E+03  0.14190327611E+03  0.00000000000E+00 0.  1.
         23    2    1    2    0    0  0.31522328821E+02 -0.28417290684E+02 -0.60518194851E+02  0.12585821048E+03  0.10186578235E+03 0.  0.
         23    2    1    2    0    0 -0.31522328821E+02  0.28417290684E+02  0.36616626060E+01  0.10109180950E+03  0.91678495577E+02 0.  0.
          5    1    4    4  502    0 -0.60828864156E+02  0.35057226405E+02 -0.68278747039E+00  0.70368430680E+02  0.47000000000E+01 0. -1.
         -5    1    4    4    0  502  0.29306535335E+02 -0.66399357212E+01  0.43444500764E+01  0.30723378821E+02  0.47000000000E+01 0.  1.
          5    1    3    3  503    0  0.69878980181E+00  0.33329089257E+02 -0.42797654644E+02  0.54452233572E+02  0.47000000000E+01 0. -1.
         -5    1    3    3    0  503  0.30823539019E+02 -0.61746379941E+02 -0.17720540207E+02  0.71405976911E+02  0.47000000000E+01 0.  1.
<mgrwt>
<rscale>  0 0.10794351E+03</rscale>
<asrwt>0</asrwt>
<pdfrwt beam="1">  1        3 0.13084115E-01 0.11035324E+03</pdfrwt>
<pdfrwt beam="2">  1       -3 0.21831273E-01 0.11035324E+03</pdfrwt>
<totfact> 0.19882138E+03</totfact>
</mgrwt>
</event>
<event>
 8    1  0.6396648E-004  0.9585686E+02  0.7546771E-02  0.1291010E+00
         -1   -1    0    0    0  501 -0.00000000000E+00  0.00000000000E+00  0.75675853406E+02  0.75675853406E+02  0.00000000000E+00 0.  1.
          1   -1    0    0  501    0  0.00000000000E+00 -0.00000000000E+00 -0.13287732421E+03  0.13287732421E+03  0.00000000000E+00 0. -1.
         23    2    1    2    0    0  0.27938357797E+02  0.22334392289E+01  0.72476656511E+01  0.93044608991E+02  0.88426413010E+02 0.  0.
         23    2    1    2    0    0 -0.27938357797E+02 -0.22334392289E+01 -0.64449136453E+02  0.11550856862E+03  0.91667868681E+02 0.  0.
          5    1    3    3  502    0  0.12023804420E+02 -0.42400357750E+02  0.96684826940E+01  0.45364432848E+02  0.47000000000E+01 0. -1.
         -5    1    4    4    0  503 -0.53315074477E+02  0.23070800956E+02 -0.29883944761E+02  0.65497321912E+02  0.47000000000E+01 0.  1.
          5    1    4    4  503    0  0.25376716680E+02 -0.25304240184E+02 -0.34565191693E+02  0.50011246710E+02  0.47000000000E+01 0. -1.
         -5    1    3    3    0  502  0.15914553377E+02  0.44633796979E+02 -0.24208170429E+01  0.47680176143E+02  0.47000000000E+01 0.  1.
<mgrwt>
<rscale>  0 0.95073574E+02</rscale>
<asrwt>0</asrwt>
<pdfrwt beam="1">  1        1 0.20442665E-01 0.95856863E+02</pdfrwt>
<pdfrwt beam="2">  1       -1 0.11642439E-01 0.95856863E+02</pdfrwt>
<totfact> 0.10851489E+04</totfact>
</mgrwt>
</event>
<event>
 8    1  0.6396648E-004  0.9543303E+02  0.7546771E-02  0.1298517E+00
         -1   -1    0    0    0  501 -0.00000000000E+00  0.00000000000E+00  0.75013526752E+02  0.75013526752E+02  0.00000000000E+00 0.  1.
          1   -1    0    0  501    0  0.00000000000E+00 -0.00000000000E+00 -0.11898103613E+03  0.11898103613E+03  0.00000000000E+00 0. -1.
         23    2    1    2    0    0 -0.24806152656E+02  0.22681280581E+02  0.13096348228E+02  0.82802174592E+02  0.74531202069E+02 0.  0.
         23    2    1    2    0    0  0.24806152656E+02 -0.22681280581E+02 -0.57063857605E+02  0.11119238829E+03  0.89317846313E+02 0.  0.
          5    1    3    3  502    0 -0.26125485132E+02 -0.19820791771E+02 -0.94408593206E+01  0.34447417675E+02  0.47000000000E+01 0. -1.
         -5    1    3    3    0  502  0.13193324761E+01  0.42502072352E+02  0.22537207549E+02  0.48354756917E+02  0.47000000000E+01 0.  1.
          5    1    4    4  503    0 -0.15144641673E+02 -0.45915629750E+02 -0.34261152714E+02  0.59443433717E+02  0.47000000000E+01 0. -1.
         -5    1    4    4    0  503  0.39950794329E+02  0.23234349169E+02 -0.22802704891E+02  0.51748954571E+02  0.47000000000E+01 0.  1.
<mgrwt>
<rscale>  0 0.91814054E+02</rscale>
<asrwt>0</asrwt>
<pdfrwt beam="1">  1        1 0.18304775E-01 0.95433031E+02</pdfrwt>
<pdfrwt beam="2">  1       -1 0.11540543E-01 0.95433031E+02</pdfrwt>
<totfact> 0.12635227E+04</totfact>
</mgrwt>
</event>
<event>
 8    1  0.6396648E-004  0.3905987E+03  0.7546771E-02  0.1047087E+00
          1   -1    0    0  501    0  0.00000000000E+00  0.00000000000E+00  0.64695333131E+03  0.64695333131E+03  0.00000000000E+00 0. -1.
         -1   -1    0    0    0  501 -0.00000000000E+00 -0.00000000000E+00 -0.23582249361E+03  0.23582249361E+03  0.00000000000E+00 0.  1.
         23    2    1    2    0    0  0.34926157862E+03  0.14907269947E+03  0.20196266202E+03  0.43972296428E+03  0.91438768755E+02 0.  0.
         23    2    1    2    0    0 -0.34926157862E+03 -0.14907269947E+03  0.20916817567E+03  0.44305286065E+03  0.91313698783E+02 0.  0.
          5    1    3    3  502    0  0.22836753565E+03  0.50440005860E+02  0.13285023920E+03  0.26901152686E+03  0.47000000000E+01 0. -1.
         -5    1    3    3    0  502  0.12089404297E+03  0.98632693611E+02  0.69112422827E+02  0.17071143741E+03  0.47000000000E+01 0.  1.
          5    1    4    4  503    0 -0.31284229396E+03 -0.11696249465E+03  0.14942359829E+03  0.36592352722E+03  0.47000000000E+01 0. -1.
         -5    1    4    4    0  503 -0.36419284660E+02 -0.32110204823E+02  0.59744577380E+02  0.77129333429E+02  0.47000000000E+01 0.  1.
<mgrwt>
<rscale>  0 0.39059142E+03</rscale>
<asrwt>0</asrwt>
<pdfrwt beam="1">  1        1 0.99531281E-01 0.39059873E+03</pdfrwt>
<pdfrwt beam="2">  1       -1 0.36280384E-01 0.39059873E+03</pdfrwt>
<totfact> 0.23132591E+02</totfact>
</mgrwt>
</event>
<event>
 8    1  0.6396648E-004  0.1219449E+03  0.7546771E-02  0.1240612E+00
         -1   -1    0    0    0  501 -0.00000000000E+00  0.00000000000E+00  0.14493302099E+03  0.14493302099E+03  0.00000000000E+00 0.  1.
          1   -1    0    0  501    0  0.00000000000E+00 -0.00000000000E+00 -0.46143988610E+03  0.46143988610E+03  0.00000000000E+00 0. -1.
         23    2    1    2    0    0  0.73622244205E+02  0.31825327738E+02  0.10939402147E+03  0.16382191724E+03  0.91855769050E+02 0.  0.
         23    2    1    2    0    0 -0.73622244205E+02 -0.31825327738E+02 -0.42590088658E+03  0.44255098985E+03  0.89592003578E+02 0.  0.
          5    1    3    3  502    0  0.22202231336E+01 -0.22043748901E+02  0.27343034265E+00  0.22649967340E+02  0.47000000000E+01 0. -1.
         -5    1    4    4    0  503  0.46302411513E+01 -0.22450764365E+02 -0.26205598933E+02  0.35132596959E+02  0.47000000000E+01 0.  1.
          5    1    4    4  503    0 -0.78252485356E+02 -0.93745633732E+01 -0.39969528764E+03  0.40741839289E+03  0.47000000000E+01 0. -1.
         -5    1    3    3    0  502  0.71402021071E+02  0.53869076638E+02  0.10912059113E+03  0.14117194990E+03  0.47000000000E+01 0.  1.
<mgrwt>
<rscale>  0 0.12151872E+03</rscale>
<asrwt>0</asrwt>
<pdfrwt beam="1">  1        1 0.70990751E-01 0.12194494E+03</pdfrwt>
<pdfrwt beam="2">  1       -1 0.22297388E-01 0.12194494E+03</pdfrwt>
<totfact> 0.84636589E+02</totfact>
</mgrwt>
</event>
<event>
 8    1  0.6396648E-004  0.9573996E+02  0.7546771E-02  0.1298856E+00
          1   -1    0    0  501    0  0.00000000000E+00  0.00000000000E+00  0.60947985295E+03  0.60947985295E+03  0.00000000000E+00 0. -1.
         -1   -1    0    0    0  501 -0.00000000000E+00 -0.00000000000E+00 -0.13255198610E+02  0.13255198610E+02  0.00000000000E+00 0.  1.
         23    2    1    2    0    0 -0.30808245258E+02  0.38386340746E+01  0.21191674727E+03  0.22668113194E+03  0.74241125506E+02 0.  0.
         23    2    1    2    0    0  0.30808245258E+02 -0.38386340746E+01  0.38430790706E+03  0.39605391961E+03  0.90566311191E+02 0.  0.
          5    1    3    3  502    0  0.14093331519E+02 -0.22848965331E+02  0.87984450122E+02  0.92108906591E+02  0.47000000000E+01 0. -1.
         -5    1    3    3    0  502 -0.44901576777E+02  0.26687599406E+02  0.12393229715E+03  0.13457222535E+03  0.47000000000E+01 0.  1.
          5    1    4    4  503    0 -0.87832321494E+01 -0.32391357945E+02  0.26353031663E+03  0.26570032559E+03  0.47000000000E+01 0. -1.
         -5    1    4    4    0  503  0.39591477408E+02  0.28552723870E+02  0.12077759044E+03  0.13035359403E+03  0.47000000000E+01 0.  1.
<mgrwt>
<rscale>  0 0.91670619E+02</rscale>
<asrwt>0</asrwt>
<pdfrwt beam="1">  1        1 0.93766109E-01 0.95739959E+02</pdfrwt>
<pdfrwt beam="2">  1       -1 0.20392618E-02 0.95739959E+02</pdfrwt>
<totfact> 0.20935297E+04</totfact>
</mgrwt>
</event>
<event>
 8    1  0.6396648E-004  0.8662652E+02  0.7546771E-02  0.1318453E+00
          2   -1    0    0  501    0  0.00000000000E+00  0.00000000000E+00  0.46224631791E+03  0.46224631791E+03  0.00000000000E+00 0. -1.
         -2   -1    0    0    0  501 -0.00000000000E+00 -0.00000000000E+00 -0.27175988012E+02  0.27175988012E+02  0.00000000000E+00 0.  1.
         23    2    1    2    0    0 -0.77774713341E+01  0.21283582343E+02  0.41935780683E+02  0.86856873893E+02  0.72608724705E+02 0.  0.
         23    2    1    2    0    0  0.77774713341E+01 -0.21283582343E+02  0.39313454922E+03  0.40256543203E+03  0.83610246624E+02 0.  0.
          5    1    4    4  502    0 -0.14710091571E+02  0.26967261644E+02  0.10439849752E+03  0.10892546203E+03  0.47000000000E+01 0.  1.
         -5    1    3    3    0  503 -0.39611002833E+02  0.11110491156E+02  0.16402063107E+02  0.44537537352E+02  0.47000000000E+01 0.  1.
          5    1    3    3  503    0  0.31833531499E+02  0.10173091187E+02  0.25533717577E+02  0.42319336541E+02  0.47000000000E+01 0. -1.
         -5    1    4    4    0  502  0.22487562905E+02 -0.48250843987E+02  0.28873605170E+03  0.29363997000E+03  0.47000000000E+01 0. -1.
<mgrwt>
<rscale>  0 0.83855357E+02</rscale>
<asrwt>0</asrwt>
<pdfrwt beam="1">  1        2 0.71114812E-01 0.86626516E+02</pdfrwt>
<pdfrwt beam="2">  1       -2 0.41809216E-02 0.86626516E+02</pdfrwt>
<totfact> 0.15836308E+04</totfact>
</mgrwt>
</event>
<event>
 8    1  0.6396648E-004  0.1202558E+03  0.7546771E-02  0.1243619E+00
          3   -1    0    0  501    0  0.00000000000E+00  0.00000000000E+00  0.32969394408E+03  0.32969394408E+03  0.00000000000E+00 0. -1.
         -3   -1    0    0    0  501 -0.00000000000E+00 -0.00000000000E+00 -0.43046004186E+02  0.43046004186E+02  0.00000000000E+00 0.  1.
         23    2    1    2    0    0 -0.77285103196E+02 -0.11604011140E+02  0.14426676924E+03  0.18636971659E+03  0.88391913117E+02 0.  0.
         23    2    1    2    0    0  0.77285103196E+02  0.11604011140E+02  0.14238117066E+03  0.18637023168E+03  0.91399262838E+02 0.  0.
          5    1    3    3  502    0 -0.27561986884E+02 -0.47072479710E+02  0.51253255916E+02  0.74996451310E+02  0.47000000000E+01 0. -1.
         -5    1    3    3    0  502 -0.49723116312E+02  0.35468468570E+02  0.93013513324E+02  0.11137326528E+03  0.47000000000E+01 0.  1.
          5    1    4    4  503    0  0.20210663960E+02  0.15662520133E+02  0.12308855468E+03  0.12580408486E+03  0.47000000000E+01 0. -1.
         -5    1    4    4    0  503  0.57074439237E+02 -0.40585089926E+01  0.19292615983E+02  0.60566146822E+02  0.47000000000E+01 0.  1.
<mgrwt>
<rscale>  0 0.11968439E+03</rscale>
<asrwt>0</asrwt>
<pdfrwt beam="1">  1        3 0.50722144E-01 0.12025583E+03</pdfrwt>
<pdfrwt beam="2">  1       -3 0.66224624E-02 0.12025583E+03</pdfrwt>
<totfact> 0.12711634E+03</totfact>
</mgrwt>
</event>
<event>
 8    1  0.6396648E-004  0.1474372E+03  0.7546771E-02  0.1204000E+00
         -1   -1    0    0    0  501 -0.00000000000E+00  0.00000000000E+00  0.24537750221E+02  0.24537750221E+02  0.00000000000E+00 0.  1.
          1   -1    0    0  501    0  0.00000000000E+00 -0.00000000000E+00 -0.92678899099E+03  0.92678899099E+03  0.00000000000E+00 0. -1.
         23    2    1    2    0    0 -0.10277677081E+03  0.50189485428E+02 -0.34196101265E+03  0.37196254160E+03  0.91305799996E+02 0.  0.
         23    2    1    2    0    0  0.10277677081E+03 -0.50189485428E+02 -0.56029022812E+03  0.57936419961E+03  0.93035944678E+02 0.  0.
          5    1    3    3  502    0 -0.85518052912E+02  0.34111511502E+02 -0.33421202313E+03  0.34669395581E+03  0.47000000000E+01 0. -1.
         -5    1    4    4    0  503 -0.15110224239E+02 -0.20093318376E+02 -0.10568222749E+03  0.10873308387E+03  0.47000000000E+01 0.  1.
          5    1    4    4  503    0  0.11788699505E+03 -0.30096167052E+02 -0.45460800063E+03  0.47063111574E+03  0.47000000000E+01 0. -1.
         -5    1    3    3    0  502 -0.17258717899E+02  0.16077973926E+02 -0.77489895207E+01  0.25268585787E+02  0.47000000000E+01 0.  1.
<mgrwt>
<rscale>  0 0.14716507E+03</rscale>
<asrwt>0</asrwt>
<pdfrwt beam="1">  1        1 0.14258291E+00 0.14743723E+03</pdfrwt>
<pdfrwt beam="2">  1       -1 0.37750388E-02 0.14743723E+03</pdfrwt>
<totfact> 0.47737008E+03</totfact>
</mgrwt>
</event>
<event>
 8    1  0.6396648E-004  0.9190679E+02  0.7546771E-02  0.1299016E+00
         -1   -1    0    0    0  501 -0.00000000000E+00  0.00000000000E+00  0.20341215767E+03  0.20341215767E+03  0.00000000000E+00 0.  1.
          1   -1    0    0  501    0  0.00000000000E+00 -0.00000000000E+00 -0.41942064973E+02  0.41942064973E+02  0.00000000000E+00 0. -1.
         23    2    1    2    0    0  0.53360444954E+01  0.11446612609E+02  0.98782997283E+02  0.13410436936E+03  0.89813156147E+02 0.  0.
         23    2    1    2    0    0 -0.53360444954E+01 -0.11446612609E+02  0.62687095418E+02  0.11124985329E+03  0.91034936230E+02 0.  0.
          5    1    4    4  502    0 -0.26933807966E+02  0.31208206939E+02  0.41698036466E+02  0.58823451420E+02  0.47000000000E+01 0. -1.
         -5    1    4    4    0  502  0.21597763470E+02 -0.42654819548E+02  0.20989058952E+02  0.52426401872E+02  0.47000000000E+01 0.  1.
          5    1    3    3  503    0 -0.29399871181E+02 -0.63706129119E+01  0.30364062342E+01  0.30598151859E+02  0.47000000000E+01 0.  1.
         -5    1    3    3    0  503  0.34735915677E+02  0.17817225521E+02  0.95746591049E+02  0.10350621750E+03  0.47000000000E+01 0. -1.
<mgrwt>
<rscale>  0 0.91602776E+02</rscale>
<asrwt>0</asrwt>
<pdfrwt beam="1">  1        1 0.64526255E-02 0.91906789E+02</pdfrwt>
<pdfrwt beam="2">  1       -1 0.31294177E-01 0.91906789E+02</pdfrwt>
<totfact> 0.10059875E+04</totfact>
</mgrwt>
</event>
<event>
 8    1  0.6396648E-004  0.1057736E+03  0.7546771E-02  0.1268920E+00
          3   -1    0    0  501    0  0.00000000000E+00  0.00000000000E+00  0.24409050778E+03  0.24409050778E+03  0.00000000000E+00 0. -1.
         -3   -1    0    0    0  501 -0.00000000000E+00 -0.00000000000E+00 -0.46650056429E+02  0.46650056429E+02  0.00000000000E+00 0.  1.
         23    2    1    2    0    0 -0.30853633260E+02  0.46160274412E+02  0.76743235045E+02  0.13068124570E+03  0.90029696397E+02 0.  0.
         23    2    1    2    0    0  0.30853633260E+02 -0.46160274412E+02  0.12069721630E+03  0.16005931851E+03  0.89266173872E+02 0.  0.
          5    1    3    3  502    0 -0.36002031359E+02 -0.18280509754E+02  0.34473187701E+02  0.53299286760E+02  0.47000000000E+01 0. -1.
         -5    1    4    4    0  503  0.56888436496E+02 -0.12221922427E+02  0.89712895504E+02  0.10703346773E+03  0.47000000000E+01 0.  1.
          5    1    4    4  503    0 -0.26034803236E+02 -0.33938351985E+02  0.30984320800E+02  0.53025850775E+02  0.47000000000E+01 0. -1.
         -5    1    3    3    0  502  0.51483980983E+01  0.64440784167E+02  0.42270047344E+02  0.77381958940E+02  0.47000000000E+01 0.  1.
<mgrwt>
<rscale>  0 0.10561099E+03</rscale>
<asrwt>0</asrwt>
<pdfrwt beam="1">  1        3 0.37552385E-01 0.10577364E+03</pdfrwt>
<pdfrwt beam="2">  1       -3 0.71769319E-02 0.10577364E+03</pdfrwt>
<totfact> 0.19586563E+03</totfact>
</mgrwt>
</event>
<event>
 8    1  0.6396648E-004  0.1114305E+03  0.7546771E-02  0.1258494E+00
          1   -1    0    0  501    0  0.00000000000E+00  0.00000000000E+00  0.10672223718E+03  0.10672223718E+03  0.00000000000E+00 0. -1.
         -1   -1    0    0    0  501 -0.00000000000E+00 -0.00000000000E+00 -0.12222657068E+03  0.12222657068E+03  0.00000000000E+00 0.  1.
         23    2    1    2    0    0  0.62104849406E+02 -0.12854794355E+01 -0.35365764418E+02  0.11576208215E+03  0.91057441183E+02 0.  0.
         23    2    1    2    0    0 -0.62104849406E+02  0.12854794355E+01  0.19861430917E+02  0.11318672571E+03  0.92509965197E+02 0.  0.
          5    1    3    3  502    0  0.23522968817E+02  0.43589074092E+02 -0.24309308068E+02  0.55374812874E+02  0.47000000000E+01 0. -1.
         -5    1    3    3    0  502  0.38581880590E+02 -0.44874553527E+02 -0.11056456350E+02  0.60387269280E+02  0.47000000000E+01 0.  1.
          5    1    4    4  503    0 -0.42953332960E+02  0.29438270991E+02 -0.23943354799E+02  0.57506302700E+02  0.47000000000E+01 0. -1.
         -5    1    4    4    0  503 -0.19151516447E+02 -0.28152791555E+02  0.43804785715E+02  0.55680423006E+02  0.47000000000E+01 0.  1.
<mgrwt>
<rscale>  0 0.11112856E+03</rscale>
<asrwt>0</asrwt>
<pdfrwt beam="1">  1        1 0.16418806E-01 0.11143051E+03</pdfrwt>
<pdfrwt beam="2">  1       -1 0.18804088E-01 0.11143051E+03</pdfrwt>
<totfact> 0.68860823E+03</totfact>
</mgrwt>
</event>
<event>
 8    1  0.6396648E-004  0.9796720E+02  0.7546771E-02  0.1285609E+00
         -1   -1    0    0    0  501 -0.00000000000E+00  0.00000000000E+00  0.44464276131E+03  0.44464276131E+03  0.00000000000E+00 0.  1.
          1   -1    0    0  501    0  0.00000000000E+00 -0.00000000000E+00 -0.53215544602E+02  0.53215544602E+02  0.00000000000E+00 0. -1.
         23    2    1    2    0    0  0.46657665539E+01  0.35325301636E+02  0.38953590604E+03  0.40166627344E+03  0.91257475350E+02 0.  0.
         23    2    1    2    0    0 -0.46657665539E+01 -0.35325301636E+02  0.18913106655E+01  0.96192032474E+02  0.89329075570E+02 0.  0.
          5    1    4    4  502    0  0.38020370297E+02 -0.20142154072E+02 -0.17501146209E+02  0.46686561737E+02  0.47000000000E+01 0. -1.
         -5    1    3    3    0  503  0.42467152036E+02  0.31795204543E+02  0.29346785258E+03  0.29826140302E+03  0.47000000000E+01 0.  1.
          5    1    3    3  503    0 -0.37801385482E+02  0.35300970930E+01  0.96068053469E+02  0.10340487042E+03  0.47000000000E+01 0. -1.
         -5    1    4    4    0  502 -0.42686136851E+02 -0.15183147565E+02  0.19392456874E+02  0.49505470737E+02  0.47000000000E+01 0.  1.
<mgrwt>
<rscale>  0 0.97515650E+02</rscale>
<asrwt>0</asrwt>
<pdfrwt beam="1">  1        1 0.81870072E-02 0.97967204E+02</pdfrwt>
<pdfrwt beam="2">  1       -1 0.68406576E-01 0.97967204E+02</pdfrwt>
<totfact> 0.18143959E+03</totfact>
</mgrwt>
</event>
<event>
 8    1  0.6396648E-004  0.9913632E+02  0.7546771E-02  0.1284543E+00
         -1   -1    0    0    0  501 -0.00000000000E+00  0.00000000000E+00  0.41288611141E+02  0.41288611141E+02  0.00000000000E+00 0.  1.
          1   -1    0    0  501    0  0.00000000000E+00 -0.00000000000E+00 -0.24392148209E+03  0.24392148209E+03  0.00000000000E+00 0. -1.
         23    2    1    2    0    0  0.30578902952E+02 -0.66901338247E+01 -0.62152871034E+02  0.11327219599E+03  0.89374402437E+02 0.  0.
         23    2    1    2    0    0 -0.30578902952E+02  0.66901338247E+01 -0.14047999992E+03  0.17193789724E+03  0.94064780522E+02 0.  0.
          5    1    4    4  502    0  0.11024194716E+02  0.17576988090E+02  0.35353396903E+01  0.21565528191E+02  0.47000000000E+01 0. -1.
         -5    1    4    4    0  502 -0.41603097668E+02 -0.10886854265E+02 -0.14401533961E+03  0.15037236905E+03  0.47000000000E+01 0.  1.
          5    1    3    3  503    0 -0.14484335413E+02  0.16193977185E+02 -0.58268756507E+02  0.62364884786E+02  0.47000000000E+01 0. -1.
         -5    1    3    3    0  503  0.45063238365E+02 -0.22884111010E+02 -0.38841145260E+01  0.50907311206E+02  0.47000000000E+01 0.  1.
<mgrwt>
<rscale>  0 0.98007473E+02</rscale>
<asrwt>0</asrwt>
<pdfrwt beam="1">  1        1 0.37526382E-01 0.99136321E+02</pdfrwt>
<pdfrwt beam="2">  1       -1 0.63520940E-02 0.99136321E+02</pdfrwt>
<totfact> 0.12751689E+04</totfact>
</mgrwt>
</event>
<event>
 8    1  0.6396648E-004  0.9473254E+02  0.7546771E-02  0.1292699E+00
          1   -1    0    0  501    0  0.00000000000E+00  0.00000000000E+00  0.13996694709E+03  0.13996694709E+03  0.00000000000E+00 0. -1.
         -1   -1    0    0    0  501 -0.00000000000E+00 -0.00000000000E+00 -0.83319477898E+02  0.83319477898E+02  0.00000000000E+00 0.  1.
         23    2    1    2    0    0  0.51563767320E+01 -0.92894832541E+01 -0.26950953088E+02  0.96941852554E+02  0.92512086692E+02 0.  0.
         23    2    1    2    0    0 -0.51563767320E+01  0.92894832541E+01  0.83598422279E+02  0.12634457243E+03  0.94134861001E+02 0.  0.
          5    1    4    4  502    0  0.20941644597E+02 -0.27120438160E+02  0.71932861352E+02  0.79815394422E+02  0.47000000000E+01 0. -1.
         -5    1    4    4    0  502 -0.26098021329E+02  0.36409921414E+02  0.11665560927E+02  0.46529178011E+02  0.47000000000E+01 0.  1.
          5    1    3    3  503    0  0.63806032462E+01 -0.40621881861E+02 -0.44443301621E+02  0.60730111499E+02  0.47000000000E+01 0. -1.
         -5    1    3    3    0  503 -0.12242265142E+01  0.31332398607E+02  0.17492348533E+02  0.36211741055E+02  0.47000000000E+01 0.  1.
<mgrwt>
<rscale>  0 0.94326855E+02</rscale>
<asrwt>0</asrwt>
<pdfrwt beam="1">  1        1 0.21533376E-01 0.94732543E+02</pdfrwt>
<pdfrwt beam="2">  1       -1 0.12818381E-01 0.94732543E+02</pdfrwt>
<totfact> 0.87657883E+03</totfact>
</mgrwt>
</event>
<event>
 8    1  0.6396648E-004  0.9349378E+02  0.7546771E-02  0.1294919E+00
         -2   -1    0    0    0  501 -0.00000000000E+00  0.00000000000E+00  0.18722468999E+02  0.18722468999E+02  0.00000000000E+00 0.  1.
          2   -1    0    0  501    0  0.00000000000E+00 -0.00000000000E+00 -0.48370444154E+03  0.48370444154E+03  0.00000000000E+00 0. -1.
         23    2    1    2    0    0 -0.34647090377E+00  0.18163668641E+02 -0.18135365959E+03  0.20378648000E+03  0.91157779050E+02 0.  0.
         23    2    1    2    0    0  0.34647090377E+00 -0.18163668641E+02 -0.28362831295E+03  0.29864043054E+03  0.91711765592E+02 0.  0.
          5    1    4    4  502    0  0.92229559526E+01  0.34904244568E+02 -0.15330453042E+03  0.15756820191E+03  0.47000000000E+01 0. -1.
         -5    1    3    3    0  503  0.39320862259E+02  0.27288735302E+02 -0.68270086819E+02  0.83508682408E+02  0.47000000000E+01 0.  1.
          5    1    3    3  503    0 -0.39667333162E+02 -0.91250666610E+01 -0.11308357277E+03  0.12027779759E+03  0.47000000000E+01 0. -1.
         -5    1    4    4    0  502 -0.88764850488E+01 -0.53067913209E+02 -0.13032378253E+03  0.14107222863E+03  0.47000000000E+01 0.  1.
<mgrwt>
<rscale>  0 0.93357641E+02</rscale>
<asrwt>0</asrwt>
<pdfrwt beam="1">  1        2 0.74416068E-01 0.93493780E+02</pdfrwt>
<pdfrwt beam="2">  1       -2 0.28803798E-02 0.93493780E+02</pdfrwt>
<totfact> 0.26206960E+04</totfact>
</mgrwt>
</event>
<event>
 8    1  0.6396648E-004  0.9496226E+02  0.7546771E-02  0.1292187E+00
         -1   -1    0    0    0  501 -0.00000000000E+00  0.00000000000E+00  0.27148819820E+03  0.27148819820E+03  0.00000000000E+00 0.  1.
          1   -1    0    0  501    0  0.00000000000E+00 -0.00000000000E+00 -0.33490107341E+02  0.33490107341E+02  0.00000000000E+00 0. -1.
         23    2    1    2    0    0  0.48708119820E+01  0.17365018810E+02  0.14215785069E+03  0.17005913509E+03  0.91575030593E+02 0.  0.
         23    2    1    2    0    0 -0.48708119820E+01 -0.17365018810E+02  0.95840240164E+02  0.13491917044E+03  0.93233911377E+02 0.  0.
          5    1    4    4  502    0  0.26518737367E+02 -0.79346433953E+01  0.97800070409E+02  0.10175040918E+03  0.47000000000E+01 0. -1.
         -5    1    4    4    0  502 -0.31389549349E+02 -0.94303754148E+01 -0.19598302446E+01  0.33168761258E+02  0.47000000000E+01 0.  1.
          5    1    3    3  503    0  0.46718054889E+02 -0.17419249443E+01  0.75687350179E+02  0.89085778508E+02  0.47000000000E+01 0. -1.
         -5    1    3    3    0  503 -0.41847242907E+02  0.19106943754E+02  0.66470500512E+02  0.80973356586E+02  0.47000000000E+01 0.  1.
<mgrwt>
<rscale>  0 0.94552578E+02</rscale>
<asrwt>0</asrwt>
<pdfrwt beam="1">  1        1 0.51523244E-02 0.94962260E+02</pdfrwt>
<pdfrwt beam="2">  1       -1 0.41767414E-01 0.94962260E+02</pdfrwt>
<totfact> 0.83396329E+03</totfact>
</mgrwt>
</event>
<event>
 8    1  0.6396648E-004  0.1021239E+03  0.7546771E-02  0.1277652E+00
          3   -1    0    0  501    0  0.00000000000E+00  0.00000000000E+00  0.11812612833E+03  0.11812612833E+03  0.00000000000E+00 0. -1.
         -3   -1    0    0    0  501 -0.00000000000E+00 -0.00000000000E+00 -0.15029420959E+03  0.15029420959E+03  0.00000000000E+00 0.  1.
         23    2    1    2    0    0  0.17582573248E+02  0.38286332601E+02 -0.10442655965E+03  0.14606232639E+03  0.93028526175E+02 0.  0.
         23    2    1    2    0    0 -0.17582573248E+02 -0.38286332601E+02  0.72258478398E+02  0.12235801153E+03  0.89304004050E+02 0.  0.
          5    1    3    3  502    0  0.29898930462E+02 -0.22979956295E+02 -0.51697112817E+02  0.64161560983E+02  0.47000000000E+01 0. -1.
         -5    1    3    3    0  502 -0.12316357214E+02  0.61266288896E+02 -0.52729446836E+02  0.81900765403E+02  0.47000000000E+01 0.  1.
          5    1    4    4  503    0 -0.31327085000E+01 -0.66358065912E+02  0.52650575714E+02  0.84896289066E+02  0.47000000000E+01 0. -1.
         -5    1    4    4    0  503 -0.14449864748E+02  0.28071733312E+02  0.19607902684E+02  0.37461722465E+02  0.47000000000E+01 0.  1.
<mgrwt>
<rscale>  0 0.10126802E+03</rscale>
<asrwt>0</asrwt>
<pdfrwt beam="1">  1        3 0.18173251E-01 0.10212393E+03</pdfrwt>
<pdfrwt beam="2">  1       -3 0.23122186E-01 0.10212393E+03</pdfrwt>
<totfact> 0.10107940E+03</totfact>
</mgrwt>
</event>
<event>
 8    1  0.6396648E-004  0.1015248E+03  0.7546771E-02  0.1279685E+00
         -1   -1    0    0    0  501 -0.00000000000E+00  0.00000000000E+00  0.46586227703E+02  0.46586227703E+02  0.00000000000E+00 0.  1.
          1   -1    0    0  501    0  0.00000000000E+00 -0.00000000000E+00 -0.42215903629E+03  0.42215903629E+03  0.00000000000E+00 0. -1.
         23    2    1    2    0    0  0.34357589036E+02  0.71057015283E+01 -0.35588308956E+03  0.37008116040E+03  0.95269916182E+02 0.  0.
         23    2    1    2    0    0 -0.34357589036E+02 -0.71057015283E+01 -0.19689719027E+02  0.98664103593E+02  0.90088763916E+02 0.  0.
          5    1    4    4  502    0 -0.80210511898E+01  0.28886297068E+02 -0.39355472433E+02  0.49696062529E+02  0.47000000000E+01 0. -1.
         -5    1    3    3    0  503 -0.19491686929E+02 -0.28155270944E+02 -0.88276724660E+02  0.94802506602E+02  0.47000000000E+01 0.  1.
          5    1    3    3  503    0  0.53849275965E+02  0.35260972472E+02 -0.26760636490E+03  0.27527865379E+03  0.47000000000E+01 0. -1.
         -5    1    4    4    0  502 -0.26336537846E+02 -0.35991998596E+02  0.19665753406E+02  0.48968041064E+02  0.47000000000E+01 0.  1.
<mgrwt>
<rscale>  0 0.10029119E+03</rscale>
<asrwt>0</asrwt>
<pdfrwt beam="1">  1        1 0.64947547E-01 0.10152483E+03</pdfrwt>
<pdfrwt beam="2">  1       -1 0.71671117E-02 0.10152483E+03</pdfrwt>
<totfact> 0.54327132E+03</totfact>
</mgrwt>
</event>
<event>
 8    1  0.6396648E-004  0.9515925E+02  0.7546771E-02  0.1290958E+00
          1   -1    0    0  501    0  0.00000000000E+00  0.00000000000E+00  0.32444790744E+02  0.32444790744E+02  0.00000000000E+00 0. -1.
         -1   -1    0    0    0  501 -0.00000000000E+00 -0.00000000000E+00 -0.36838696406E+03  0.36838696406E+03  0.00000000000E+00 0.  1.
         23    2    1    2    0    0 -0.10002940422E+01 -0.26527866917E+02 -0.68733521622E+02  0.11718453263E+03  0.91121838121E+02 0.  0.
         23    2    1    2    0    0  0.10002940422E+01  0.26527866917E+02 -0.26720865169E+03  0.28364722217E+03  0.91381370059E+02 0.  0.
          5    1    4    4  502    0  0.44356431449E+02  0.82405097696E+01 -0.16332154953E+03  0.16950344407E+03  0.47000000000E+01 0. -1.
         -5    1    3    3    0  503  0.27389634437E+02 -0.47072126856E+02 -0.59172744657E+02  0.80557314452E+02  0.47000000000E+01 0.  1.
          5    1    3    3  503    0 -0.28389928479E+02  0.20544259940E+02 -0.95607769647E+01  0.36627218181E+02  0.47000000000E+01 0. -1.
         -5    1    4    4    0  502 -0.43356137406E+02  0.18287357147E+02 -0.10388710216E+03  0.11414377810E+03  0.47000000000E+01 0.  1.
<mgrwt>
<rscale>  0 0.95096890E+02</rscale>
<asrwt>0</asrwt>
<pdfrwt beam="1">  1        1 0.49915062E-02 0.95159251E+02</pdfrwt>
<pdfrwt beam="2">  1       -1 0.56674918E-01 0.95159251E+02</pdfrwt>
<totfact> 0.50259005E+03</totfact>
</mgrwt>
</event>
<event>
 8    1  0.6396648E-004  0.1049508E+03  0.7546771E-02  0.1278070E+00
          1   -1    0    0  501    0  0.00000000000E+00  0.00000000000E+00  0.80902404730E+02  0.80902404730E+02  0.00000000000E+00 0. -1.
         -1   -1    0    0    0  501 -0.00000000000E+00 -0.00000000000E+00 -0.12408329652E+03  0.12408329652E+03  0.00000000000E+00 0.  1.
         23    2    1    2    0    0  0.27412435690E+01 -0.31298543464E+01  0.30462127448E+01  0.90305204546E+02  0.90157862394E+02 0.  0.
         23    2    1    2    0    0 -0.27412435690E+01  0.31298543464E+01 -0.46227104535E+02  0.11468049670E+03  0.10486830182E+03 0.  0.
          5    1    4    4  502    0 -0.43998518720E+02  0.30481590346E+02 -0.33624608656E+02  0.63385339842E+02  0.47000000000E+01 0. -1.
         -5    1    4    4    0  502  0.41257275151E+02 -0.27351736000E+02 -0.12602495878E+02  0.51295156861E+02  0.47000000000E+01 0.  1.
          5    1    3    3  503    0  0.22110003475E+02  0.21973115806E+02  0.33564624952E+02  0.46047194486E+02  0.47000000000E+01 0. -1.
         -5    1    3    3    0  503 -0.19368759906E+02 -0.25102970152E+02 -0.30518412207E+02  0.44258010060E+02  0.47000000000E+01 0.  1.
<mgrwt>
<rscale>  0 0.10106615E+03</rscale>
<asrwt>0</asrwt>
<pdfrwt beam="1">  1        1 0.12446524E-01 0.10495080E+03</pdfrwt>
<pdfrwt beam="2">  1       -1 0.19089738E-01 0.10495080E+03</pdfrwt>
<totfact> 0.95608785E+03</totfact>
</mgrwt>
</event>
<event>
 8    1  0.6396648E-004  0.2911243E+03  0.7546771E-02  0.1089866E+00
         -1   -1    0    0    0  501 -0.00000000000E+00  0.00000000000E+00  0.28485498672E+03  0.28485498672E+03  0.00000000000E+00 0.  1.
          1   -1    0    0  501    0  0.00000000000E+00 -0.00000000000E+00 -0.48514115360E+03  0.48514115360E+03  0.00000000000E+00 0. -1.
         23    2    1    2    0    0  0.15731418613E+03 -0.22645463960E+03 -0.34015242546E+03  0.44772426743E+03  0.93401767364E+02 0.  0.
         23    2    1    2    0    0 -0.15731418613E+03  0.22645463960E+03  0.13986625857E+03  0.32227187289E+03  0.90923774736E+02 0.  0.
          5    1    3    3  502    0  0.13178349549E+03 -0.20709749202E+03 -0.33437414639E+03  0.41483059272E+03  0.47000000000E+01 0. -1.
         -5    1    3    3    0  502  0.25530690633E+02 -0.19357147586E+02 -0.57782790691E+01  0.32893674709E+02  0.47000000000E+01 0.  1.
          5    1    4    4  503    0 -0.40477129479E+02  0.66321405217E+01  0.22310693952E+02  0.46928033875E+02  0.47000000000E+01 0. -1.
         -5    1    4    4    0  503 -0.11683705665E+03  0.21982249908E+03  0.11755556462E+03  0.27534383901E+03  0.47000000000E+01 0.  1.
<mgrwt>
<rscale>  0 0.29092770E+03</rscale>
<asrwt>0</asrwt>
<pdfrwt beam="1">  1        1 0.74637100E-01 0.29112428E+03</pdfrwt>
<pdfrwt beam="2">  1       -1 0.43823844E-01 0.29112428E+03</pdfrwt>
<totfact> 0.24787061E+02</totfact>
</mgrwt>
</event>
<event>
 8    1  0.6396648E-004  0.9719321E+02  0.7546771E-02  0.1286369E+00
          2   -1    0    0  501    0  0.00000000000E+00  0.00000000000E+00  0.11158015794E+04  0.11158015794E+04  0.00000000000E+00 0. -1.
         -2   -1    0    0    0  501 -0.00000000000E+00 -0.00000000000E+00 -0.98963237362E+01  0.98963237362E+01  0.00000000000E+00 0.  1.
         23    2    1    2    0    0 -0.34279104075E+02  0.97433584213E+00  0.76786146911E+03  0.77398821383E+03  0.90942361404E+02 0.  0.
         23    2    1    2    0    0  0.34279104075E+02 -0.97433584213E+00  0.33804378653E+03  0.35170968928E+03  0.90830047985E+02 0.  0.
          5    1    3    3  502    0 -0.50615764117E+02  0.32375428561E+02  0.42063797568E+03  0.42493354837E+03  0.47000000000E+01 0. -1.
         -5    1    4    4    0  503  0.55897012203E+02  0.15654174824E+02  0.13835736795E+03  0.15011455769E+03  0.47000000000E+01 0.  1.
          5    1    4    4  503    0 -0.21617908128E+02 -0.16628510666E+02  0.19968641858E+03  0.20159513159E+03  0.47000000000E+01 0. -1.
         -5    1    3    3    0  502  0.16336660041E+02 -0.31401092719E+02  0.34722349344E+03  0.34905466546E+03  0.47000000000E+01 0.  1.
<mgrwt>
<rscale>  0 0.97166925E+02</rscale>
<asrwt>0</asrwt>
<pdfrwt beam="1">  1        2 0.17166168E+00 0.97193207E+02</pdfrwt>
<pdfrwt beam="2">  1       -2 0.15225122E-02 0.97193207E+02</pdfrwt>
<totfact> 0.23958376E+04</totfact>
</mgrwt>
</event>
<event>
 8    1  0.6396648E-004  0.9176433E+02  0.7546771E-02  0.1298649E+00
          3   -1    0    0  501    0  0.00000000000E+00  0.00000000000E+00  0.50533301434E+02  0.50533301434E+02  0.00000000000E+00 0. -1.
         -3   -1    0    0    0  501 -0.00000000000E+00 -0.00000000000E+00 -0.34002804408E+03  0.34002804408E+03  0.00000000000E+00 0.  1.
         23    2    1    2    0    0  0.52756603856E+01 -0.88306221038E+01 -0.52698444563E+01  0.91890145367E+02  0.91160381064E+02 0.  0.
         23    2    1    2    0    0 -0.52756603856E+01  0.88306221038E+01 -0.28422489819E+03  0.29867120015E+03  0.91185966940E+02 0.  0.
          5    1    4    4  502    0  0.26272140490E+02 -0.28784051656E+02 -0.16588613654E+03  0.17046714432E+03  0.47000000000E+01 0. -1.
         -5    1    4    4    0  502 -0.31547800876E+02  0.37614673760E+02 -0.11833876165E+03  0.12820405583E+03  0.47000000000E+01 0.  1.
          5    1    3    3  503    0 -0.41123984385E+02 -0.16335709920E+02 -0.21733788274E+01  0.44551667599E+02  0.47000000000E+01 0.  1.
         -5    1    3    3    0  503  0.46399644771E+02  0.75050878161E+01 -0.30964656289E+01  0.47338477768E+02  0.47000000000E+01 0. -1.
<mgrwt>
<rscale>  0 0.91757977E+02</rscale>
<asrwt>0</asrwt>
<pdfrwt beam="1">  1        3 0.77743543E-02 0.91764334E+02</pdfrwt>
<pdfrwt beam="2">  1       -3 0.52312005E-01 0.91764334E+02</pdfrwt>
<totfact> 0.88052084E+02</totfact>
</mgrwt>
</event>
<event>
 8    1  0.6396648E-004  0.9953496E+02  0.7546771E-02  0.1282561E+00
         -3   -1    0    0    0  501 -0.00000000000E+00  0.00000000000E+00  0.55689199740E+02  0.55689199740E+02  0.00000000000E+00 0.  1.
          3   -1    0    0  501    0  0.00000000000E+00 -0.00000000000E+00 -0.18545419763E+03  0.18545419763E+03  0.00000000000E+00 0. -1.
         23    2    1    2    0    0 -0.32703328376E+02  0.10780511903E+01 -0.35198567877E+02  0.10557531311E+03  0.94002859934E+02 0.  0.
         23    2    1    2    0    0  0.32703328376E+02 -0.10780511903E+01 -0.94566430015E+02  0.13556808427E+03  0.91461608911E+02 0.  0.
          5    1    4    4  502    0  0.64548635989E+02  0.27412236127E+00 -0.58976453286E+02  0.87560913616E+02  0.47000000000E+01 0. -1.
         -5    1    3    3    0  503 -0.44347456630E+02 -0.37217797723E+02 -0.12844388221E+02  0.59488903887E+02  0.47000000000E+01 0.  1.
          5    1    3    3  503    0  0.11644128253E+02  0.38295848913E+02 -0.22354179656E+02  0.46086409220E+02  0.47000000000E+01 0. -1.
         -5    1    4    4    0  502 -0.31845307613E+02 -0.13521735515E+01 -0.35589976729E+02  0.48007170650E+02  0.47000000000E+01 0.  1.
<mgrwt>
<rscale>  0 0.98930366E+02</rscale>
<asrwt>0</asrwt>
<pdfrwt beam="1">  1        3 0.28531416E-01 0.99534956E+02</pdfrwt>
<pdfrwt beam="2">  1       -3 0.85675690E-02 0.99534956E+02</pdfrwt>
<totfact> 0.24237536E+03</totfact>
</mgrwt>
</event>
<event>
 7    1  0.6396648E-004  0.3239910E+03  0.7546771E-02  0.1110779E+00
          1   -1    0    0  501    0  0.00000000000E+00  0.00000000000E+00  0.10511656850E+04  0.10511656850E+04  0.00000000000E+00 0. -1.
         -1   -1    0    0    0  501 -0.00000000000E+00 -0.00000000000E+00 -0.58135255903E+02  0.58135255903E+02  0.00000000000E+00 0.  1.
         23    2    1    2    0    0 -0.67643552909E+02  0.42985536442E+02  0.96158887066E+02  0.15570317343E+03  0.92593412624E+02 0.  0.
          5    1    3    3  502    0 -0.15565014042E+02  0.63939233067E+02  0.55771862458E+02  0.86389153424E+02  0.47000000000E+01 0. -1.
         -5    1    3    3    0  502 -0.52078538867E+02 -0.20953696625E+02  0.40387024608E+02  0.69314020007E+02  0.47000000000E+01 0.  1.
          5    1    1    2  503    0  0.71421095787E+02  0.11854395194E+03  0.59790625130E+03  0.61373252872E+03  0.47000000000E+01 0. -1.
         -5    1    1    2    0  503 -0.37775428776E+01 -0.16152948838E+03  0.29896529069E+03  0.33986523871E+03  0.47000000000E+01 0.  1.
<mgrwt>
<rscale>  0 0.25403878E+03</rscale>
<asrwt>0</asrwt>
<pdfrwt beam="1">  1        1 0.16171778E+00 0.32399096E+03</pdfrwt>
<pdfrwt beam="2">  1       -1 0.89438863E-02 0.32399096E+03</pdfrwt>
<totfact> 0.10611910E+03</totfact>
</mgrwt>
</event>
<event>
 8    1  0.6396648E-004  0.1013337E+03  0.7546771E-02  0.1277886E+00
         -1   -1    0    0    0  501 -0.00000000000E+00  0.00000000000E+00  0.24169870496E+02  0.24169870496E+02  0.00000000000E+00 0.  1.
          1   -1    0    0  501    0  0.00000000000E+00 -0.00000000000E+00 -0.49756548589E+03  0.49756548589E+03  0.00000000000E+00 0. -1.
         23    2    1    2    0    0 -0.43509737471E+02 -0.28846094256E+01 -0.13565372209E+03  0.16932353249E+03  0.91471897934E+02 0.  0.
         23    2    1    2    0    0  0.43509737471E+02  0.28846094256E+01 -0.33774189330E+03  0.35241182390E+03  0.90681248909E+02 0.  0.
          5    1    3    3  502    0  0.22265200423E+02 -0.17885126122E+02 -0.66860018316E+02  0.72855809209E+02  0.47000000000E+01 0. -1.
         -5    1    3    3    0  502 -0.65774937894E+02  0.15000516697E+02 -0.68793703778E+02  0.96467723284E+02  0.47000000000E+01 0.  1.
          5    1    4    4  503    0  0.30903790050E+02  0.38481228359E+02 -0.27173864915E+03  0.27622424336E+03  0.47000000000E+01 0. -1.
         -5    1    4    4    0  503  0.12605947422E+02 -0.35596618934E+02 -0.66003244152E+02  0.76187580539E+02  0.47000000000E+01 0.  1.
<mgrwt>
<rscale>  0 0.10115498E+03</rscale>
<asrwt>0</asrwt>
<pdfrwt beam="1">  1        1 0.76548533E-01 0.10133374E+03</pdfrwt>
<pdfrwt beam="2">  1       -1 0.37184418E-02 0.10133374E+03</pdfrwt>
<totfact> 0.11566410E+04</totfact>
</mgrwt>
</event>
<event>
 8    1  0.6396648E-004  0.9595177E+02  0.7546771E-02  0.1300551E+00
          2   -1    0    0  501    0  0.00000000000E+00  0.00000000000E+00  0.36555384380E+03  0.36555384380E+03  0.00000000000E+00 0. -1.
         -2   -1    0    0    0  501 -0.00000000000E+00 -0.00000000000E+00 -0.23000723696E+02  0.23000723696E+02  0.00000000000E+00 0.  1.
         23    2    1    2    0    0  0.11477155856E+02 -0.18723356871E+02  0.25042531365E+03  0.26817826073E+03  0.93404778305E+02 0.  0.
         23    2    1    2    0    0 -0.11477155856E+02  0.18723356871E+02  0.92127806446E+02  0.12037630676E+03  0.74300964395E+02 0.  0.
          5    1    4    4  502    0 -0.12094591934E+02  0.47017023049E+02  0.59178474321E+02  0.76688078822E+02  0.47000000000E+01 0.  1.
         -5    1    4    4    0  502  0.61743607775E+00 -0.28293666177E+02  0.32949332125E+02  0.43688227940E+02  0.47000000000E+01 0. -1.
          5    1    3    3  503    0  0.36833278652E+02 -0.39941026288E+00  0.22371212483E+03  0.22677313496E+03  0.47000000000E+01 0. -1.
         -5    1    3    3    0  503 -0.25356122796E+02 -0.18323946608E+02  0.26713188821E+02  0.41405125764E+02  0.47000000000E+01 0.  1.
<mgrwt>
<rscale>  0 0.90956780E+02</rscale>
<asrwt>0</asrwt>
<pdfrwt beam="1">  1        2 0.56239048E-01 0.95951768E+02</pdfrwt>
<pdfrwt beam="2">  1       -2 0.35385732E-02 0.95951768E+02</pdfrwt>
<totfact> 0.26193833E+04</totfact>
</mgrwt>
</event>
<event>
 8    1  0.6396648E-004  0.9328191E+02  0.7546771E-02  0.1296496E+00
         -2   -1    0    0    0  501 -0.00000000000E+00  0.00000000000E+00  0.98164554132E+01  0.98164554132E+01  0.00000000000E+00 0.  1.
          2   -1    0    0  501    0  0.00000000000E+00 -0.00000000000E+00 -0.97644882686E+03  0.97644882686E+03  0.00000000000E+00 0. -1.
         23    2    1    2    0    0  0.38377855143E+01 -0.10171656247E+02 -0.64524454311E+03  0.65161374519E+03  0.90231709040E+02 0.  0.
         23    2    1    2    0    0 -0.38377855143E+01  0.10171656247E+02 -0.32138782834E+03  0.33465153709E+03  0.92646229724E+02 0.  0.
          5    1    3    3  502    0 -0.18818859412E+02  0.32880452277E+02 -0.37920146906E+03  0.38111824641E+03  0.47000000000E+01 0. -1.
         -5    1    3    3    0  502  0.22656644926E+02 -0.43052108525E+02 -0.26604307405E+03  0.27049549878E+03  0.47000000000E+01 0.  1.
          5    1    4    4  503    0 -0.35209728416E+02  0.36948347606E+02 -0.19485018079E+03  0.20147850585E+03  0.47000000000E+01 0. -1.
         -5    1    4    4    0  503  0.31371942902E+02 -0.26776691359E+02 -0.12653764755E+03  0.13317303124E+03  0.47000000000E+01 0.  1.
<mgrwt>
<rscale>  0 0.92676638E+02</rscale>
<asrwt>0</asrwt>
<pdfrwt beam="1">  1        2 0.15022288E+00 0.93281912E+02</pdfrwt>
<pdfrwt beam="2">  1       -2 0.15102240E-02 0.93281912E+02</pdfrwt>
<totfact> 0.29049931E+04</totfact>
</mgrwt>
</event>
<event>
 8    1  0.6396648E-004  0.1411329E+03  0.7546771E-02  0.1211873E+00
         -3   -1    0    0    0  501 -0.00000000000E+00  0.00000000000E+00  0.77009266330E+02  0.77009266330E+02  0.00000000000E+00 0.  1.
          3   -1    0    0  501    0  0.00000000000E+00 -0.00000000000E+00 -0.25899173438E+03  0.25899173438E+03  0.00000000000E+00 0. -1.
         23    2    1    2    0    0 -0.21881853150E+02 -0.10956839257E+03 -0.82356806849E+02  0.16324748141E+03  0.85924667036E+02 0.  0.
         23    2    1    2    0    0  0.21881853150E+02  0.10956839257E+03 -0.99625661198E+02  0.17275351929E+03  0.86223302596E+02 0.  0.
          5    1    3    3  502    0  0.31878302277E+02 -0.27073398895E+02 -0.19948093989E+02  0.46574795089E+02  0.47000000000E+01 0. -1.
         -5    1    4    4    0  503  0.14156905888E+02  0.33304762346E+02  0.10972301414E+02  0.38106516209E+02  0.47000000000E+01 0.  1.
          5    1    4    4  503    0  0.77249472621E+01  0.76263630227E+02 -0.11059796261E+03  0.13464700308E+03  0.47000000000E+01 0. -1.
         -5    1    3    3    0  502 -0.53760155427E+02 -0.82494993678E+02 -0.62408712859E+02  0.11667268632E+03  0.47000000000E+01 0.  1.
<mgrwt>
<rscale>  0 0.14108735E+03</rscale>
<asrwt>0</asrwt>
<pdfrwt beam="1">  1        3 0.39844883E-01 0.14113294E+03</pdfrwt>
<pdfrwt beam="2">  1       -3 0.11847579E-01 0.14113294E+03</pdfrwt>
<totfact> 0.80755804E+02</totfact>
</mgrwt>
</event>
<event>
 8    1  0.6396648E-004  0.1583548E+03  0.7546771E-02  0.1191126E+00
         -1   -1    0    0    0  501 -0.00000000000E+00  0.00000000000E+00  0.32087711085E+03  0.32087711085E+03  0.00000000000E+00 0.  1.
          1   -1    0    0  501    0  0.00000000000E+00 -0.00000000000E+00 -0.77289016885E+02  0.77289016885E+02  0.00000000000E+00 0. -1.
         23    2    1    2    0    0  0.30110454159E+02 -0.12427396010E+03  0.12954918687E+03  0.20459532347E+03  0.93410909192E+02 0.  0.
         23    2    1    2    0    0 -0.30110454159E+02  0.12427396010E+03  0.11403890710E+03  0.19357080427E+03  0.90078450944E+02 0.  0.
          5    1    3    3  502    0  0.46316993096E+02 -0.17750806446E+02  0.32333720616E+02  0.59396249611E+02  0.47000000000E+01 0. -1.
         -5    1    3    3    0  502 -0.16206538937E+02 -0.10652315366E+03  0.97215466253E+02  0.14519907385E+03  0.47000000000E+01 0.  1.
          5    1    4    4  503    0  0.28382630728E+01  0.87879188529E+02  0.24578309745E+02  0.91416578495E+02  0.47000000000E+01 0. -1.
         -5    1    4    4    0  503 -0.32948717232E+02  0.36394771574E+02  0.89460597352E+02  0.10215422578E+03  0.47000000000E+01 0.  1.
<mgrwt>
<rscale>  0 0.15786693E+03</rscale>
<asrwt>0</asrwt>
<pdfrwt beam="1">  1        1 0.11890618E-01 0.15835484E+03</pdfrwt>
<pdfrwt beam="2">  1       -1 0.49365709E-01 0.15835484E+03</pdfrwt>
<totfact> 0.20904815E+03</totfact>
</mgrwt>
</event>
<event>
 8    1  0.6396648E-004  0.1244857E+03  0.7546771E-02  0.1236536E+00
          1   -1    0    0  501    0  0.00000000000E+00  0.00000000000E+00  0.13201248892E+03  0.13201248892E+03  0.00000000000E+00 0. -1.
         -1   -1    0    0    0  501 -0.00000000000E+00 -0.00000000000E+00 -0.11689454858E+03  0.11689454858E+03  0.00000000000E+00 0.  1.
         23    2    1    2    0    0 -0.33799433599E+02  0.75352838434E+02 -0.43225669250E+01  0.12456068242E+03  0.93146266954E+02 0.  0.
         23    2    1    2    0    0  0.33799433599E+02 -0.75352838434E+02  0.19440507261E+02  0.12434635508E+03  0.90904514337E+02 0.  0.
          5    1    3    3  502    0 -0.43426137243E+02 -0.21428229644E+01 -0.13555903163E+02  0.45785080503E+02  0.47000000000E+01 0. -1.
         -5    1    4    4    0  503  0.63734467597E+02 -0.55445060803E+02  0.23640624907E+02  0.87847631005E+02  0.47000000000E+01 0. -1.
          5    1    4    4  503    0 -0.29935033998E+02 -0.19907777632E+02 -0.42001176460E+01  0.36498724072E+02  0.47000000000E+01 0.  1.
         -5    1    3    3    0  502  0.96267036442E+01  0.77495661399E+02  0.92333362380E+01  0.78775601913E+02  0.47000000000E+01 0.  1.
<mgrwt>
<rscale>  0 0.12406645E+03</rscale>
<asrwt>0</asrwt>
<pdfrwt beam="1">  1        1 0.20309614E-01 0.12448566E+03</pdfrwt>
<pdfrwt beam="2">  1       -1 0.17983777E-01 0.12448566E+03</pdfrwt>
<totfact> 0.56832630E+03</totfact>
</mgrwt>
</event>
<event>
 8    1  0.6396648E-004  0.1015450E+03  0.7546771E-02  0.1277133E+00
          1   -1    0    0  501    0  0.00000000000E+00  0.00000000000E+00  0.88299410918E+02  0.88299410918E+02  0.00000000000E+00 0. -1.
         -1   -1    0    0    0  501 -0.00000000000E+00 -0.00000000000E+00 -0.50751448482E+03  0.50751448482E+03  0.00000000000E+00 0.  1.
         23    2    1    2    0    0 -0.32958521997E+02 -0.29879210483E+02 -0.47101846948E+03  0.48181839076E+03  0.91167602192E+02 0.  0.
         23    2    1    2    0    0  0.32958521997E+02  0.29879210483E+02  0.51803395576E+02  0.11399550498E+03  0.91281717620E+02 0.  0.
          5    1    3    3  502    0  0.27380848239E+02 -0.21624853462E+02 -0.25179332721E+03  0.25424262971E+03  0.47000000000E+01 0. -1.
         -5    1    3    3    0  502 -0.60339370236E+02 -0.82543570207E+01 -0.21922514228E+03  0.22757576105E+03  0.47000000000E+01 0.  1.
          5    1    4    4  503    0 -0.22901782077E+02  0.14049566984E+02  0.48510291342E+02  0.55652675774E+02  0.47000000000E+01 0.  1.
         -5    1    4    4    0  503  0.55860304074E+02  0.15829643499E+02  0.32931042343E+01  0.58342829208E+02  0.47000000000E+01 0. -1.
<mgrwt>
<rscale>  0 0.10151933E+03</rscale>
<asrwt>0</asrwt>
<pdfrwt beam="1">  1        1 0.13584525E-01 0.10154498E+03</pdfrwt>
<pdfrwt beam="2">  1       -1 0.78079151E-01 0.10154498E+03</pdfrwt>
<totfact> 0.72037591E+02</totfact>
</mgrwt>
</event>
<event>
 7    1  0.6396648E-004  0.2704328E+03  0.7546771E-02  0.1101032E+00
         -1   -1    0    0    0  501 -0.00000000000E+00  0.00000000000E+00  0.59479207523E+02  0.59479207523E+02  0.00000000000E+00 0.  1.
          1   -1    0    0  501    0  0.00000000000E+00 -0.00000000000E+00 -0.30739259951E+03  0.30739259951E+03  0.00000000000E+00 0. -1.
         23    2    1    2    0    0 -0.35508312908E+02 -0.96306384491E+01 -0.13295186432E+03  0.16519211751E+03  0.90877103713E+02 0.  0.
          5    1    1    2  502    0 -0.40838446698E+02 -0.42747012445E+02 -0.86169860981E+02  0.10460602632E+03  0.47000000000E+01 0. -1.
         -5    1    1    2    0  502  0.76346759606E+02  0.52377650894E+02 -0.28791666680E+02  0.97073663193E+02  0.47000000000E+01 0.  1.
          5    1    3    3  503    0 -0.25598891313E+02 -0.39623991586E+02 -0.12287688780E+03  0.13170491069E+03  0.47000000000E+01 0. -1.
         -5    1    3    3    0  503 -0.99094215954E+01  0.29993353136E+02 -0.10074976525E+02  0.33487206821E+02  0.47000000000E+01 0.  1.
<mgrwt>
<rscale>  0 0.27043275E+03</rscale>
<asrwt>0</asrwt>
<pdfrwt beam="1">  1        1 0.47291168E-01 0.27043275E+03</pdfrwt>
<pdfrwt beam="2">  1       -1 0.91506474E-02 0.27043275E+03</pdfrwt>
<totfact> 0.58988614E+03</totfact>
</mgrwt>
</event>
<event>
 8    1  0.6396648E-004  0.9192337E+02  0.7546771E-02  0.1298923E+00
         -1   -1    0    0    0  501 -0.00000000000E+00  0.00000000000E+00  0.10283740566E+03  0.10283740566E+03  0.00000000000E+00 0.  1.
          1   -1    0    0  501    0  0.00000000000E+00 -0.00000000000E+00 -0.86086623748E+02  0.86086623748E+02  0.00000000000E+00 0. -1.
         23    2    1    2    0    0  0.77086580540E+01 -0.80200841339E+01  0.30900521159E+02  0.95918006322E+02  0.90120344930E+02 0.  0.
         23    2    1    2    0    0 -0.77086580540E+01  0.80200841339E+01 -0.14149739243E+02  0.93006023090E+02  0.91247794778E+02 0.  0.
          5    1    4    4  502    0  0.21565896903E+02 -0.25125966355E+02  0.18141275760E+02  0.38047312398E+02  0.47000000000E+01 0. -1.
         -5    1    4    4    0  502 -0.29274554957E+02  0.33146050489E+02 -0.32291015003E+02  0.54958710692E+02  0.47000000000E+01 0.  1.
          5    1    3    3  503    0  0.20351819112E+02 -0.45460122103E+02  0.10192066443E+02  0.51056708287E+02  0.47000000000E+01 0. -1.
         -5    1    3    3    0  503 -0.12643161058E+02  0.37440037969E+02  0.20708454716E+02  0.44861298035E+02  0.47000000000E+01 0.  1.
<mgrwt>
<rscale>  0 0.91642314E+02</rscale>
<asrwt>0</asrwt>
<pdfrwt beam="1">  1        1 0.13244096E-01 0.91923366E+02</pdfrwt>
<pdfrwt beam="2">  1       -1 0.15821139E-01 0.91923366E+02</pdfrwt>
<totfact> 0.11706773E+04</totfact>
</mgrwt>
</event>
<event>
 7    1  0.6396648E-004  0.1809566E+03  0.7546771E-02  0.1190852E+00
          1   -1    0    0  501    0  0.00000000000E+00  0.00000000000E+00  0.55144406535E+02  0.55144406535E+02  0.00000000000E+00 0. -1.
         -1   -1    0    0    0  501 -0.00000000000E+00 -0.00000000000E+00 -0.38102699341E+03  0.38102699341E+03  0.00000000000E+00 0.  1.
         23    2    1    2    0    0 -0.49942366369E+02 -0.80799606851E+01 -0.15361814286E+03  0.18633081769E+03  0.92526288605E+02 0.  0.
          5    1    3    3  502    0  0.21872059322E+00 -0.39426563339E+02 -0.31949569151E+02  0.50964367006E+02  0.47000000000E+01 0. -1.
         -5    1    1    2    0  503 -0.72778952417E+01  0.84613494128E+02 -0.74852388418E+02  0.11330216767E+03  0.47000000000E+01 0.  1.
          5    1    1    2  503    0  0.57220261610E+02 -0.76533533443E+02 -0.97412055598E+02  0.13653841458E+03  0.47000000000E+01 0. -1.
         -5    1    3    3    0  502 -0.50161086962E+02  0.31346602654E+02 -0.12166857371E+03  0.13536645068E+03  0.47000000000E+01 0.  1.
<mgrwt>
<rscale>  0 0.15810550E+03</rscale>
<asrwt>0</asrwt>
<pdfrwt beam="1">  1        1 0.84837546E-02 0.18095656E+03</pdfrwt>
<pdfrwt beam="2">  1       -1 0.58619539E-01 0.18095656E+03</pdfrwt>
<totfact> 0.23937055E+03</totfact>
</mgrwt>
</event>
<event>
 8    1  0.6396648E-004  0.1005641E+03  0.7546771E-02  0.1279838E+00
          1   -1    0    0  501    0  0.00000000000E+00  0.00000000000E+00  0.10927040279E+04  0.10927040279E+04  0.00000000000E+00 0. -1.
         -1   -1    0    0    0  501 -0.00000000000E+00 -0.00000000000E+00 -0.91561851633E+01  0.91561851633E+01  0.00000000000E+00 0.  1.
         23    2    1    2    0    0 -0.16246978288E+02 -0.35661730565E+02  0.51544038407E+03  0.52515894591E+03  0.92614284066E+02 0.  0.
         23    2    1    2    0    0  0.16246978288E+02  0.35661730565E+02  0.56810745865E+03  0.57670126713E+03  0.91118294584E+02 0.  0.
          5    1    4    4  502    0  0.41799562660E+02 -0.12641176063E+02  0.22656429186E+03  0.23078230244E+03  0.47000000000E+01 0. -1.
         -5    1    4    4    0  502 -0.25552584372E+02  0.48302906628E+02  0.34154316678E+03  0.34591896469E+03  0.47000000000E+01 0.  1.
          5    1    3    3  503    0 -0.37291667496E+02 -0.54982536423E+02  0.42528737080E+03  0.43047088815E+03  0.47000000000E+01 0. -1.
         -5    1    3    3    0  503  0.21044689208E+02  0.19320805858E+02  0.90153013263E+02  0.94688057765E+02  0.47000000000E+01 0.  1.
<mgrwt>
<rscale>  0 0.10021827E+03</rscale>
<asrwt>0</asrwt>
<pdfrwt beam="1">  1        1 0.16810821E+00 0.10056405E+03</pdfrwt>
<pdfrwt beam="2">  1       -1 0.14086447E-02 0.10056405E+03</pdfrwt>
<totfact> 0.14690153E+04</totfact>
</mgrwt>
</event>
<event>
 8    1  0.6396648E-004  0.9780497E+02  0.7546771E-02  0.1285997E+00
          1   -1    0    0  501    0  0.00000000000E+00  0.00000000000E+00  0.79608476698E+02  0.79608476698E+02  0.00000000000E+00 0. -1.
         -1   -1    0    0    0  501 -0.00000000000E+00 -0.00000000000E+00 -0.15098015776E+03  0.15098015776E+03  0.00000000000E+00 0.  1.
         23    2    1    2    0    0  0.18025524914E+01 -0.35642921822E+02 -0.89927331303E+02  0.13286360316E+03  0.91061215990E+02 0.  0.
         23    2    1    2    0    0 -0.18025524914E+01  0.35642921822E+02  0.18555650237E+02  0.97725031304E+02  0.89062913248E+02 0.  0.
          5    1    4    4  502    0  0.42763526631E+02  0.98358525074E+01  0.62871866893E+01  0.44576697062E+02  0.47000000000E+01 0. -1.
         -5    1    4    4    0  502 -0.44566079122E+02  0.25807069314E+02  0.12268463547E+02  0.53148334243E+02  0.47000000000E+01 0.  1.
          5    1    3    3  503    0  0.43529589209E+02 -0.27864951284E+02 -0.32266533067E+02  0.61110553941E+02  0.47000000000E+01 0. -1.
         -5    1    3    3    0  503 -0.41727036718E+02 -0.77779705373E+01 -0.57660798235E+02  0.71753049218E+02  0.47000000000E+01 0.  1.
<mgrwt>
<rscale>  0 0.97337188E+02</rscale>
<asrwt>0</asrwt>
<pdfrwt beam="1">  1        1 0.12247458E-01 0.97804970E+02</pdfrwt>
<pdfrwt beam="2">  1       -1 0.23227717E-01 0.97804970E+02</pdfrwt>
<totfact> 0.70875698E+03</totfact>
</mgrwt>
</event>
<event>
 8    1  0.6396648E-004  0.1029308E+03  0.7546771E-02  0.1275886E+00
         -1   -1    0    0    0  501 -0.00000000000E+00  0.00000000000E+00  0.72195567979E+03  0.72195567979E+03  0.00000000000E+00 0.  1.
          1   -1    0    0  501    0  0.00000000000E+00 -0.00000000000E+00 -0.15517183087E+02  0.15517183087E+02  0.00000000000E+00 0. -1.
         23    2    1    2    0    0 -0.63855274275E+01  0.48323505053E+02  0.24176176103E+03  0.26153250520E+03  0.87031983095E+02 0.  0.
         23    2    1    2    0    0  0.63855274275E+01 -0.48323505053E+02  0.46467673568E+03  0.47594035768E+03  0.90657703939E+02 0.  0.
          5    1    4    4  502    0 -0.44680738005E+01  0.22840772227E+02  0.54200302930E+02  0.59172860308E+02  0.47000000000E+01 0. -1.
         -5    1    4    4    0  502  0.10853601228E+02 -0.71164277280E+02  0.41047643275E+03  0.41676749737E+03  0.47000000000E+01 0.  1.
          5    1    3    3  503    0  0.37456696976E+02  0.84776387052E+01  0.11919941828E+03  0.12532144998E+03  0.47000000000E+01 0. -1.
         -5    1    3    3    0  503 -0.43842224403E+02  0.39845866347E+02  0.12256234274E+03  0.13621105522E+03  0.47000000000E+01 0.  1.
<mgrwt>
<rscale>  0 0.10212680E+03</rscale>
<asrwt>0</asrwt>
<pdfrwt beam="1">  1        1 0.23872595E-02 0.10293083E+03</pdfrwt>
<pdfrwt beam="2">  1       -1 0.11107008E+00 0.10293083E+03</pdfrwt>
<totfact> 0.35184309E+03</totfact>
</mgrwt>
</event>
<event>
 8    1  0.6396648E-004  0.1222262E+03  0.7546771E-02  0.1239536E+00
         -2   -1    0    0    0  501 -0.00000000000E+00  0.00000000000E+00  0.19852009721E+03  0.19852009721E+03  0.00000000000E+00 0.  1.
          2   -1    0    0  501    0  0.00000000000E+00 -0.00000000000E+00 -0.81722898730E+02  0.81722898730E+02  0.00000000000E+00 0. -1.
         23    2    1    2    0    0 -0.21921083028E+02  0.78795360109E+02  0.18627408857E+02  0.12347391087E+03  0.90606752776E+02 0.  0.
         23    2    1    2    0    0  0.21921083028E+02 -0.78795360109E+02  0.98169789623E+02  0.15676908507E+03  0.90829487415E+02 0.  0.
          5    1    3    3  502    0  0.24321357820E+02  0.46328664068E+02 -0.18505492467E+02  0.55699343012E+02  0.47000000000E+01 0. -1.
         -5    1    3    3    0  502 -0.46242440847E+02  0.32466696041E+02  0.37132901324E+02  0.67774567856E+02  0.47000000000E+01 0.  1.
          5    1    4    4  503    0 -0.32874847538E+02 -0.43582342391E+02  0.59449684239E+02  0.80848816473E+02  0.47000000000E+01 0.  1.
         -5    1    4    4    0  503  0.54795930565E+02 -0.35213017717E+02  0.38720105385E+02  0.75920268600E+02  0.47000000000E+01 0. -1.
<mgrwt>
<rscale>  0 0.12218480E+03</rscale>
<asrwt>0</asrwt>
<pdfrwt beam="1">  1        2 0.12572754E-01 0.12222618E+03</pdfrwt>
<pdfrwt beam="2">  1       -2 0.30541553E-01 0.12222618E+03</pdfrwt>
<totfact> 0.45216984E+03</totfact>
</mgrwt>
</event>
<event>
 8    1  0.6396648E-004  0.1189231E+03  0.7546771E-02  0.1245983E+00
         -1   -1    0    0    0  501 -0.00000000000E+00  0.00000000000E+00  0.43032540878E+03  0.43032540878E+03  0.00000000000E+00 0.  1.
          1   -1    0    0  501    0  0.00000000000E+00 -0.00000000000E+00 -0.70288737950E+02  0.70288737950E+02  0.00000000000E+00 0. -1.
         23    2    1    2    0    0  0.38202284132E+02  0.62804706743E+02  0.36530344828E+03  0.38417353049E+03  0.93481797678E+02 0.  0.
         23    2    1    2    0    0 -0.38202284132E+02 -0.62804706743E+02 -0.52667774519E+01  0.11644061624E+03  0.90148945999E+02 0.  0.
          5    1    4    4  502    0 -0.41662943957E+02 -0.34915001948E+02 -0.42779818597E+02  0.69332972960E+02  0.47000000000E+01 0. -1.
         -5    1    3    3    0  503  0.52068481801E+02  0.24765282085E+02  0.31067323048E+03  0.31601327841E+03  0.47000000000E+01 0.  1.
          5    1    3    3  503    0 -0.13866197669E+02  0.38039424657E+02  0.54630217802E+02  0.68160252077E+02  0.47000000000E+01 0. -1.
         -5    1    4    4    0  502  0.34606598253E+01 -0.27889704794E+02  0.37513041145E+02  0.47107643285E+02  0.47000000000E+01 0.  1.
<mgrwt>
<rscale>  0 0.11826724E+03</rscale>
<asrwt>0</asrwt>
<pdfrwt beam="1">  1        1 0.10813652E-01 0.11892305E+03</pdfrwt>
<pdfrwt beam="2">  1       -1 0.66203907E-01 0.11892305E+03</pdfrwt>
<totfact> 0.13496262E+03</totfact>
</mgrwt>
</event>
<event>
 8    1  0.6396648E-004  0.9291397E+02  0.7546771E-02  0.1296638E+00
          2   -1    0    0  501    0  0.00000000000E+00  0.00000000000E+00  0.57381213640E+02  0.57381213640E+02  0.00000000000E+00 0. -1.
         -2   -1    0    0    0  501 -0.00000000000E+00 -0.00000000000E+00 -0.16148239022E+03  0.16148239022E+03  0.00000000000E+00 0.  1.
         23    2    1    2    0    0 -0.21856281703E+02 -0.23783397720E+01 -0.82730643250E+02  0.12352366140E+03  0.89052692510E+02 0.  0.
         23    2    1    2    0    0  0.21856281703E+02  0.23783397720E+01 -0.21370533332E+02  0.95339942461E+02  0.90275419598E+02 0.  0.
          5    1    3    3  502    0 -0.41537219842E+02  0.14246851422E+02 -0.87195870140E+01  0.45015937237E+02  0.47000000000E+01 0. -1.
         -5    1    3    3    0  502  0.19680938138E+02 -0.16625191194E+02 -0.74011056236E+02  0.78507724164E+02  0.47000000000E+01 0.  1.
          5    1    4    4  503    0  0.42112393749E+02  0.30261992519E+02  0.40944785759E+01  0.52231184682E+02  0.47000000000E+01 0. -1.
         -5    1    4    4    0  503 -0.20256112045E+02 -0.27883652747E+02 -0.25465011908E+02  0.43108757778E+02  0.47000000000E+01 0.  1.
<mgrwt>
<rscale>  0 0.92615645E+02</rscale>
<asrwt>0</asrwt>
<pdfrwt beam="1">  1        2 0.88278790E-02 0.92913965E+02</pdfrwt>
<pdfrwt beam="2">  1       -2 0.24843445E-01 0.92913965E+02</pdfrwt>
<totfact> 0.97629522E+03</totfact>
</mgrwt>
</event>
<event>
 8    1  0.6396648E-004  0.1470354E+03  0.7546771E-02  0.1206126E+00
          1   -1    0    0  501    0  0.00000000000E+00  0.00000000000E+00  0.73405070564E+03  0.73405070564E+03  0.00000000000E+00 0. -1.
         -1   -1    0    0    0  501 -0.00000000000E+00 -0.00000000000E+00 -0.36215554580E+02  0.36215554580E+02  0.00000000000E+00 0.  1.
         23    2    1    2    0    0 -0.11351323296E+03 -0.28207088512E+02  0.17403462598E+03  0.22783208439E+03  0.89098337465E+02 0.  0.
         23    2    1    2    0    0  0.11351323296E+03  0.28207088512E+02  0.52380052508E+03  0.54243417582E+03  0.78657174704E+02 0.  0.
          5    1    3    3  502    0 -0.86830861286E+02 -0.50141274815E+02  0.16270667791E+03  0.19117870945E+03  0.47000000000E+01 0. -1.
         -5    1    4    4    0  503  0.38279794501E+02 -0.60134186407E+01  0.32135001659E+03  0.32371195071E+03  0.47000000000E+01 0.  1.
          5    1    4    4  503    0  0.75233438458E+02  0.34220507153E+02  0.20245050849E+03  0.21872222512E+03  0.47000000000E+01 0. -1.
         -5    1    3    3    0  502 -0.26682371673E+02  0.21934186303E+02  0.11327948070E+02  0.36653374938E+02  0.47000000000E+01 0.  1.
<mgrwt>
<rscale>  0 0.14549071E+03</rscale>
<asrwt>0</asrwt>
<pdfrwt beam="1">  1        1 0.11293087E+00 0.14703540E+03</pdfrwt>
<pdfrwt beam="2">  1       -1 0.55716243E-02 0.14703540E+03</pdfrwt>
<totfact> 0.38398356E+03</totfact>
</mgrwt>
</event>
<event>
 8    1  0.6396648E-004  0.1132193E+03  0.7546771E-02  0.1258490E+00
          4   -1    0    0  501    0  0.00000000000E+00  0.00000000000E+00  0.45886257817E+03  0.45886257817E+03  0.00000000000E+00 0. -1.
         -4   -1    0    0    0  501 -0.00000000000E+00 -0.00000000000E+00 -0.29587994573E+02  0.29587994573E+02  0.00000000000E+00 0.  1.
         23    2    1    2    0    0  0.94820008439E+01 -0.51039260626E+02  0.29301622013E+03  0.31129258150E+03  0.91376427886E+02 0.  0.
         23    2    1    2    0    0 -0.94820008439E+01  0.51039260626E+02  0.13625836347E+03  0.17715799124E+03  0.10061658800E+03 0.  0.
          5    1    4    4  502    0 -0.31366134065E+02  0.86296919996E+01  0.12312679949E+03  0.12743863113E+03  0.47000000000E+01 0. -1.
         -5    1    4    4    0  502  0.21884133221E+02  0.42409568626E+02  0.13131563974E+02  0.49719360115E+02  0.47000000000E+01 0.  1.
          5    1    3    3  503    0 -0.38920757619E+02 -0.18987417060E+02  0.16494404220E+03  0.17059886997E+03  0.47000000000E+01 0. -1.
         -5    1    3    3    0  503  0.48402758462E+02 -0.32051843566E+02  0.12807217793E+03  0.14069371153E+03  0.47000000000E+01 0.  1.
<mgrwt>
<rscale>  0 0.11113068E+03</rscale>
<asrwt>0</asrwt>
<pdfrwt beam="1">  1        4 0.70594238E-01 0.11321931E+03</pdfrwt>
<pdfrwt beam="2">  1       -4 0.45519995E-02 0.11321931E+03</pdfrwt>
<totfact> 0.82815613E+02</totfact>
</mgrwt>
</event>
<event>
 8    1  0.6396648E-004  0.1005390E+03  0.7546771E-02  0.1281403E+00
         -1   -1    0    0    0  501 -0.00000000000E+00  0.00000000000E+00  0.33220364492E+02  0.33220364492E+02  0.00000000000E+00 0.  1.
          1   -1    0    0  501    0  0.00000000000E+00 -0.00000000000E+00 -0.30919592174E+03  0.30919592174E+03  0.00000000000E+00 0. -1.
         23    2    1    2    0    0  0.22975885600E+01 -0.16172906632E+01 -0.10007922216E+03  0.14185886893E+03  0.10049971863E+03 0.  0.
         23    2    1    2    0    0 -0.22975885600E+01  0.16172906632E+01 -0.17589633509E+03  0.20055741730E+03  0.96311278644E+02 0.  0.
          5    1    3    3  502    0  0.46544902724E+02  0.36324713744E+01 -0.80033218032E+02  0.92774073999E+02  0.47000000000E+01 0. -1.
         -5    1    3    3    0  502 -0.44247314164E+02 -0.52497620376E+01 -0.20046004128E+02  0.49084794933E+02  0.47000000000E+01 0.  1.
          5    1    4    4  503    0  0.35863066842E+02 -0.24212710561E+02 -0.12178039747E+03  0.12932505605E+03  0.47000000000E+01 0. -1.
         -5    1    4    4    0  503 -0.38160655402E+02  0.25830001225E+02 -0.54115937622E+02  0.71232361246E+02  0.47000000000E+01 0.  1.
<mgrwt>
<rscale>  0 0.99475550E+02</rscale>
<asrwt>0</asrwt>
<pdfrwt beam="1">  1        1 0.47568602E-01 0.10053899E+03</pdfrwt>
<pdfrwt beam="2">  1       -1 0.51108255E-02 0.10053899E+03</pdfrwt>
<totfact> 0.13161361E+04</totfact>
</mgrwt>
</event>
<event>
 8    1  0.6396648E-004  0.1005752E+03  0.7546771E-02  0.1279289E+00
         -1   -1    0    0    0  501 -0.00000000000E+00  0.00000000000E+00  0.11052595125E+04  0.11052595125E+04  0.00000000000E+00 0.  1.
          1   -1    0    0  501    0  0.00000000000E+00 -0.00000000000E+00 -0.93926733334E+01  0.93926733334E+01  0.00000000000E+00 0. -1.
         23    2    1    2    0    0  0.34371905935E+02  0.24999502769E+02  0.64231750525E+03  0.65008531957E+03  0.90734459332E+02 0.  0.
         23    2    1    2    0    0 -0.34371905935E+02 -0.24999502769E+02  0.45354933393E+03  0.46456686628E+03  0.91153562079E+02 0.  0.
          5    1    4    4  502    0 -0.62306706521E+02 -0.22272260590E+02  0.37917738655E+03  0.38493604630E+03  0.47000000000E+01 0. -1.
         -5    1    4    4    0  502  0.27934800585E+02 -0.27272421794E+01  0.74371947379E+02  0.79630819979E+02  0.47000000000E+01 0.  1.
          5    1    3    3  503    0 -0.23914365716E+02  0.29912136227E+02  0.33507015656E+03  0.33728434977E+03  0.47000000000E+01 0. -1.
         -5    1    3    3    0  503  0.58286271651E+02 -0.49126334580E+01  0.30724734869E+03  0.31280096980E+03  0.47000000000E+01 0.  1.
<mgrwt>
<rscale>  0 0.10048016E+03</rscale>
<asrwt>0</asrwt>
<pdfrwt beam="1">  1        1 0.14450275E-02 0.10057522E+03</pdfrwt>
<pdfrwt beam="2">  1       -1 0.17003982E+00 0.10057522E+03</pdfrwt>
<totfact> 0.24471766E+03</totfact>
</mgrwt>
</event>
<event>
 7    1  0.6396648E-004  0.2392226E+03  0.7546771E-02  0.1120312E+00
         -1   -1    0    0    0  501 -0.00000000000E+00  0.00000000000E+00  0.80341132542E+02  0.80341132542E+02  0.00000000000E+00 0.  1.
          1   -1    0    0  501    0  0.00000000000E+00 -0.00000000000E+00 -0.17807643774E+03  0.17807643774E+03  0.00000000000E+00 0. -1.
         23    2    1    2    0    0  0.19503683480E+02  0.25996349114E+02 -0.27444561829E+02  0.10155324336E+03  0.92215255928E+02 0.  0.
          5    1    1    2  502    0 -0.63813561477E+02 -0.53506580437E+02 -0.61809353649E+02  0.10381527333E+03  0.47000000000E+01 0. -1.
         -5    1    1    2    0  502  0.44309877997E+02  0.27510231324E+02 -0.84813897191E+01  0.53049053593E+02  0.47000000000E+01 0.  1.
          5    1    3    3  503    0 -0.22054630657E+02 -0.16545243156E+02  0.11574418264E+02  0.30268943864E+02  0.47000000000E+01 0. -1.
         -5    1    3    3    0  503  0.41558314137E+02  0.42541592269E+02 -0.39018980093E+02  0.71284299493E+02  0.47000000000E+01 0.  1.
<mgrwt>
<rscale>  0 0.23922260E+03</rscale>
<asrwt>0</asrwt>
<pdfrwt beam="1">  1        1 0.27396375E-01 0.23922260E+03</pdfrwt>
<pdfrwt beam="2">  1       -1 0.12360174E-01 0.23922260E+03</pdfrwt>
<totfact> 0.73150436E+03</totfact>
</mgrwt>
</event>
<event>
 8    1  0.6396648E-004  0.1081390E+03  0.7546771E-02  0.1265056E+00
          1   -1    0    0  501    0  0.00000000000E+00  0.00000000000E+00  0.12305259814E+03  0.12305259814E+03  0.00000000000E+00 0. -1.
         -1   -1    0    0    0  501 -0.00000000000E+00 -0.00000000000E+00 -0.96571728199E+02  0.96571728199E+02  0.00000000000E+00 0.  1.
         23    2    1    2    0    0 -0.56990237389E+02 -0.31341889215E+01 -0.73853827446E+01  0.10630634029E+03  0.89379996697E+02 0.  0.
         23    2    1    2    0    0  0.56990237389E+02  0.31341889215E+01  0.33866252690E+02  0.11331798605E+03  0.91849510583E+02 0.  0.
          5    1    4    4  502    0  0.44037388869E+02  0.32229463761E+02 -0.13156033837E+02  0.56331174132E+02  0.47000000000E+01 0. -1.
         -5    1    3    3    0  503 -0.27732345991E+02 -0.45712368139E+02 -0.89171886552E+01  0.54408729709E+02  0.47000000000E+01 0.  1.
          5    1    3    3  503    0 -0.29257891398E+02  0.42578179218E+02  0.15318059106E+01  0.51897610580E+02  0.47000000000E+01 0. -1.
         -5    1    4    4    0  502  0.12952848520E+02 -0.29095274840E+02  0.47022286527E+02  0.56986811922E+02  0.47000000000E+01 0.  1.
<mgrwt>
<rscale>  0 0.10761279E+03</rscale>
<asrwt>0</asrwt>
<pdfrwt beam="1">  1        1 0.18931169E-01 0.10813900E+03</pdfrwt>
<pdfrwt beam="2">  1       -1 0.14857189E-01 0.10813900E+03</pdfrwt>
<totfact> 0.82988542E+03</totfact>
</mgrwt>
</event>
<event>
 8    1  0.6396648E-004  0.9402430E+02  0.7546771E-02  0.1294701E+00
         -1   -1    0    0    0  501 -0.00000000000E+00  0.00000000000E+00  0.68214968690E+02  0.68214968690E+02  0.00000000000E+00 0.  1.
          1   -1    0    0  501    0  0.00000000000E+00 -0.00000000000E+00 -0.15501721220E+03  0.15501721220E+03  0.00000000000E+00 0. -1.
         23    2    1    2    0    0  0.10875494713E+02  0.12473583419E+02  0.49095355000E+01  0.91886761343E+02  0.90250798903E+02 0.  0.
         23    2    1    2    0    0 -0.10875494713E+02 -0.12473583419E+02 -0.91711779015E+02  0.13134541955E+03  0.92556480911E+02 0.  0.
          5    1    3    3  502    0  0.27162428994E+02  0.43381989091E+02  0.17737229585E+02  0.54373650234E+02  0.47000000000E+01 0. -1.
         -5    1    3    3    0  502 -0.16286934282E+02 -0.30908405673E+02 -0.12827694085E+02  0.37513111109E+02  0.47000000000E+01 0.  1.
          5    1    4    4  503    0 -0.24147860418E+02  0.31849000895E+02 -0.68312222674E+02  0.79285104449E+02  0.47000000000E+01 0. -1.
         -5    1    4    4    0  503  0.13272365705E+02 -0.44322584314E+02 -0.23399556341E+02  0.52060315103E+02  0.47000000000E+01 0.  1.
<mgrwt>
<rscale>  0 0.93451896E+02</rscale>
<asrwt>0</asrwt>
<pdfrwt beam="1">  1        1 0.23848801E-01 0.94024299E+02</pdfrwt>
<pdfrwt beam="2">  1       -1 0.10494611E-01 0.94024299E+02</pdfrwt>
<totfact> 0.10462000E+04</totfact>
</mgrwt>
</event>
<event>
 8    1  0.6396648E-004  0.1277248E+03  0.7546771E-02  0.1231278E+00
         -1   -1    0    0    0  501 -0.00000000000E+00  0.00000000000E+00  0.41794836951E+02  0.41794836951E+02  0.00000000000E+00 0.  1.
          1   -1    0    0  501    0  0.00000000000E+00 -0.00000000000E+00 -0.40589437755E+03  0.40589437755E+03  0.00000000000E+00 0. -1.
         23    2    1    2    0    0 -0.56011177731E+02  0.67433274104E+02 -0.13458217151E+03  0.18554237771E+03  0.92893027458E+02 0.  0.
         23    2    1    2    0    0  0.56011177731E+02 -0.67433274104E+02 -0.22951736909E+03  0.26214683680E+03  0.91423426096E+02 0.  0.
          5    1    3    3  502    0 -0.65629173416E+02  0.10231670530E+02 -0.51856947582E+02  0.84398510044E+02  0.47000000000E+01 0. -1.
         -5    1    3    3    0  502  0.96179956847E+01  0.57201603574E+02 -0.82725223927E+02  0.10114386766E+03  0.47000000000E+01 0.  1.
          5    1    4    4  503    0 -0.96886973040E+01 -0.39526769016E+02 -0.14859388121E+03  0.15413782098E+03  0.47000000000E+01 0. -1.
         -5    1    4    4    0  503  0.65699875035E+02 -0.27906505088E+02 -0.80923487888E+02  0.10800901582E+03  0.47000000000E+01 0.  1.
<mgrwt>
<rscale>  0 0.12745772E+03</rscale>
<asrwt>0</asrwt>
<pdfrwt beam="1">  1        1 0.62445285E-01 0.12772475E+03</pdfrwt>
<pdfrwt beam="2">  1       -1 0.64299753E-02 0.12772475E+03</pdfrwt>
<totfact> 0.68091567E+03</totfact>
</mgrwt>
</event>
<event>
 8    1  0.6396648E-004  0.1436669E+03  0.7546771E-02  0.1208565E+00
          2   -1    0    0  501    0  0.00000000000E+00  0.00000000000E+00  0.81683331140E+03  0.81683331140E+03  0.00000000000E+00 0.  1.
         -2   -1    0    0    0  501 -0.00000000000E+00 -0.00000000000E+00 -0.44124595268E+02  0.44124595268E+02  0.00000000000E+00 0. -1.
         23    2    1    2    0    0  0.97386002234E+02  0.52315478196E+02  0.66831370085E+03  0.68358128505E+03  0.91756350344E+02 0.  0.
         23    2    1    2    0    0 -0.97386002234E+02 -0.52315478196E+02  0.10439501528E+03  0.17737662162E+03  0.91341140748E+02 0.  0.
          5    1    4    4  502    0 -0.90216699469E+02 -0.76095717522E+02  0.85345250453E+02  0.14572409843E+03  0.47000000000E+01 0. -1.
         -5    1    3    3    0  503  0.11272001818E+03  0.33775920330E+02  0.51291022627E+03  0.52625621660E+03  0.47000000000E+01 0.  1.
          5    1    3    3  503    0 -0.15334015946E+02  0.18539557866E+02  0.15540347458E+03  0.15732506845E+03  0.47000000000E+01 0. -1.
         -5    1    4    4    0  502 -0.71693027649E+01  0.23780239326E+02  0.19049764827E+02  0.31652523193E+02  0.47000000000E+01 0.  1.
<mgrwt>
<rscale>  0 0.14360062E+03</rscale>
<asrwt>0</asrwt>
<pdfrwt beam="1">  1        2 0.12566665E+00 0.14366687E+03</pdfrwt>
<pdfrwt beam="2">  1       -2 0.67883999E-02 0.14366687E+03</pdfrwt>
<totfact> 0.41266937E+03</totfact>
</mgrwt>
</event>
<event>
 8    1  0.6396648E-004  0.1156794E+03  0.7546771E-02  0.1252045E+00
          3   -1    0    0  501    0  0.00000000000E+00  0.00000000000E+00  0.91671622822E+01  0.91671622822E+01  0.00000000000E+00 0. -1.
         -3   -1    0    0    0  501 -0.00000000000E+00 -0.00000000000E+00 -0.14382052240E+04  0.14382052240E+04  0.00000000000E+00 0.  1.
         23    2    1    2    0    0  0.67291816092E+02  0.18989218287E+01 -0.60722391165E+03  0.61745659688E+03  0.89442583415E+02 0.  0.
         23    2    1    2    0    0 -0.67291816092E+02 -0.18989218287E+01 -0.82181415003E+03  0.82991578937E+03  0.94074044443E+02 0.  0.
          5    1    3    3  502    0 -0.19728306993E+02 -0.12083260386E+02 -0.13770564843E+03  0.13971451925E+03  0.47000000000E+01 0. -1.
         -5    1    3    3    0  502  0.87020123085E+02  0.13982182215E+02 -0.46951826322E+03  0.47774207763E+03  0.47000000000E+01 0.  1.
          5    1    4    4  503    0 -0.90610986692E+02 -0.71745733900E+01 -0.62274778899E+03  0.62936374546E+03  0.47000000000E+01 0. -1.
         -5    1    4    4    0  503  0.23319170600E+02  0.52756515613E+01 -0.19906636104E+03  0.20055204391E+03  0.47000000000E+01 0.  1.
<mgrwt>
<rscale>  0 0.11473437E+03</rscale>
<asrwt>0</asrwt>
<pdfrwt beam="1">  1        3 0.14103329E-02 0.11567939E+03</pdfrwt>
<pdfrwt beam="2">  1       -3 0.22126231E+00 0.11567939E+03</pdfrwt>
<totfact> 0.44619081E+02</totfact>
</mgrwt>
</event>
<event>
 8    1  0.6396648E-004  0.9743534E+02  0.7546771E-02  0.1286225E+00
          1   -1    0    0  501    0  0.00000000000E+00  0.00000000000E+00  0.11398493684E+03  0.11398493684E+03  0.00000000000E+00 0. -1.
         -1   -1    0    0    0  501 -0.00000000000E+00 -0.00000000000E+00 -0.89060030294E+02  0.89060030294E+02  0.00000000000E+00 0.  1.
         23    2    1    2    0    0 -0.97111342808E+01 -0.33112311517E+02  0.39853224680E+02  0.10527072655E+03  0.91120332790E+02 0.  0.
         23    2    1    2    0    0  0.97111342808E+01  0.33112311517E+02 -0.14928318132E+02  0.97774240586E+02  0.90256391114E+02 0.  0.
          5    1    4    4  502    0  0.10051438486E+02  0.63000246695E+02  0.14568033568E+00  0.63970100219E+02  0.47000000000E+01 0. -1.
         -5    1    3    3    0  503 -0.48411968973E+02 -0.25436243428E+02  0.35339130646E+02  0.65281432080E+02  0.47000000000E+01 0.  1.
          5    1    3    3  503    0  0.38700834693E+02 -0.76760680885E+01  0.45140940341E+01  0.39989294469E+02  0.47000000000E+01 0. -1.
         -5    1    4    4    0  502 -0.34030420478E+00 -0.29887935178E+02 -0.15073998468E+02  0.33804140367E+02  0.47000000000E+01 0.  1.
<mgrwt>
<rscale>  0 0.97232848E+02</rscale>
<asrwt>0</asrwt>
<pdfrwt beam="1">  1        1 0.17536144E-01 0.97435344E+02</pdfrwt>
<pdfrwt beam="2">  1       -1 0.13701543E-01 0.97435344E+02</pdfrwt>
<totfact> 0.10273278E+04</totfact>
</mgrwt>
</event>
<event>
 8    1  0.6396648E-004  0.1126659E+03  0.7546771E-02  0.1255748E+00
          3   -1    0    0  501    0  0.00000000000E+00  0.00000000000E+00  0.10786931145E+03  0.10786931145E+03  0.00000000000E+00 0. -1.
         -3   -1    0    0    0  501 -0.00000000000E+00 -0.00000000000E+00 -0.20681075748E+03  0.20681075748E+03  0.00000000000E+00 0.  1.
         23    2    1    2    0    0 -0.63482529347E+02 -0.23855804330E+02 -0.15280417062E+03  0.18980093600E+03  0.89867401294E+02 0.  0.
         23    2    1    2    0    0  0.63482529347E+02  0.23855804330E+02  0.53862724577E+02  0.12487913294E+03  0.89969293714E+02 0.  0.
          5    1    3    3  502    0 -0.15838435335E+02  0.26298222553E+02 -0.93631539497E+02  0.98647897757E+02  0.47000000000E+01 0. -1.
         -5    1    3    3    0  502 -0.47644094012E+02 -0.50154026883E+02 -0.59172631118E+02  0.91153038239E+02  0.47000000000E+01 0.  1.
          5    1    4    4  503    0  0.63989680162E+02  0.47316282556E+02  0.60459310657E+02  0.10005462512E+03  0.47000000000E+01 0. -1.
         -5    1    4    4    0  503 -0.50715081501E+00 -0.23460478226E+02 -0.65965860796E+01  0.24824507819E+02  0.47000000000E+01 0.  1.
<mgrwt>
<rscale>  0 0.11264556E+03</rscale>
<asrwt>0</asrwt>
<pdfrwt beam="1">  1        3 0.16595279E-01 0.11266590E+03</pdfrwt>
<pdfrwt beam="2">  1       -3 0.31817039E-01 0.11266590E+03</pdfrwt>
<totfact> 0.67330447E+02</totfact>
</mgrwt>
</event>
<event>
 8    1  0.6396648E-004  0.9898647E+02  0.7546771E-02  0.1282853E+00
          1   -1    0    0  501    0  0.00000000000E+00  0.00000000000E+00  0.23667482807E+03  0.23667482807E+03  0.00000000000E+00 0. -1.
         -1   -1    0    0    0  501 -0.00000000000E+00 -0.00000000000E+00 -0.43780196712E+02  0.43780196712E+02  0.00000000000E+00 0.  1.
         23    2    1    2    0    0 -0.20130544805E+02  0.21223744509E+02  0.61969021576E+02  0.11678390804E+03  0.94565508389E+02 0.  0.
         23    2    1    2    0    0  0.20130544805E+02 -0.21223744509E+02  0.13092560978E+03  0.16367111674E+03  0.93760508711E+02 0.  0.
          5    1    3    3  502    0 -0.19840442164E+02 -0.13505897349E+02  0.75387617872E+02  0.79255506666E+02  0.47000000000E+01 0. -1.
         -5    1    3    3    0  502 -0.29010264064E+00  0.34729641858E+02 -0.13418596297E+02  0.37528401374E+02  0.47000000000E+01 0.  1.
          5    1    4    4  503    0  0.51958486467E+02 -0.31522591244E+02  0.62177986480E+02  0.87072097008E+02  0.47000000000E+01 0. -1.
         -5    1    4    4    0  503 -0.31827941662E+02  0.10298846736E+02  0.68747623302E+02  0.76599019734E+02  0.47000000000E+01 0.  1.
<mgrwt>
<rscale>  0 0.98793720E+02</rscale>
<asrwt>0</asrwt>
<pdfrwt beam="1">  1        1 0.36411511E-01 0.98986472E+02</pdfrwt>
<pdfrwt beam="2">  1       -1 0.67354150E-02 0.98986472E+02</pdfrwt>
<totfact> 0.12129048E+04</totfact>
</mgrwt>
</event>
<event>
 8    1  0.6396648E-004  0.1065113E+03  0.7546771E-02  0.1269509E+00
          1   -1    0    0  501    0  0.00000000000E+00  0.00000000000E+00  0.61273273185E+03  0.61273273185E+03  0.00000000000E+00 0. -1.
         -1   -1    0    0    0  501 -0.00000000000E+00 -0.00000000000E+00 -0.25198455593E+02  0.25198455593E+02  0.00000000000E+00 0.  1.
         23    2    1    2    0    0 -0.17448322789E+02  0.45223965365E+02  0.11515604234E+03  0.15369378352E+03  0.89505385268E+02 0.  0.
         23    2    1    2    0    0  0.17448322789E+02 -0.45223965365E+02  0.47237823392E+03  0.48423740393E+03  0.94842060683E+02 0.  0.
          5    1    4    4  502    0  0.38569064218E+02  0.52839343293E+01  0.31727288707E+03  0.31968682730E+03  0.47000000000E+01 0. -1.
         -5    1    3    3    0  503 -0.33098416321E+02  0.25922778764E+02  0.73201122979E+01  0.42932151890E+02  0.47000000000E+01 0.  1.
          5    1    3    3  503    0  0.15650093533E+02  0.19301186601E+02  0.10783593004E+03  0.11076163163E+03  0.47000000000E+01 0. -1.
         -5    1    4    4    0  502 -0.21120741429E+02 -0.50507899694E+02  0.15510534684E+03  0.16455057663E+03  0.47000000000E+01 0.  1.
<mgrwt>
<rscale>  0 0.10531044E+03</rscale>
<asrwt>0</asrwt>
<pdfrwt beam="1">  1        1 0.94266563E-01 0.10651135E+03</pdfrwt>
<pdfrwt beam="2">  1       -1 0.38766859E-02 0.10651135E+03</pdfrwt>
<totfact> 0.83010008E+03</totfact>
</mgrwt>
</event>
<event>
 8    1  0.6396648E-004  0.9577990E+02  0.7546771E-02  0.1289707E+00
          1   -1    0    0  501    0  0.00000000000E+00  0.00000000000E+00  0.12138623227E+03  0.12138623227E+03  0.00000000000E+00 0. -1.
         -1   -1    0    0    0  501 -0.00000000000E+00 -0.00000000000E+00 -0.11405332169E+03  0.11405332169E+03  0.00000000000E+00 0.  1.
         23    2    1    2    0    0  0.28515992284E+02  0.48510252200E+01 -0.65062566995E+02  0.11537750822E+03  0.90786218767E+02 0.  0.
         23    2    1    2    0    0 -0.28515992284E+02 -0.48510252200E+01  0.72395477574E+02  0.12006204573E+03  0.91307696230E+02 0.  0.
          5    1    4    4  502    0  0.81812016556E+01  0.34525579385E+02  0.50194091577E+02  0.61648069894E+02  0.47000000000E+01 0.  1.
         -5    1    3    3    0  503  0.51677651435E+02  0.13854818232E+02 -0.71361137742E+02  0.89314263284E+02  0.47000000000E+01 0.  1.
          5    1    3    3  503    0 -0.23161659151E+02 -0.90037930116E+01  0.62985707472E+01  0.26063244938E+02  0.47000000000E+01 0. -1.
         -5    1    4    4    0  502 -0.36697193940E+02 -0.39376604605E+02  0.22201385997E+02  0.58413975840E+02  0.47000000000E+01 0. -1.
<mgrwt>
<rscale>  0 0.95655410E+02</rscale>
<asrwt>0</asrwt>
<pdfrwt beam="1">  1        1 0.18674805E-01 0.95779902E+02</pdfrwt>
<pdfrwt beam="2">  1       -1 0.17546665E-01 0.95779902E+02</pdfrwt>
<totfact> 0.64449069E+03</totfact>
</mgrwt>
</event>
<event>
 8    1  0.6396648E-004  0.9989497E+02  0.7546771E-02  0.1283921E+00
          1   -1    0    0  501    0  0.00000000000E+00  0.00000000000E+00  0.56591070650E+03  0.56591070650E+03  0.00000000000E+00 0. -1.
         -1   -1    0    0    0  501 -0.00000000000E+00 -0.00000000000E+00 -0.23685484021E+02  0.23685484021E+02  0.00000000000E+00 0.  1.
         23    2    1    2    0    0  0.34148425380E+02 -0.30814853384E+02  0.10323830293E+03  0.13938677192E+03  0.81577293719E+02 0.  0.
         23    2    1    2    0    0 -0.34148425380E+02  0.30814853384E+02  0.43898691955E+03  0.45020941860E+03  0.88675447066E+02 0.  0.
          5    1    3    3  502    0 -0.63908291229E+01 -0.39525153732E+02  0.84538388842E+02  0.93658473522E+02  0.47000000000E+01 0. -1.
         -5    1    4    4    0  503 -0.47631795597E+01 -0.30393822432E+02  0.11395389029E+03  0.11812726795E+03  0.47000000000E+01 0.  1.
          5    1    4    4  503    0 -0.29385245820E+02  0.61208675816E+02  0.32503302926E+03  0.33208215064E+03  0.47000000000E+01 0. -1.
         -5    1    3    3    0  502  0.40539254503E+02  0.87103003478E+01  0.18699914085E+02  0.45728298400E+02  0.47000000000E+01 0.  1.
<mgrwt>
<rscale>  0 0.98296016E+02</rscale>
<asrwt>0</asrwt>
<pdfrwt beam="1">  1        1 0.87063176E-01 0.99894970E+02</pdfrwt>
<pdfrwt beam="2">  1       -1 0.36439210E-02 0.99894970E+02</pdfrwt>
<totfact> 0.10057262E+04</totfact>
</mgrwt>
</event>
<event>
 8    1  0.6396648E-004  0.1321765E+03  0.7546771E-02  0.1237487E+00
          2   -1    0    0  501    0  0.00000000000E+00  0.00000000000E+00  0.11722390615E+03  0.11722390615E+03  0.00000000000E+00 0. -1.
         -2   -1    0    0    0  501 -0.00000000000E+00 -0.00000000000E+00 -0.11900146124E+03  0.11900146124E+03  0.00000000000E+00 0.  1.
         23    2    1    2    0    0 -0.28803294247E+02  0.40694721950E+02 -0.20599062673E+02  0.10271550470E+03  0.87409744130E+02 0.  0.
         23    2    1    2    0    0  0.28803294247E+02 -0.40694721950E+02  0.18821507580E+02  0.13350986269E+03  0.12241300640E+03 0.  0.
          5    1    4    4  502    0 -0.36754190599E+02 -0.46167267061E+01  0.40869422014E+02  0.55358688097E+02  0.47000000000E+01 0. -1.
         -5    1    3    3    0  503  0.17471394269E+02 -0.12884750836E+02  0.11302000029E+02  0.24921709943E+02  0.47000000000E+01 0.  1.
          5    1    3    3  503    0 -0.46274688516E+02  0.53579472786E+02 -0.31901062702E+02  0.77793794758E+02  0.47000000000E+01 0. -1.
         -5    1    4    4    0  502  0.65557484846E+02 -0.36077995243E+02 -0.22047914434E+02  0.78151174598E+02  0.47000000000E+01 0.  1.
<mgrwt>
<rscale>  0 0.12346570E+03</rscale>
<asrwt>0</asrwt>
<pdfrwt beam="1">  1        2 0.18034447E-01 0.13217653E+03</pdfrwt>
<pdfrwt beam="2">  1       -2 0.18307917E-01 0.13217653E+03</pdfrwt>
<totfact> 0.72381395E+03</totfact>
</mgrwt>
</event>
<event>
 8    1  0.6396648E-004  0.9900820E+02  0.7546771E-02  0.1283612E+00
         -1   -1    0    0    0  501 -0.00000000000E+00  0.00000000000E+00  0.36470587842E+03  0.36470587842E+03  0.00000000000E+00 0.  1.
          1   -1    0    0  501    0  0.00000000000E+00 -0.00000000000E+00 -0.15718358767E+03  0.15718358767E+03  0.00000000000E+00 0. -1.
         23    2    1    2    0    0 -0.17087353094E+02  0.36305093334E+02  0.34170189674E+03  0.35513578292E+03  0.88040903192E+02 0.  0.
         23    2    1    2    0    0  0.17087353094E+02 -0.36305093334E+02 -0.13417960598E+03  0.16675368318E+03  0.90512909322E+02 0.  0.
          5    1    3    3  502    0 -0.42488190996E+02  0.16778494247E+02  0.86929409450E+02  0.98313663703E+02  0.47000000000E+01 0. -1.
         -5    1    3    3    0  502  0.25400837902E+02  0.19526599086E+02  0.25477248729E+03  0.25682211921E+03  0.47000000000E+01 0.  1.
          5    1    4    4  503    0 -0.34226988054E+02 -0.30969983006E+02 -0.74058468105E+02  0.87392066325E+02  0.47000000000E+01 0. -1.
         -5    1    4    4    0  503  0.51314341148E+02 -0.53351103281E+01 -0.60121137875E+02  0.79361616850E+02  0.47000000000E+01 0.  1.
<mgrwt>
<rscale>  0 0.98439646E+02</rscale>
<asrwt>0</asrwt>
<pdfrwt beam="1">  1        1 0.24182090E-01 0.99008203E+02</pdfrwt>
<pdfrwt beam="2">  1       -1 0.56108597E-01 0.99008203E+02</pdfrwt>
<totfact> 0.65643132E+02</totfact>
</mgrwt>
</event>
<event>
 8    1  0.6396648E-004  0.9561933E+02  0.7546771E-02  0.1289811E+00
          2   -1    0    0  501    0  0.00000000000E+00  0.00000000000E+00  0.15089135382E+03  0.15089135382E+03  0.00000000000E+00 0. -1.
         -2   -1    0    0    0  501 -0.00000000000E+00 -0.00000000000E+00 -0.77182577105E+02  0.77182577105E+02  0.00000000000E+00 0.  1.
         23    2    1    2    0    0  0.26684141556E+02 -0.44438944785E+01 -0.16063151454E+02  0.96917321562E+02  0.91668701177E+02 0.  0.
         23    2    1    2    0    0 -0.26684141556E+02  0.44438944785E+01  0.89771928166E+02  0.13115660936E+03  0.91712951558E+02 0.  0.
          5    1    3    3  502    0 -0.20318578068E+02 -0.17629986954E+02  0.21813189174E+02  0.34950912386E+02  0.47000000000E+01 0. -1.
         -5    1    4    4    0  503  0.20299703548E+01  0.42986109199E+02  0.23807603469E+02  0.49404638918E+02  0.47000000000E+01 0.  1.
          5    1    4    4  503    0 -0.28714111911E+02 -0.38542214721E+02  0.65964324697E+02  0.81751970442E+02  0.47000000000E+01 0. -1.
         -5    1    3    3    0  502  0.47002719624E+02  0.13186092475E+02 -0.37876340627E+02  0.61966409176E+02  0.47000000000E+01 0.  1.
<mgrwt>
<rscale>  0 0.95608722E+02</rscale>
<asrwt>0</asrwt>
<pdfrwt beam="1">  1        2 0.23214054E-01 0.95619334E+02</pdfrwt>
<pdfrwt beam="2">  1       -2 0.11874243E-01 0.95619334E+02</pdfrwt>
<totfact> 0.10725497E+04</totfact>
</mgrwt>
</event>
<event>
 7    1  0.6396648E-004  0.2368992E+03  0.7546771E-02  0.1153550E+00
          1   -1    0    0  501    0  0.00000000000E+00  0.00000000000E+00  0.26994488625E+03  0.26994488625E+03  0.00000000000E+00 0. -1.
         -1   -1    0    0    0  501 -0.00000000000E+00 -0.00000000000E+00 -0.11165252209E+03  0.11165252209E+03  0.00000000000E+00 0.  1.
         23    2    1    2    0    0  0.29985253583E+02  0.57942681343E+02  0.42452676152E+02  0.11789293309E+03  0.88544024116E+02 0.  0.
          5    1    3    3  502    0  0.51328178905E+02  0.64795385453E+02  0.46000619873E+02  0.94716265522E+02  0.47000000000E+01 0. -1.
         -5    1    1    2    0  503 -0.64513540589E+02  0.13552315051E+02 -0.47932313759E+02  0.81641036647E+02  0.47000000000E+01 0.  1.
          5    1    1    2  503    0  0.34528287006E+02 -0.71494996394E+02  0.16377200176E+03  0.18206343860E+03  0.47000000000E+01 0. -1.
         -5    1    3    3    0  502 -0.21342925323E+02 -0.68527041098E+01 -0.35479437213E+01  0.23176667569E+02  0.47000000000E+01 0.  1.
<mgrwt>
<rscale>  0 0.19554881E+03</rscale>
<asrwt>0</asrwt>
<pdfrwt beam="1">  1        1 0.41529982E-01 0.23689917E+03</pdfrwt>
<pdfrwt beam="2">  1       -1 0.17177311E-01 0.23689917E+03</pdfrwt>
<totfact> 0.25683070E+03</totfact>
</mgrwt>
</event>
<event>
 8    1  0.6396648E-004  0.1088812E+03  0.7546771E-02  0.1263129E+00
         -3   -1    0    0    0  501 -0.00000000000E+00  0.00000000000E+00  0.29503735678E+03  0.29503735678E+03  0.00000000000E+00 0.  1.
          3   -1    0    0  501    0  0.00000000000E+00 -0.00000000000E+00 -0.50679633982E+02  0.50679633982E+02  0.00000000000E+00 0. -1.
         23    2    1    2    0    0 -0.45517546577E+02  0.34366902500E+02  0.20266658037E+03  0.23006274489E+03  0.92748006732E+02 0.  0.
         23    2    1    2    0    0  0.45517546577E+02 -0.34366902500E+02  0.41691142425E+02  0.11565424587E+03  0.91568674761E+02 0.  0.
          5    1    3    3  502    0 -0.36684052723E+02 -0.12876819125E+02  0.16279249844E+03  0.16743661411E+03  0.47000000000E+01 0. -1.
         -5    1    4    4    0  503  0.25853351897E+02 -0.41998823018E+02  0.66389032382E+02  0.82836529139E+02  0.47000000000E+01 0.  1.
          5    1    4    4  503    0  0.19664194680E+02  0.76319205172E+01 -0.24697889957E+02  0.32817716732E+02  0.47000000000E+01 0. -1.
         -5    1    3    3    0  502 -0.88334938539E+01  0.47243721626E+02  0.39874081924E+02  0.62626130776E+02  0.47000000000E+01 0.  1.
<mgrwt>
<rscale>  0 0.10862966E+03</rscale>
<asrwt>0</asrwt>
<pdfrwt beam="1">  1        3 0.77968669E-02 0.10888124E+03</pdfrwt>
<pdfrwt beam="2">  1       -3 0.45390362E-01 0.10888124E+03</pdfrwt>
<totfact> 0.11959161E+03</totfact>
</mgrwt>
</event>
<event>
 8    1  0.6396648E-004  0.9543406E+02  0.7546771E-02  0.1291407E+00
          2   -1    0    0  501    0  0.00000000000E+00  0.00000000000E+00  0.13159476449E+03  0.13159476449E+03  0.00000000000E+00 0. -1.
         -2   -1    0    0    0  501 -0.00000000000E+00 -0.00000000000E+00 -0.10185432823E+03  0.10185432823E+03  0.00000000000E+00 0.  1.
         23    2    1    2    0    0 -0.15482341994E+02 -0.68847393820E-01 -0.52631581947E+02  0.10898505867E+03  0.94169803769E+02 0.  0.
         23    2    1    2    0    0  0.15482341994E+02  0.68847393820E-01  0.82372018213E+02  0.12446403405E+03  0.92013253037E+02 0.  0.
          5    1    3    3  502    0 -0.36998810096E+02  0.11102574924E+02  0.11241037992E+02  0.40504691748E+02  0.47000000000E+01 0. -1.
         -5    1    4    4    0  503  0.24139976312E+02 -0.24402674560E+02  0.90463663520E+02  0.96871014238E+02  0.47000000000E+01 0.  1.
          5    1    4    4  503    0 -0.86576343178E+01  0.24471521954E+02 -0.80916453067E+01  0.27593019815E+02  0.47000000000E+01 0. -1.
         -5    1    3    3    0  502  0.21516468102E+02 -0.11171422318E+02 -0.63872619939E+02  0.68480366924E+02  0.47000000000E+01 0.  1.
<mgrwt>
<rscale>  0 0.94897723E+02</rscale>
<asrwt>0</asrwt>
<pdfrwt beam="1">  1        2 0.20245348E-01 0.95434059E+02</pdfrwt>
<pdfrwt beam="2">  1       -2 0.15669897E-01 0.95434059E+02</pdfrwt>
<totfact> 0.79986085E+03</totfact>
</mgrwt>
</event>
<event>
 8    1  0.6396648E-004  0.1028816E+03  0.7546771E-02  0.1274465E+00
         -1   -1    0    0    0  501 -0.00000000000E+00  0.00000000000E+00  0.10311861252E+03  0.10311861252E+03  0.00000000000E+00 0.  1.
          1   -1    0    0  501    0  0.00000000000E+00 -0.00000000000E+00 -0.10489642766E+03  0.10489642766E+03  0.00000000000E+00 0. -1.
         23    2    1    2    0    0 -0.38481233828E+02  0.24659529424E+02 -0.16870649239E+02  0.10403229014E+03  0.91919534584E+02 0.  0.
         23    2    1    2    0    0  0.38481233828E+02 -0.24659529424E+02  0.15092834100E+02  0.10398275004E+03  0.92172235067E+02 0.  0.
          5    1    4    4  502    0  0.60717554604E+02 -0.78282455410E+01 -0.14457818162E+02  0.63079484552E+02  0.47000000000E+01 0. -1.
         -5    1    3    3    0  503 -0.65068666914E+02  0.24592072984E+02  0.41080543680E+01  0.69840300531E+02  0.47000000000E+01 0.  1.
          5    1    3    3  503    0  0.26587433086E+02  0.67456439747E-01 -0.20978703607E+02  0.34191989610E+02  0.47000000000E+01 0. -1.
         -5    1    4    4    0  502 -0.22236320776E+02 -0.16831283883E+02  0.29550652261E+02  0.40903265492E+02  0.47000000000E+01 0.  1.
<mgrwt>
<rscale>  0 0.10282495E+03</rscale>
<asrwt>0</asrwt>
<pdfrwt beam="1">  1        1 0.16137912E-01 0.10288158E+03</pdfrwt>
<pdfrwt beam="2">  1       -1 0.15864402E-01 0.10288158E+03</pdfrwt>
<totfact> 0.91400648E+03</totfact>
</mgrwt>
</event>
<event>
 8    1  0.6396648E-004  0.9804257E+02  0.7546771E-02  0.1287071E+00
          1   -1    0    0  501    0  0.00000000000E+00  0.00000000000E+00  0.46834760550E+03  0.46834760550E+03  0.00000000000E+00 0. -1.
         -1   -1    0    0    0  501 -0.00000000000E+00 -0.00000000000E+00 -0.30996856441E+02  0.30996856441E+02  0.00000000000E+00 0.  1.
         23    2    1    2    0    0 -0.65784631667E+00 -0.30583918237E+02  0.36696942634E+03  0.37865529179E+03  0.88189916179E+02 0.  0.
         23    2    1    2    0    0  0.65784631667E+00  0.30583918237E+02  0.70381322720E+02  0.12068917015E+03  0.93147927446E+02 0.  0.
          5    1    4    4  502    0 -0.22380607590E+02  0.10211692383E+02  0.83314203182E+02  0.86997222423E+02  0.47000000000E+01 0. -1.
         -5    1    3    3    0  503  0.20591759332E+02  0.14875553684E+02  0.24945058556E+03  0.25078474293E+03  0.47000000000E+01 0.  1.
          5    1    3    3  503    0 -0.21249605649E+02 -0.45459471921E+02  0.11751884078E+03  0.12787054886E+03  0.47000000000E+01 0. -1.
         -5    1    4    4    0  502  0.23038453907E+02  0.20372225854E+02 -0.12932880463E+02  0.33691947728E+02  0.47000000000E+01 0.  1.
<mgrwt>
<rscale>  0 0.96846439E+02</rscale>
<asrwt>0</asrwt>
<pdfrwt beam="1">  1        1 0.72053473E-01 0.98042568E+02</pdfrwt>
<pdfrwt beam="2">  1       -1 0.47687475E-02 0.98042568E+02</pdfrwt>
<totfact> 0.86724055E+03</totfact>
</mgrwt>
</event>
<event>
 8    1  0.6396648E-004  0.2395742E+03  0.7546771E-02  0.1120142E+00
          2   -1    0    0  501    0  0.00000000000E+00  0.00000000000E+00  0.19661148982E+04  0.19661148982E+04  0.00000000000E+00 0. -1.
         -2   -1    0    0    0  501 -0.00000000000E+00 -0.00000000000E+00 -0.46714880565E+02  0.46714880565E+02  0.00000000000E+00 0.  1.
         23    2    1    2    0    0 -0.18604974977E+03  0.12010797553E+03  0.34200462031E+03  0.41734488945E+03  0.90383412518E+02 0.  0.
         23    2    1    2    0    0  0.18604974977E+03 -0.12010797553E+03  0.15773953973E+04  0.15954848893E+04  0.91407643872E+02 0.  0.
          5    1    3    3  502    0 -0.23098245602E+02  0.50411573738E+02  0.12708338140E+03  0.13873403168E+03  0.47000000000E+01 0. -1.
         -5    1    4    4    0  503  0.44784142563E+02  0.11456009689E+02  0.31200506582E+03  0.31544589184E+03  0.47000000000E+01 0.  1.
          5    1    4    4  503    0  0.14126560721E+03 -0.13156398522E+03  0.12653903315E+04  0.12800389975E+04  0.47000000000E+01 0. -1.
         -5    1    3    3    0  502 -0.16295150417E+03  0.69696401791E+02  0.21492123891E+03  0.27861085777E+03  0.47000000000E+01 0.  1.
<mgrwt>
<rscale>  0 0.23947690E+03</rscale>
<asrwt>0</asrwt>
<pdfrwt beam="1">  1        2 0.30247915E+00 0.23957419E+03</pdfrwt>
<pdfrwt beam="2">  1       -2 0.71869062E-02 0.23957419E+03</pdfrwt>
<totfact> 0.86997529E+02</totfact>
</mgrwt>
</event>
<event>
 8    1  0.6396648E-004  0.1032684E+03  0.7546771E-02  0.1274026E+00
          2   -1    0    0  501    0  0.00000000000E+00  0.00000000000E+00  0.27018890419E+03  0.27018890419E+03  0.00000000000E+00 0. -1.
         -2   -1    0    0    0  501 -0.00000000000E+00 -0.00000000000E+00 -0.40242034699E+02  0.40242034699E+02  0.00000000000E+00 0.  1.
         23    2    1    2    0    0 -0.32981332105E+02 -0.37290071763E+02  0.89614190048E+02  0.13672988937E+03  0.90476747681E+02 0.  0.
         23    2    1    2    0    0  0.32981332105E+02  0.37290071763E+02  0.14033267944E+03  0.17370104951E+03  0.89445379775E+02 0.  0.
          5    1    4    4  502    0  0.26372165460E+02 -0.41676838671E+00  0.13141014998E+03  0.13411331897E+03  0.47000000000E+01 0. -1.
         -5    1    4    4    0  502  0.66091666441E+01  0.37706840150E+02  0.89225294638E+01  0.39587730547E+02  0.47000000000E+01 0.  1.
          5    1    3    3  503    0  0.14626044490E+02 -0.38228623142E+02  0.77713804726E+01  0.41926520953E+02  0.47000000000E+01 0. -1.
         -5    1    3    3    0  503 -0.47607376595E+02  0.93855137933E+00  0.81842809575E+02  0.94803368421E+02  0.47000000000E+01 0.  1.
<mgrwt>
<rscale>  0 0.10304204E+03</rscale>
<asrwt>0</asrwt>
<pdfrwt beam="1">  1        2 0.41567523E-01 0.10326839E+03</pdfrwt>
<pdfrwt beam="2">  1       -2 0.61910824E-02 0.10326839E+03</pdfrwt>
<totfact> 0.15790226E+04</totfact>
</mgrwt>
</event>
<event>
 8    1  0.6396648E-004  0.1016938E+03  0.7546771E-02  0.1278846E+00
         -3   -1    0    0    0  501 -0.00000000000E+00  0.00000000000E+00  0.84612138742E+03  0.84612138742E+03  0.00000000000E+00 0.  1.
          3   -1    0    0  501    0  0.00000000000E+00 -0.00000000000E+00 -0.12793335033E+02  0.12793335033E+02  0.00000000000E+00 0. -1.
         23    2    1    2    0    0  0.35725934835E+02 -0.24303222677E+02  0.53155056553E+03  0.54046332976E+03  0.87679062761E+02 0.  0.
         23    2    1    2    0    0 -0.35725934835E+02  0.24303222677E+02  0.30177748685E+03  0.31845139269E+03  0.92057856167E+02 0.  0.
          5    1    3    3  502    0  0.43750752880E+02  0.22005497919E+02  0.22685798674E+03  0.23213144221E+03  0.47000000000E+01 0. -1.
         -5    1    3    3    0  502 -0.80248180446E+01 -0.46308720596E+02  0.30469257879E+03  0.30833188755E+03  0.47000000000E+01 0.  1.
          5    1    4    4  503    0 -0.14058547357E+02  0.51525932030E+02  0.25135560752E+03  0.25701030302E+03  0.47000000000E+01 0. -1.
         -5    1    4    4    0  503 -0.21667387478E+02 -0.27222709353E+02  0.50421879336E+02  0.61441089675E+02  0.47000000000E+01 0.  1.
<mgrwt>
<rscale>  0 0.10069261E+03</rscale>
<asrwt>0</asrwt>
<pdfrwt beam="1">  1        3 0.19682060E-02 0.10169384E+03</pdfrwt>
<pdfrwt beam="2">  1       -3 0.13017248E+00 0.10169384E+03</pdfrwt>
<totfact> 0.10453923E+03</totfact>
</mgrwt>
</event>
<event>
 8    1  0.6396648E-004  0.1276274E+03  0.7546771E-02  0.1239492E+00
          1   -1    0    0  501    0  0.00000000000E+00  0.00000000000E+00  0.36886274411E+03  0.36886274411E+03  0.00000000000E+00 0. -1.
         -1   -1    0    0    0  501 -0.00000000000E+00 -0.00000000000E+00 -0.56223818503E+02  0.56223818503E+02  0.00000000000E+00 0.  1.
         23    2    1    2    0    0 -0.46986266958E+01 -0.56538025125E+02  0.24673988008E+02  0.11010631026E+03  0.91082207356E+02 0.  0.
         23    2    1    2    0    0  0.46986266958E+01  0.56538025125E+02  0.28796493759E+03  0.31498025235E+03  0.11432466361E+03 0.  0.
          5    1    3    3  502    0  0.68146584169E+01 -0.32426953469E+02  0.58104197135E+02  0.67053222185E+02  0.47000000000E+01 0. -1.
         -5    1    4    4    0  503  0.27184489984E+01 -0.29754098088E+02  0.28741098359E+02  0.41723339426E+02  0.47000000000E+01 0.  1.
          5    1    4    4  503    0  0.19801776973E+01  0.86292123213E+02  0.25922383924E+03  0.27325691292E+03  0.47000000000E+01 0. -1.
         -5    1    3    3    0  502 -0.11513285113E+02 -0.24111071656E+02 -0.33430209127E+02  0.43053088075E+02  0.47000000000E+01 0.  1.
<mgrwt>
<rscale>  0 0.12221205E+03</rscale>
<asrwt>0</asrwt>
<pdfrwt beam="1">  1        1 0.56748113E-01 0.12762740E+03</pdfrwt>
<pdfrwt beam="2">  1       -1 0.86498185E-02 0.12762740E+03</pdfrwt>
<totfact> 0.49181795E+03</totfact>
</mgrwt>
</event>
<event>
 8    1  0.6396648E-004  0.9232799E+02  0.7546771E-02  0.1297486E+00
         -1   -1    0    0    0  501 -0.00000000000E+00  0.00000000000E+00  0.28383370207E+03  0.28383370207E+03  0.00000000000E+00 0.  1.
          1   -1    0    0  501    0  0.00000000000E+00 -0.00000000000E+00 -0.31491155751E+02  0.31491155751E+02  0.00000000000E+00 0. -1.
         23    2    1    2    0    0 -0.64598941176E-01 -0.74242172094E+01  0.91325173167E+02  0.12986433593E+03  0.92028991723E+02 0.  0.
         23    2    1    2    0    0  0.64598941176E-01  0.74242172094E+01  0.16101737315E+03  0.18546052189E+03  0.91727245407E+02 0.  0.
          5    1    4    4  502    0 -0.45105863627E+02  0.32429149570E-01  0.68804835574E+02  0.82405918377E+02  0.47000000000E+01 0. -1.
         -5    1    4    4    0  502  0.45170462568E+02  0.73917880598E+01  0.92212537580E+02  0.10305460352E+03  0.47000000000E+01 0.  1.
          5    1    3    3  503    0 -0.14570925486E+02  0.23185603694E+02 -0.44757868752E+01  0.28142614596E+02  0.47000000000E+01 0. -1.
         -5    1    3    3    0  503  0.14506326545E+02 -0.30609820903E+02  0.95800960042E+02  0.10172172133E+03  0.47000000000E+01 0.  1.
<mgrwt>
<rscale>  0 0.92252711E+02</rscale>
<asrwt>0</asrwt>
<pdfrwt beam="1">  1        1 0.48447934E-02 0.92327994E+02</pdfrwt>
<pdfrwt beam="2">  1       -1 0.43666722E-01 0.92327994E+02</pdfrwt>
<totfact> 0.83607599E+03</totfact>
</mgrwt>
</event>
<event>
 8    1  0.6396648E-004  0.1430493E+03  0.7546771E-02  0.1209676E+00
         -1   -1    0    0    0  501 -0.00000000000E+00  0.00000000000E+00  0.29520017017E+03  0.29520017017E+03  0.00000000000E+00 0.  1.
          1   -1    0    0  501    0  0.00000000000E+00 -0.00000000000E+00 -0.81919901592E+02  0.81919901592E+02  0.00000000000E+00 0. -1.
         23    2    1    2    0    0  0.83045045847E+02 -0.68015573308E+02  0.31388027043E+02  0.14645239444E+03  0.94554205311E+02 0.  0.
         23    2    1    2    0    0 -0.83045045847E+02  0.68015573308E+02  0.18189224153E+03  0.23066767733E+03  0.92737220040E+02 0.  0.
          5    1    4    4  502    0 -0.92880380628E+02  0.24024655481E+02  0.11449651617E+03  0.14945063195E+03  0.47000000000E+01 0. -1.
         -5    1    3    3    0  503  0.76814793689E+02 -0.31636098025E+02  0.57372883548E+02  0.10106974322E+03  0.47000000000E+01 0.  1.
          5    1    3    3  503    0  0.62302521588E+01 -0.36379475283E+02 -0.25984856505E+02  0.45382651217E+02  0.47000000000E+01 0. -1.
         -5    1    4    4    0  502  0.98353347810E+01  0.43990917827E+02  0.67395725368E+02  0.81217045375E+02  0.47000000000E+01 0.  1.
<mgrwt>
<rscale>  0 0.14274972E+03</rscale>
<asrwt>0</asrwt>
<pdfrwt beam="1">  1        1 0.12603062E-01 0.14304928E+03</pdfrwt>
<pdfrwt beam="2">  1       -1 0.45415410E-01 0.14304928E+03</pdfrwt>
<totfact> 0.22426861E+03</totfact>
</mgrwt>
</event>
<event>
 8    1  0.6396648E-004  0.1171000E+03  0.7546771E-02  0.1248724E+00
          1   -1    0    0  501    0  0.00000000000E+00  0.00000000000E+00  0.68277085923E+03  0.68277085923E+03  0.00000000000E+00 0. -1.
         -1   -1    0    0    0  501 -0.00000000000E+00 -0.00000000000E+00 -0.27202792264E+02  0.27202792264E+02  0.00000000000E+00 0.  1.
         23    2    1    2    0    0 -0.37785605750E+01 -0.69695125894E+02  0.51139669820E+03  0.52423783448E+03  0.91798889309E+02 0.  0.
         23    2    1    2    0    0  0.37785605750E+01  0.69695125894E+02  0.14417136876E+03  0.18573581701E+03  0.94025113964E+02 0.  0.
          5    1    4    4  502    0  0.48018413604E+02  0.32432802818E+02  0.60453850442E+02  0.83871406194E+02  0.47000000000E+01 0. -1.
         -5    1    3    3    0  503 -0.30617584261E+02  0.58092938516E+01  0.92557536525E+02  0.97776131692E+02  0.47000000000E+01 0.  1.
          5    1    3    3  503    0  0.26839023686E+02 -0.75504419746E+02  0.41883916167E+03  0.42646170279E+03  0.47000000000E+01 0. -1.
         -5    1    4    4    0  502 -0.44239853029E+02  0.37262323076E+02  0.83717518323E+02  0.10186441082E+03  0.47000000000E+01 0.  1.
<mgrwt>
<rscale>  0 0.11665247E+03</rscale>
<asrwt>0</asrwt>
<pdfrwt beam="1">  1        1 0.10504166E+00 0.11710000E+03</pdfrwt>
<pdfrwt beam="2">  1       -1 0.41850455E-02 0.11710000E+03</pdfrwt>
<totfact> 0.64297872E+03</totfact>
</mgrwt>
</event>
<event>
 8    1  0.6396648E-004  0.9593353E+02  0.7546771E-02  0.1290172E+00
          1   -1    0    0  501    0  0.00000000000E+00  0.00000000000E+00  0.57108784329E+03  0.57108784329E+03  0.00000000000E+00 0. -1.
         -1   -1    0    0    0  501 -0.00000000000E+00 -0.00000000000E+00 -0.19229918610E+02  0.19229918610E+02  0.00000000000E+00 0.  1.
         23    2    1    2    0    0 -0.29691772531E+02 -0.10657112197E+02  0.40301426250E+03  0.41427495464E+03  0.90598382288E+02 0.  0.
         23    2    1    2    0    0  0.29691772531E+02  0.10657112197E+02  0.14884366219E+03  0.17604280726E+03  0.88552011939E+02 0.  0.
          5    1    3    3  502    0  0.19506397874E+02  0.24715190857E+02  0.19434744361E+03  0.19693744960E+03  0.47000000000E+01 0. -1.
         -5    1    4    4    0  503 -0.21503018740E+02 -0.78308128472E+01  0.75457381133E+01  0.24550552101E+02  0.47000000000E+01 0.  1.
          5    1    4    4  503    0  0.51194791271E+02  0.18487925044E+02  0.14129792407E+03  0.15149225516E+03  0.47000000000E+01 0. -1.
         -5    1    3    3    0  502 -0.49198170406E+02 -0.35372303054E+02  0.20866681889E+03  0.21733750505E+03  0.47000000000E+01 0.  1.
<mgrwt>
<rscale>  0 0.95447307E+02</rscale>
<asrwt>0</asrwt>
<pdfrwt beam="1">  1        1 0.87859655E-01 0.95933530E+02</pdfrwt>
<pdfrwt beam="2">  1       -1 0.29584495E-02 0.95933530E+02</pdfrwt>
<totfact> 0.13389722E+04</totfact>
</mgrwt>
</event>
<event>
 8    1  0.6396648E-004  0.9260127E+02  0.7546771E-02  0.1300398E+00
          3   -1    0    0  501    0  0.00000000000E+00  0.00000000000E+00  0.10610158670E+02  0.10610158670E+02  0.00000000000E+00 0. -1.
         -3   -1    0    0    0  501 -0.00000000000E+00 -0.00000000000E+00 -0.76442500940E+03  0.76442500940E+03  0.00000000000E+00 0.  1.
         23    2    1    2    0    0 -0.41060309988E+01  0.10957882477E+00 -0.34742604338E+03  0.35955507378E+03  0.92510128972E+02 0.  0.
         23    2    1    2    0    0  0.41060309988E+01 -0.10957882477E+00 -0.40638880735E+03  0.41548009429E+03  0.86342194300E+02 0.  0.
          5    1    4    4  502    0  0.12302515783E+02  0.36703394473E+02 -0.11087509041E+03  0.11753240717E+03  0.47000000000E+01 0. -1.
         -5    1    4    4    0  502 -0.81964847839E+01 -0.36812973298E+02 -0.29551371693E+03  0.29794768712E+03  0.47000000000E+01 0.  1.
          5    1    3    3  503    0  0.40388213805E+02  0.14125755539E+02 -0.20954417731E+03  0.21391960412E+03  0.47000000000E+01 0. -1.
         -5    1    3    3    0  503 -0.44494244804E+02 -0.14016176714E+02 -0.13788186608E+03  0.14563546966E+03  0.47000000000E+01 0.  1.
<mgrwt>
<rscale>  0 0.91020916E+02</rscale>
<asrwt>0</asrwt>
<pdfrwt beam="1">  1        3 0.16323322E-02 0.92601271E+02</pdfrwt>
<pdfrwt beam="2">  1       -3 0.11760384E+00 0.92601271E+02</pdfrwt>
<totfact> 0.17299857E+03</totfact>
</mgrwt>
</event>
<event>
 8    1  0.6396648E-004  0.1473856E+03  0.7546771E-02  0.1204918E+00
          4   -1    0    0  501    0  0.00000000000E+00  0.00000000000E+00  0.65611931961E+02  0.65611931961E+02  0.00000000000E+00 0. -1.
         -4   -1    0    0    0  501 -0.00000000000E+00 -0.00000000000E+00 -0.32545552177E+03  0.32545552177E+03  0.00000000000E+00 0.  1.
         23    2    1    2    0    0  0.12148290426E+01 -0.11150859217E+03 -0.11361375289E+03  0.18609295287E+03  0.96368357478E+02 0.  0.
         23    2    1    2    0    0 -0.12148290426E+01  0.11150859217E+03 -0.14622983692E+03  0.20497450086E+03  0.90530320124E+02 0.  0.
          5    1    4    4  502    0  0.34832569902E+02  0.99220795148E+02 -0.10746960201E+03  0.15043230860E+03  0.47000000000E+01 0. -1.
         -5    1    4    4    0  502 -0.36047398945E+02  0.12287797023E+02 -0.38760234906E+02  0.54542192258E+02  0.47000000000E+01 0.  1.
          5    1    3    3  503    0  0.23536275791E+02 -0.33222636890E+02  0.59044583852E+01  0.41408362789E+02  0.47000000000E+01 0. -1.
         -5    1    3    3    0  503 -0.22321446749E+02 -0.78285955281E+02 -0.11951821128E+03  0.14468459008E+03  0.47000000000E+01 0.  1.
<mgrwt>
<rscale>  0 0.14643916E+03</rscale>
<asrwt>0</asrwt>
<pdfrwt beam="1">  1        4 0.10094144E-01 0.14738556E+03</pdfrwt>
<pdfrwt beam="2">  1       -4 0.50070080E-01 0.14738556E+03</pdfrwt>
<totfact> 0.48701604E+02</totfact>
</mgrwt>
</event>
<event>
 8    1  0.6396648E-004  0.1032494E+03  0.7546771E-02  0.1273948E+00
          1   -1    0    0  501    0  0.00000000000E+00  0.00000000000E+00  0.25149898285E+03  0.25149898285E+03  0.00000000000E+00 0. -1.
         -1   -1    0    0    0  501 -0.00000000000E+00 -0.00000000000E+00 -0.60090280574E+02  0.60090280574E+02  0.00000000000E+00 0.  1.
         23    2    1    2    0    0 -0.35570129919E+02 -0.32735939220E+02  0.10705886641E+02  0.10380294244E+03  0.91233540932E+02 0.  0.
         23    2    1    2    0    0  0.35570129919E+02  0.32735939220E+02  0.18070281564E+03  0.20778632099E+03  0.90469728371E+02 0.  0.
          5    1    4    4  502    0  0.10626251894E+02  0.56035019225E+02  0.15370912954E+03  0.16401654524E+03  0.47000000000E+01 0. -1.
         -5    1    3    3    0  503 -0.38836924626E+01 -0.51452402563E+02 -0.20105667637E+02  0.55576619794E+02  0.47000000000E+01 0.  1.
          5    1    3    3  503    0 -0.31686437456E+02  0.18716463342E+02  0.30811554278E+02  0.48226322644E+02  0.47000000000E+01 0. -1.
         -5    1    4    4    0  502  0.24943878025E+02 -0.23299080005E+02  0.26993686103E+02  0.43769775752E+02  0.47000000000E+01 0.  1.
<mgrwt>
<rscale>  0 0.10308039E+03</rscale>
<asrwt>0</asrwt>
<pdfrwt beam="1">  1        1 0.38692151E-01 0.10324938E+03</pdfrwt>
<pdfrwt beam="2">  1       -1 0.92446587E-02 0.10324938E+03</pdfrwt>
<totfact> 0.70354014E+03</totfact>
</mgrwt>
</event>
<event>
 8    1  0.6396648E-004  0.9375759E+02  0.7546771E-02  0.1299184E+00
         -3   -1    0    0    0  501 -0.00000000000E+00  0.00000000000E+00  0.14829735675E+03  0.14829735675E+03  0.00000000000E+00 0.  1.
          3   -1    0    0  501    0  0.00000000000E+00 -0.00000000000E+00 -0.77698249023E+02  0.77698249023E+02  0.00000000000E+00 0. -1.
         23    2    1    2    0    0 -0.16769559227E+02  0.15123590414E+02 -0.25919796129E+02  0.97274462765E+02  0.90997495412E+02 0.  0.
         23    2    1    2    0    0  0.16769559227E+02 -0.15123590414E+02  0.96518903855E+02  0.12872114301E+03  0.82117554471E+02 0.  0.
          5    1    4    4  502    0 -0.52596151649E+01  0.21669618225E+02 -0.22982898841E+00  0.22789882121E+02  0.47000000000E+01 0. -1.
         -5    1    3    3    0  503 -0.39938038777E+02 -0.21689630452E+02  0.13703985148E+01  0.45710556796E+02  0.47000000000E+01 0.  1.
          5    1    3    3  503    0  0.23168479549E+02  0.36813220866E+02 -0.27290194643E+02  0.51563905970E+02  0.47000000000E+01 0. -1.
         -5    1    4    4    0  502  0.22029174392E+02 -0.36793208639E+02  0.96748732844E+02  0.10593126089E+03  0.47000000000E+01 0.  1.
<mgrwt>
<rscale>  0 0.91531647E+02</rscale>
<asrwt>0</asrwt>
<pdfrwt beam="1">  1        3 0.11953577E-01 0.93757588E+02</pdfrwt>
<pdfrwt beam="2">  1       -3 0.22814978E-01 0.93757588E+02</pdfrwt>
<totfact> 0.20720502E+03</totfact>
</mgrwt>
</event>
<event>
 8    1  0.6396648E-004  0.9893044E+02  0.7546771E-02  0.1283306E+00
          1   -1    0    0  501    0  0.00000000000E+00  0.00000000000E+00  0.43065838038E+03  0.43065838038E+03  0.00000000000E+00 0. -1.
         -1   -1    0    0    0  501 -0.00000000000E+00 -0.00000000000E+00 -0.30473839244E+02  0.30473839244E+02  0.00000000000E+00 0.  1.
         23    2    1    2    0    0  0.28440797154E+02 -0.25908291140E+02  0.31973907846E+03  0.33469435233E+03  0.91143363404E+02 0.  0.
         23    2    1    2    0    0 -0.28440797154E+02  0.25908291140E+02  0.80445462677E+02  0.12643786730E+03  0.89637845407E+02 0.  0.
          5    1    3    3  502    0  0.35690924109E+02 -0.56563788574E+02  0.21269830830E+03  0.22301561513E+03  0.47000000000E+01 0. -1.
         -5    1    3    3    0  502 -0.72501269548E+01  0.30655497433E+02  0.10704077017E+03  0.11167873720E+03  0.47000000000E+01 0.  1.
          5    1    4    4  503    0 -0.19503073026E+02 -0.32538805651E+02  0.32215917672E+02  0.49990990009E+02  0.47000000000E+01 0. -1.
         -5    1    4    4    0  503 -0.89377241286E+01  0.58447096791E+02  0.48229545005E+02  0.76446877289E+02  0.47000000000E+01 0.  1.
<mgrwt>
<rscale>  0 0.98582288E+02</rscale>
<asrwt>0</asrwt>
<pdfrwt beam="1">  1        1 0.66255131E-01 0.98930436E+02</pdfrwt>
<pdfrwt beam="2">  1       -1 0.46882833E-02 0.98930436E+02</pdfrwt>
<totfact> 0.98937689E+03</totfact>
</mgrwt>
</event>
<event>
 8    1  0.6396648E-004  0.1011014E+03  0.7546771E-02  0.1280938E+00
         -3   -1    0    0    0  501 -0.00000000000E+00  0.00000000000E+00  0.31333271085E+03  0.31333271085E+03  0.00000000000E+00 0.  1.
          3   -1    0    0  501    0  0.00000000000E+00 -0.00000000000E+00 -0.31191882019E+02  0.31191882019E+02  0.00000000000E+00 0. -1.
         23    2    1    2    0    0 -0.21298554845E+02 -0.15175757253E+02  0.16250821439E+03  0.19139075828E+03  0.97660486194E+02 0.  0.
         23    2    1    2    0    0  0.21298554845E+02  0.15175757253E+02  0.11963261444E+03  0.15313383459E+03  0.91946053814E+02 0.  0.
          5    1    4    4  502    0 -0.12147928219E+02 -0.33675233268E+02  0.48594727916E+02  0.60540326038E+02  0.47000000000E+01 0. -1.
         -5    1    4    4    0  502  0.33446483064E+02  0.48850990520E+02  0.71037886528E+02  0.92593508555E+02  0.47000000000E+01 0.  1.
          5    1    3    3  503    0 -0.57625992549E+02 -0.13697491167E+02  0.69609578219E+02  0.91520269129E+02  0.47000000000E+01 0. -1.
         -5    1    3    3    0  503  0.36327437704E+02 -0.14782660855E+01  0.92898636172E+02  0.99870489152E+02  0.47000000000E+01 0.  1.
<mgrwt>
<rscale>  0 0.99695252E+02</rscale>
<asrwt>0</asrwt>
<pdfrwt beam="1">  1        3 0.47987513E-02 0.10110145E+03</pdfrwt>
<pdfrwt beam="2">  1       -3 0.48205030E-01 0.10110145E+03</pdfrwt>
<totfact> 0.22678406E+03</totfact>
</mgrwt>
</event>
<event>
 8    1  0.6396648E-004  0.1180715E+03  0.7546771E-02  0.1247151E+00
          1   -1    0    0  501    0  0.00000000000E+00  0.00000000000E+00  0.59887598589E+03  0.59887598589E+03  0.00000000000E+00 0. -1.
         -1   -1    0    0    0  501 -0.00000000000E+00 -0.00000000000E+00 -0.23168495919E+02  0.23168495919E+02  0.00000000000E+00 0.  1.
         23    2    1    2    0    0  0.73040920900E+02 -0.94439981491E+01  0.32426906935E+03  0.34509609862E+03  0.92286091682E+02 0.  0.
         23    2    1    2    0    0 -0.73040920900E+02  0.94439981491E+01  0.25143842062E+03  0.27694838319E+03  0.89749442114E+02 0.  0.
          5    1    4    4  502    0 -0.50529172070E+02 -0.16686898807E+02  0.22987642028E+03  0.23600192461E+03  0.47000000000E+01 0. -1.
         -5    1    3    3    0  503  0.45964959153E+02  0.23497056036E+02  0.27467147912E+03  0.27951994661E+03  0.47000000000E+01 0.  1.
          5    1    3    3  503    0  0.27075961747E+02 -0.32941054185E+02  0.49597590230E+02  0.65576152007E+02  0.47000000000E+01 0. -1.
         -5    1    4    4    0  502 -0.22511748831E+02  0.26130896956E+02  0.21562000346E+02  0.40946458578E+02  0.47000000000E+01 0.  1.
<mgrwt>
<rscale>  0 0.11757545E+03</rscale>
<asrwt>0</asrwt>
<pdfrwt beam="1">  1        1 0.92134755E-01 0.11807154E+03</pdfrwt>
<pdfrwt beam="2">  1       -1 0.35643844E-02 0.11807154E+03</pdfrwt>
<totfact> 0.97465785E+03</totfact>
</mgrwt>
</event>
<event>
 8    1  0.6396648E-004  0.1052612E+03  0.7546771E-02  0.1272495E+00
          1   -1    0    0  501    0  0.00000000000E+00  0.00000000000E+00  0.43910640107E+03  0.43910640107E+03  0.00000000000E+00 0. -1.
         -1   -1    0    0    0  501 -0.00000000000E+00 -0.00000000000E+00 -0.26431422585E+02  0.26431422585E+02  0.00000000000E+00 0.  1.
         23    2    1    2    0    0 -0.44126196819E+02 -0.95442513141E+01  0.12888029257E+03  0.16285096235E+03  0.88724811335E+02 0.  0.
         23    2    1    2    0    0  0.44126196819E+02  0.95442513141E+01  0.28379468591E+03  0.30268686130E+03  0.95087845044E+02 0.  0.
          5    1    4    4  502    0  0.69431180155E+02 -0.78924079022E+01  0.23136794387E+03  0.24173579448E+03  0.47000000000E+01 0. -1.
         -5    1    4    4    0  502 -0.25304983336E+02  0.17436659216E+02  0.52426742038E+02  0.60951066824E+02  0.47000000000E+01 0.  1.
          5    1    3    3  503    0  0.12678801880E+01  0.26790521420E+02  0.86669633398E+02  0.90846325801E+02  0.47000000000E+01 0. -1.
         -5    1    3    3    0  503 -0.45394077007E+02 -0.36334772734E+02  0.42210659175E+02  0.72004636552E+02  0.47000000000E+01 0.  1.
<mgrwt>
<rscale>  0 0.10380350E+03</rscale>
<asrwt>0</asrwt>
<pdfrwt beam="1">  1        1 0.67554825E-01 0.10526116E+03</pdfrwt>
<pdfrwt beam="2">  1       -1 0.40663730E-02 0.10526116E+03</pdfrwt>
<totfact> 0.11946949E+04</totfact>
</mgrwt>
</event>
<event>
 8    1  0.6396648E-004  0.1387038E+03  0.7546771E-02  0.1215300E+00
          1   -1    0    0  501    0  0.00000000000E+00  0.00000000000E+00  0.37657958842E+03  0.37657958842E+03  0.00000000000E+00 0. -1.
         -1   -1    0    0    0  501 -0.00000000000E+00 -0.00000000000E+00 -0.23808147664E+03  0.23808147664E+03  0.00000000000E+00 0.  1.
         23    2    1    2    0    0 -0.42202106713E+02 -0.96130813360E+02 -0.20325421112E+03  0.24607114700E+03  0.90645374735E+02 0.  0.
         23    2    1    2    0    0  0.42202106713E+02  0.96130813360E+02  0.34175232289E+03  0.36858991806E+03  0.89675673444E+02 0.  0.
          5    1    4    4  502    0  0.56894467976E+02  0.64344885171E+02  0.14423658029E+03  0.16793905391E+03  0.47000000000E+01 0. -1.
         -5    1    4    4    0  502 -0.14692361263E+02  0.31785928189E+02  0.19751574260E+03  0.20065086416E+03  0.47000000000E+01 0.  1.
          5    1    3    3  503    0 -0.52443352327E+02 -0.36932924485E+02 -0.50219252948E+02  0.81599077697E+02  0.47000000000E+01 0. -1.
         -5    1    3    3    0  503  0.10241245615E+02 -0.59197888876E+02 -0.15303495817E+03  0.16447206930E+03  0.47000000000E+01 0.  1.
<mgrwt>
<rscale>  0 0.13854556E+03</rscale>
<asrwt>0</asrwt>
<pdfrwt beam="1">  1        1 0.57935321E-01 0.13870377E+03</pdfrwt>
<pdfrwt beam="2">  1       -1 0.36627920E-01 0.13870377E+03</pdfrwt>
<totfact> 0.47811447E+02</totfact>
</mgrwt>
</event>
<event>
 8    1  0.6396648E-004  0.9230437E+02  0.7546771E-02  0.1299626E+00
         -2   -1    0    0    0  501 -0.00000000000E+00  0.00000000000E+00  0.13027608423E+02  0.13027608423E+02  0.00000000000E+00 0.  1.
          2   -1    0    0  501    0  0.00000000000E+00 -0.00000000000E+00 -0.63791249642E+03  0.63791249642E+03  0.00000000000E+00 0. -1.
         23    2    1    2    0    0  0.91809534141E+01  0.11785561806E+02 -0.26447731269E+03  0.27890016571E+03  0.87257458883E+02 0.  0.
         23    2    1    2    0    0 -0.91809534141E+01 -0.11785561806E+02 -0.36040757531E+03  0.37203993914E+03  0.91087356981E+02 0.  0.
          5    1    3    3  502    0 -0.38801726629E+02  0.45320957273E+01 -0.13182414292E+03  0.13757110357E+03  0.47000000000E+01 0. -1.
         -5    1    4    4    0  503  0.25123305067E+02  0.27346992669E+02 -0.10864862020E+03  0.11491584371E+03  0.47000000000E+01 0.  1.
          5    1    4    4  503    0 -0.34304258481E+02 -0.39132554474E+02 -0.25175895511E+03  0.25712409542E+03  0.47000000000E+01 0. -1.
         -5    1    3    3    0  502  0.47982680043E+02  0.72534660784E+01 -0.13265316977E+03  0.14132906214E+03  0.47000000000E+01 0.  1.
<mgrwt>
<rscale>  0 0.91345211E+02</rscale>
<asrwt>0</asrwt>
<pdfrwt beam="1">  1        2 0.98140361E-01 0.92304366E+02</pdfrwt>
<pdfrwt beam="2">  1       -2 0.20042479E-02 0.92304366E+02</pdfrwt>
<totfact> 0.32566457E+04</totfact>
</mgrwt>
</event>
<event>
 8    1  0.6396648E-004  0.1042363E+03  0.7546771E-02  0.1275429E+00
         -2   -1    0    0    0  501 -0.00000000000E+00  0.00000000000E+00  0.53732312807E+02  0.53732312807E+02  0.00000000000E+00 0.  1.
          2   -1    0    0  501    0  0.00000000000E+00 -0.00000000000E+00 -0.19284970464E+03  0.19284970464E+03  0.00000000000E+00 0. -1.
         23    2    1    2    0    0  0.63296827008E+01  0.33162376337E+02 -0.52949090761E+02  0.11691367012E+03  0.98617401919E+02 0.  0.
         23    2    1    2    0    0 -0.63296827008E+01 -0.33162376337E+02 -0.86168301074E+02  0.12966834733E+03  0.90824534687E+02 0.  0.
          5    1    3    3  502    0 -0.84436028970E+00  0.67231520503E+02 -0.24528897086E+02  0.71725498156E+02  0.47000000000E+01 0. -1.
         -5    1    3    3    0  502  0.71740429905E+01 -0.34069144166E+02 -0.28420193675E+02  0.45188171965E+02  0.47000000000E+01 0.  1.
          5    1    4    4  503    0 -0.39072853955E+02 -0.14590052573E+02 -0.81202995594E+02  0.91408829135E+02  0.47000000000E+01 0. -1.
         -5    1    4    4    0  503  0.32743171255E+02 -0.18572323764E+02 -0.49653054796E+01  0.38259518192E+02  0.47000000000E+01 0.  1.
<mgrwt>
<rscale>  0 0.10235075E+03</rscale>
<asrwt>0</asrwt>
<pdfrwt beam="1">  1        2 0.29669185E-01 0.10423627E+03</pdfrwt>
<pdfrwt beam="2">  1       -2 0.82665097E-02 0.10423627E+03</pdfrwt>
<totfact> 0.14560692E+04</totfact>
</mgrwt>
</event>
<event>
 8    1  0.6396648E-004  0.1039600E+03  0.7546771E-02  0.1276032E+00
         -1   -1    0    0    0  501 -0.00000000000E+00  0.00000000000E+00  0.28347007590E+03  0.28347007590E+03  0.00000000000E+00 0.  1.
          1   -1    0    0  501    0  0.00000000000E+00 -0.00000000000E+00 -0.28437844455E+03  0.28437844455E+03  0.00000000000E+00 0. -1.
         23    2    1    2    0    0  0.19655245440E+02 -0.23823532163E+02  0.26516057106E+03  0.28219076071E+03  0.91474628331E+02 0.  0.
         23    2    1    2    0    0 -0.19655245440E+02  0.23823532163E+02 -0.26606893971E+03  0.28565775973E+03  0.99266236259E+02 0.  0.
          5    1    3    3  502    0 -0.26109723436E+02  0.99778569198E+01  0.34904491935E+02  0.44963194324E+02  0.47000000000E+01 0. -1.
         -5    1    4    4    0  503 -0.50235131434E+02  0.70873375387E+00 -0.72861229179E+02  0.88627983455E+02  0.47000000000E+01 0.  1.
          5    1    4    4  503    0  0.30579885994E+02  0.23114798409E+02 -0.19320771053E+03  0.19702977628E+03  0.47000000000E+01 0. -1.
         -5    1    3    3    0  502  0.45764968876E+02 -0.33801389083E+02  0.23025607913E+03  0.23722756639E+03  0.47000000000E+01 0.  1.
<mgrwt>
<rscale>  0 0.10205524E+03</rscale>
<asrwt>0</asrwt>
<pdfrwt beam="1">  1        1 0.43750530E-01 0.10395997E+03</pdfrwt>
<pdfrwt beam="2">  1       -1 0.43610781E-01 0.10395997E+03</pdfrwt>
<totfact> 0.49923822E+02</totfact>
</mgrwt>
</event>
<event>
 8    1  0.6396648E-004  0.1116080E+03  0.7546771E-02  0.1257795E+00
          2   -1    0    0  501    0  0.00000000000E+00  0.00000000000E+00  0.47472901541E+03  0.47472901541E+03  0.00000000000E+00 0. -1.
         -2   -1    0    0    0  501 -0.00000000000E+00 -0.00000000000E+00 -0.35093161045E+02  0.35093161045E+02  0.00000000000E+00 0.  1.
         23    2    1    2    0    0  0.27423135541E+02 -0.59413698624E+02  0.34879119974E+03  0.36621256784E+03  0.90411989692E+02 0.  0.
         23    2    1    2    0    0 -0.27423135541E+02  0.59413698624E+02  0.90844654627E+02  0.14360960862E+03  0.89938603868E+02 0.  0.
          5    1    4    4  502    0  0.32978639020E+02  0.23889061968E+02  0.33784123475E+02  0.53120004822E+02  0.47000000000E+01 0. -1.
         -5    1    3    3    0  503  0.45713466373E+02 -0.71201717561E+02  0.22488046853E+03  0.24031795754E+03  0.47000000000E+01 0.  1.
          5    1    3    3  503    0 -0.18290330832E+02  0.11788018937E+02  0.12391073121E+03  0.12589461030E+03  0.47000000000E+01 0. -1.
         -5    1    4    4    0  502 -0.60401774561E+02  0.35524636656E+02  0.57060531151E+02  0.90489603795E+02  0.47000000000E+01 0.  1.
<mgrwt>
<rscale>  0 0.11151208E+03</rscale>
<asrwt>0</asrwt>
<pdfrwt beam="1">  1        2 0.73035229E-01 0.11160799E+03</pdfrwt>
<pdfrwt beam="2">  1       -2 0.53989482E-02 0.11160799E+03</pdfrwt>
<totfact> 0.10759205E+04</totfact>
</mgrwt>
</event>
<event>
 8    1  0.6396648E-004  0.9595410E+02  0.7546771E-02  0.1289374E+00
          1   -1    0    0  501    0  0.00000000000E+00  0.00000000000E+00  0.34554355809E+03  0.34554355809E+03  0.00000000000E+00 0. -1.
         -1   -1    0    0    0  501 -0.00000000000E+00 -0.00000000000E+00 -0.50121020112E+02  0.50121020112E+02  0.00000000000E+00 0.  1.
         23    2    1    2    0    0  0.24896824910E+02 -0.13624704488E+02  0.28333603672E+03  0.29895225482E+03  0.91036566809E+02 0.  0.
         23    2    1    2    0    0 -0.24896824910E+02  0.13624704488E+02  0.12086501258E+02  0.96712323379E+02  0.91660817788E+02 0.  0.
          5    1    3    3  502    0 -0.12035949674E+02  0.28367576321E+02  0.49667551247E+02  0.58639057954E+02  0.47000000000E+01 0. -1.
         -5    1    3    3    0  502  0.36932774584E+02 -0.41992280809E+02  0.23366848547E+03  0.24031319687E+03  0.47000000000E+01 0.  1.
          5    1    4    4  503    0 -0.50773706329E+02 -0.46068263661E+01  0.30694091373E+02  0.59694299132E+02  0.47000000000E+01 0. -1.
         -5    1    4    4    0  503  0.25876881419E+02  0.18231530854E+02 -0.18607590115E+02  0.37018024247E+02  0.47000000000E+01 0.  1.
<mgrwt>
<rscale>  0 0.95804720E+02</rscale>
<asrwt>0</asrwt>
<pdfrwt beam="1">  1        1 0.53160546E-01 0.95954104E+02</pdfrwt>
<pdfrwt beam="2">  1       -1 0.77109264E-02 0.95954104E+02</pdfrwt>
<totfact> 0.62237653E+03</totfact>
</mgrwt>
</event>
<event>
 8    1  0.6396648E-004  0.1055685E+03  0.7546771E-02  0.1270068E+00
         -2   -1    0    0    0  501 -0.00000000000E+00  0.00000000000E+00  0.46063677165E+02  0.46063677165E+02  0.00000000000E+00 0.  1.
          2   -1    0    0  501    0  0.00000000000E+00 -0.00000000000E+00 -0.54685687907E+03  0.54685687907E+03  0.00000000000E+00 0. -1.
         23    2    1    2    0    0 -0.25299697048E+02 -0.43277123634E+02 -0.26139151942E+02  0.10666837479E+03  0.90453871203E+02 0.  0.
         23    2    1    2    0    0  0.25299697048E+02  0.43277123634E+02 -0.47465404997E+03  0.48625218145E+03  0.92907118732E+02 0.  0.
          5    1    4    4  502    0  0.24431211121E+02  0.69981801815E+02 -0.39964081977E+03  0.40648396216E+03  0.47000000000E+01 0. -1.
         -5    1    3    3    0  503 -0.46504146164E+02 -0.27789520723E+01  0.10391843750E+02  0.47962887753E+02  0.47000000000E+01 0.  1.
          5    1    3    3  503    0  0.21204449117E+02 -0.40498171562E+02 -0.36530995691E+02  0.58705487038E+02  0.47000000000E+01 0. -1.
         -5    1    4    4    0  502  0.86848592677E+00 -0.26704678181E+02 -0.75013230193E+02  0.79768219289E+02  0.47000000000E+01 0.  1.
<mgrwt>
<rscale>  0 0.10502626E+03</rscale>
<asrwt>0</asrwt>
<pdfrwt beam="1">  1        2 0.84131832E-01 0.10556854E+03</pdfrwt>
<pdfrwt beam="2">  1       -2 0.70867192E-02 0.10556854E+03</pdfrwt>
<totfact> 0.60894491E+03</totfact>
</mgrwt>
</event>
<event>
 8    1  0.6396648E-004  0.1159252E+03  0.7546771E-02  0.1250502E+00
         -2   -1    0    0    0  501 -0.00000000000E+00  0.00000000000E+00  0.19546882355E+03  0.19546882355E+03  0.00000000000E+00 0.  1.
          2   -1    0    0  501    0  0.00000000000E+00 -0.00000000000E+00 -0.28851020593E+03  0.28851020593E+03  0.00000000000E+00 0. -1.
         23    2    1    2    0    0  0.23056651085E+02 -0.67716477696E+02  0.16507949720E+03  0.20102134904E+03  0.89672804483E+02 0.  0.
         23    2    1    2    0    0 -0.23056651085E+02  0.67716477696E+02 -0.25812087958E+03  0.28295768043E+03  0.91222420116E+02 0.  0.
          5    1    3    3  502    0  0.31338327591E+02 -0.38659074219E+02  0.21832162966E+02  0.54546751832E+02  0.47000000000E+01 0. -1.
         -5    1    3    3    0  502 -0.82816765059E+01 -0.29057403477E+02  0.14324733423E+03  0.14647459721E+03  0.47000000000E+01 0.  1.
          5    1    4    4  503    0 -0.46150800107E+02  0.75330844856E+02 -0.17302124692E+03  0.19432723542E+03  0.47000000000E+01 0. -1.
         -5    1    4    4    0  503  0.23094149022E+02 -0.76143671596E+01 -0.85099632654E+02  0.88630445018E+02  0.47000000000E+01 0.  1.
<mgrwt>
<rscale>  0 0.11562018E+03</rscale>
<asrwt>0</asrwt>
<pdfrwt beam="1">  1        2 0.44386185E-01 0.11592524E+03</pdfrwt>
<pdfrwt beam="2">  1       -2 0.30072127E-01 0.11592524E+03</pdfrwt>
<totfact> 0.11420481E+03</totfact>
</mgrwt>
</event>
<event>
 8    1  0.6396648E-004  0.9117193E+02  0.7546771E-02  0.1302293E+00
          3   -1    0    0  501    0  0.00000000000E+00  0.00000000000E+00  0.36525005243E+03  0.36525005243E+03  0.00000000000E+00 0. -1.
         -3   -1    0    0    0  501 -0.00000000000E+00 -0.00000000000E+00 -0.30866232564E+02  0.30866232564E+02  0.00000000000E+00 0.  1.
         23    2    1    2    0    0  0.53137270419E+01 -0.36430979182E+01  0.62572933603E+02  0.11057890254E+03  0.90944014706E+02 0.  0.
         23    2    1    2    0    0 -0.53137270419E+01  0.36430979182E+01  0.27181088626E+03  0.28553738245E+03  0.87229186787E+02 0.  0.
          5    1    4    4  502    0 -0.12006253344E+02 -0.38110257462E+02  0.17859790018E+03  0.18307332354E+03  0.47000000000E+01 0. -1.
         -5    1    3    3    0  503  0.19753268251E+02  0.29231748411E+02 -0.29512209100E+01  0.35713952828E+02  0.47000000000E+01 0.  1.
          5    1    3    3  503    0 -0.14439541209E+02 -0.32874846329E+02  0.65524154513E+02  0.74864949717E+02  0.47000000000E+01 0. -1.
         -5    1    4    4    0  502  0.66925263022E+01  0.41753355380E+02  0.93212986081E+02  0.10246405891E+03  0.47000000000E+01 0.  1.
<mgrwt>
<rscale>  0 0.90231187E+02</rscale>
<asrwt>0</asrwt>
<pdfrwt beam="1">  1        3 0.56192313E-01 0.91171935E+02</pdfrwt>
<pdfrwt beam="2">  1       -3 0.47486514E-02 0.91171935E+02</pdfrwt>
<totfact> 0.16653024E+03</totfact>
</mgrwt>
</event>
<event>
 8    1  0.6396648E-004  0.9673281E+02  0.7546771E-02  0.1287489E+00
          3   -1    0    0  501    0  0.00000000000E+00  0.00000000000E+00  0.33239462866E+03  0.33239462866E+03  0.00000000000E+00 0. -1.
         -3   -1    0    0    0  501 -0.00000000000E+00 -0.00000000000E+00 -0.33665493652E+02  0.33665493652E+02  0.00000000000E+00 0.  1.
         23    2    1    2    0    0 -0.24052193371E+02 -0.20731945327E+02  0.22383926870E+03  0.24372562993E+03  0.91048574452E+02 0.  0.
         23    2    1    2    0    0  0.24052193371E+02  0.20731945327E+02  0.74889866306E+02  0.12233449238E+03  0.91372394012E+02 0.  0.
          5    1    4    4  502    0  0.86894195917E+01  0.45803298249E+02  0.79422589477E+02  0.92214347379E+02  0.47000000000E+01 0. -1.
         -5    1    3    3    0  503 -0.53585640907E+02 -0.23035857896E+02  0.96113348008E+02  0.11252527416E+03  0.47000000000E+01 0.  1.
          5    1    3    3  503    0  0.29533447537E+02  0.23039125686E+01  0.12772592069E+03  0.13120035577E+03  0.47000000000E+01 0. -1.
         -5    1    4    4    0  502  0.15362773779E+02 -0.25071352922E+02 -0.45327231707E+01  0.30120145001E+02  0.47000000000E+01 0.  1.
<mgrwt>
<rscale>  0 0.96656262E+02</rscale>
<asrwt>0</asrwt>
<pdfrwt beam="1">  1        3 0.51137633E-01 0.96732807E+02</pdfrwt>
<pdfrwt beam="2">  1       -3 0.51793069E-02 0.96732807E+02</pdfrwt>
<totfact> 0.17753332E+03</totfact>
</mgrwt>
</event>
<event>
 8    1  0.6396648E-004  0.1798499E+03  0.7546771E-02  0.1173096E+00
         -2   -1    0    0    0  501 -0.00000000000E+00  0.00000000000E+00  0.34145765298E+02  0.34145765298E+02  0.00000000000E+00 0.  1.
          2   -1    0    0  501    0  0.00000000000E+00 -0.00000000000E+00 -0.90173197760E+03  0.90173197760E+03  0.00000000000E+00 0. -1.
         23    2    1    2    0    0  0.10204031995E+03 -0.84631938284E+02 -0.29280345707E+03  0.33361435127E+03  0.89386123272E+02 0.  0.
         23    2    1    2    0    0 -0.10204031995E+03  0.84631938284E+02 -0.57478275524E+03  0.60226339163E+03  0.12153676523E+03 0.  0.
          5    1    3    3  502    0  0.63367393720E+02 -0.11548765848E+02 -0.19521679070E+03  0.20562219226E+03  0.47000000000E+01 0. -1.
         -5    1    4    4    0  503 -0.73990545170E+02  0.96765108302E+02 -0.27397704970E+03  0.29987264084E+03  0.47000000000E+01 0.  1.
          5    1    4    4  503    0 -0.28049774776E+02 -0.12133170018E+02 -0.30080570554E+03  0.30239075079E+03  0.47000000000E+01 0. -1.
         -5    1    3    3    0  502  0.38672926225E+02 -0.73083172436E+02 -0.97586666370E+02  0.12799215902E+03  0.47000000000E+01 0.  1.
<mgrwt>
<rscale>  0 0.17463755E+03</rscale>
<asrwt>0</asrwt>
<pdfrwt beam="1">  1        2 0.13872800E+00 0.17984987E+03</pdfrwt>
<pdfrwt beam="2">  1       -2 0.52531946E-02 0.17984987E+03</pdfrwt>
<totfact> 0.54113723E+03</totfact>
</mgrwt>
</event>
<event>
 8    1  0.6396648E-004  0.1067047E+03  0.7546771E-02  0.1271550E+00
          2   -1    0    0  501    0  0.00000000000E+00  0.00000000000E+00  0.16737499153E+03  0.16737499153E+03  0.00000000000E+00 0. -1.
         -2   -1    0    0    0  501 -0.00000000000E+00 -0.00000000000E+00 -0.63486124396E+02  0.63486124396E+02  0.00000000000E+00 0.  1.
         23    2    1    2    0    0  0.24298568497E+02  0.12345880865E+02  0.37721103460E+02  0.11317586684E+03  0.10316517816E+03 0.  0.
         23    2    1    2    0    0 -0.24298568497E+02 -0.12345880865E+02  0.66167763676E+02  0.11768524909E+03  0.93428066966E+02 0.  0.
          5    1    4    4  502    0  0.13590497140E+02  0.31066795299E+02  0.69612766315E+01  0.34934177463E+02  0.47000000000E+01 0. -1.
         -5    1    4    4    0  502 -0.37889065637E+02 -0.43412676164E+02  0.59206487045E+02  0.82751071623E+02  0.47000000000E+01 0.  1.
          5    1    3    3  503    0 -0.23423848690E+02  0.43364473480E+02  0.15283981154E+02  0.51815483473E+02  0.47000000000E+01 0. -1.
         -5    1    3    3    0  503  0.47722417187E+02 -0.31018592616E+02  0.22437122307E+02  0.61360383371E+02  0.47000000000E+01 0.  1.
<mgrwt>
<rscale>  0 0.10427756E+03</rscale>
<asrwt>0</asrwt>
<pdfrwt beam="1">  1        2 0.25749999E-01 0.10670471E+03</pdfrwt>
<pdfrwt beam="2">  1       -2 0.97670961E-02 0.10670471E+03</pdfrwt>
<totfact> 0.13141689E+04</totfact>
</mgrwt>
</event>
<event>
 8    1  0.6396648E-004  0.1706859E+03  0.7546771E-02  0.1177283E+00
          1   -1    0    0  501    0  0.00000000000E+00  0.00000000000E+00  0.11598107479E+04  0.11598107479E+04  0.00000000000E+00 0. -1.
         -1   -1    0    0    0  501 -0.00000000000E+00 -0.00000000000E+00 -0.27992994456E+02  0.27992994456E+02  0.00000000000E+00 0.  1.
         23    2    1    2    0    0  0.61463022101E+02  0.13015346306E+03  0.75979707136E+03  0.77873312703E+03  0.91739121650E+02 0.  0.
         23    2    1    2    0    0 -0.61463022101E+02 -0.13015346306E+03  0.37202068213E+03  0.40907061538E+03  0.90673884896E+02 0.  0.
          5    1    4    4  502    0 -0.82380495855E+02 -0.12050420978E+03  0.30807769564E+03  0.34094246908E+03  0.47000000000E+01 0. -1.
         -5    1    4    4    0  502  0.20917473753E+02 -0.96492532883E+01  0.63942986489E+02  0.68128146300E+02  0.47000000000E+01 0.  1.
          5    1    3    3  503    0 -0.10603966306E+02  0.81890452091E+02  0.41514856587E+03  0.42330711309E+03  0.47000000000E+01 0. -1.
         -5    1    3    3    0  503  0.72066988407E+02  0.48263010973E+02  0.34464850549E+03  0.35542601394E+03  0.47000000000E+01 0.  1.
<mgrwt>
<rscale>  0 0.17054323E+03</rscale>
<asrwt>0</asrwt>
<pdfrwt beam="1">  1        1 0.17843239E+00 0.17068595E+03</pdfrwt>
<pdfrwt beam="2">  1       -1 0.43066154E-02 0.17068595E+03</pdfrwt>
<totfact> 0.26745016E+03</totfact>
</mgrwt>
</event>
<event>
 8    1  0.6396648E-004  0.9300862E+02  0.7546771E-02  0.1296233E+00
         -3   -1    0    0    0  501 -0.00000000000E+00  0.00000000000E+00  0.79095785103E+02  0.79095785103E+02  0.00000000000E+00 0.  1.
          3   -1    0    0  501    0  0.00000000000E+00 -0.00000000000E+00 -0.16365791355E+03  0.16365791355E+03  0.00000000000E+00 0. -1.
         23    2    1    2    0    0 -0.55439758318E+01 -0.36885271058E+01 -0.11297564905E+03  0.14633557646E+03  0.92769945342E+02 0.  0.
         23    2    1    2    0    0  0.55439758318E+01  0.36885271058E+01  0.28413520608E+02  0.96418122190E+02  0.91895512584E+02 0.  0.
          5    1    4    4  502    0  0.24110208722E+02  0.34329637903E+02 -0.10310590800E+02  0.43453705087E+02  0.47000000000E+01 0. -1.
         -5    1    3    3    0  503 -0.43744440461E+02 -0.22901429318E+02 -0.53780493223E+02  0.73160665575E+02  0.47000000000E+01 0.  1.
          5    1    3    3  503    0  0.38200464629E+02  0.19212902212E+02 -0.59195155831E+02  0.73174910886E+02  0.47000000000E+01 0. -1.
         -5    1    4    4    0  502 -0.18566232890E+02 -0.30641110798E+02  0.38724111408E+02  0.52964417102E+02  0.47000000000E+01 0.  1.
<mgrwt>
<rscale>  0 0.92789809E+02</rscale>
<asrwt>0</asrwt>
<pdfrwt beam="1">  1        3 0.25178140E-01 0.93008621E+02</pdfrwt>
<pdfrwt beam="2">  1       -3 0.12168583E-01 0.93008621E+02</pdfrwt>
<totfact> 0.16850458E+03</totfact>
</mgrwt>
</event>
<event>
 8    1  0.6396648E-004  0.9679064E+02  0.7546771E-02  0.1288524E+00
         -1   -1    0    0    0  501 -0.00000000000E+00  0.00000000000E+00  0.40299037447E+02  0.40299037447E+02  0.00000000000E+00 0.  1.
          1   -1    0    0  501    0  0.00000000000E+00 -0.00000000000E+00 -0.26413250410E+03  0.26413250410E+03  0.00000000000E+00 0. -1.
         23    2    1    2    0    0  0.17417600276E+02  0.17182790100E+02 -0.53467190264E+02  0.10848998013E+03  0.91174087755E+02 0.  0.
         23    2    1    2    0    0 -0.17417600276E+02 -0.17182790100E+02 -0.17036627638E+03  0.19594156142E+03  0.93647243881E+02 0.  0.
          5    1    3    3  502    0 -0.14777466508E+02  0.47258335420E+02 -0.23573617797E+02  0.55041159500E+02  0.47000000000E+01 0. -1.
         -5    1    4    4    0  503 -0.15560880058E+01 -0.46656052116E+02 -0.41243602185E+02  0.62468658783E+02  0.47000000000E+01 0.  1.
          5    1    4    4  503    0 -0.15861512271E+02  0.29473262015E+02 -0.12912267420E+03  0.13347290264E+03  0.47000000000E+01 0. -1.
         -5    1    3    3    0  502  0.32195066785E+02 -0.30075545319E+02 -0.29893572467E+02  0.53448820627E+02  0.47000000000E+01 0.  1.
<mgrwt>
<rscale>  0 0.96187328E+02</rscale>
<asrwt>0</asrwt>
<pdfrwt beam="1">  1        1 0.40635769E-01 0.96790637E+02</pdfrwt>
<pdfrwt beam="2">  1       -1 0.61998520E-02 0.96790637E+02</pdfrwt>
<totfact> 0.11965099E+04</totfact>
</mgrwt>
</event>
<event>
 8    1  0.6396648E-004  0.9570041E+02  0.7546771E-02  0.1290714E+00
         -3   -1    0    0    0  501 -0.00000000000E+00  0.00000000000E+00  0.91408115849E+03  0.91408115849E+03  0.00000000000E+00 0.  1.
          3   -1    0    0  501    0  0.00000000000E+00 -0.00000000000E+00 -0.15187482212E+02  0.15187482212E+02  0.00000000000E+00 0. -1.
         23    2    1    2    0    0 -0.15116584945E+02  0.19166850180E+02  0.72277877251E+03  0.72883154789E+03  0.90500784114E+02 0.  0.
         23    2    1    2    0    0  0.15116584945E+02 -0.19166850180E+02  0.17611490377E+03  0.20043709281E+03  0.92534801879E+02 0.  0.
          5    1    3    3  502    0  0.13867769590E+02 -0.31417762676E+02  0.23083298474E+03  0.23342096669E+03  0.47000000000E+01 0. -1.
         -5    1    3    3    0  502 -0.28984354535E+02  0.50584612856E+02  0.49194578777E+03  0.49541058121E+03  0.47000000000E+01 0.  1.
          5    1    4    4  503    0  0.89132088907E+01  0.21807440835E+02  0.52952061948E+01  0.24599572703E+02  0.47000000000E+01 0. -1.
         -5    1    4    4    0  503  0.62033760547E+01 -0.40974291015E+02  0.17081969757E+03  0.17583752010E+03  0.47000000000E+01 0.  1.
<mgrwt>
<rscale>  0 0.95205257E+02</rscale>
<asrwt>0</asrwt>
<pdfrwt beam="1">  1        3 0.23365364E-02 0.95700412E+02</pdfrwt>
<pdfrwt beam="2">  1       -3 0.14062783E+00 0.95700412E+02</pdfrwt>
<totfact> 0.66246139E+02</totfact>
</mgrwt>
</event>
<event>
 8    1  0.6396648E-004  0.1343075E+03  0.7546771E-02  0.1221455E+00
         -2   -1    0    0    0  501 -0.00000000000E+00  0.00000000000E+00  0.58058807215E+02  0.58058807215E+02  0.00000000000E+00 0.  1.
          2   -1    0    0  501    0  0.00000000000E+00 -0.00000000000E+00 -0.31146220321E+03  0.31146220321E+03  0.00000000000E+00 0. -1.
         23    2    1    2    0    0  0.81708418234E+02  0.55522103188E+02 -0.14265568898E+03  0.19544179816E+03  0.89932648776E+02 0.  0.
         23    2    1    2    0    0 -0.81708418234E+02 -0.55522103188E+02 -0.11074770701E+03  0.17407921227E+03  0.90992021527E+02 0.  0.
          5    1    3    3  502    0  0.54662940069E+02  0.54804944833E+02 -0.14835127044E+03  0.16739715779E+03  0.47000000000E+01 0. -1.
         -5    1    4    4    0  503 -0.63315964070E+02 -0.31134457670E+02 -0.13436705635E+02  0.71978474691E+02  0.47000000000E+01 0.  1.
          5    1    4    4  503    0 -0.18392454165E+02 -0.24387645518E+02 -0.97311001378E+02  0.10210073757E+03  0.47000000000E+01 0. -1.
         -5    1    3    3    0  502  0.27045478165E+02  0.71715835571E+00  0.56955814579E+01  0.28044640369E+02  0.47000000000E+01 0.  1.
<mgrwt>
<rscale>  0 0.13412833E+03</rscale>
<asrwt>0</asrwt>
<pdfrwt beam="1">  1        2 0.47917263E-01 0.13430755E+03</pdfrwt>
<pdfrwt beam="2">  1       -2 0.89321239E-02 0.13430755E+03</pdfrwt>
<totfact> 0.79219611E+03</totfact>
</mgrwt>
</event>
<event>
 8    1  0.6396648E-004  0.9769614E+02  0.7546771E-02  0.1285804E+00
         -2   -1    0    0    0  501 -0.00000000000E+00  0.00000000000E+00  0.19667512570E+03  0.19667512570E+03  0.00000000000E+00 0.  1.
          2   -1    0    0  501    0  0.00000000000E+00 -0.00000000000E+00 -0.85764583457E+02  0.85764583457E+02  0.00000000000E+00 0. -1.
         23    2    1    2    0    0 -0.33754236161E+02 -0.81747720954E+01  0.14934022957E+03  0.17845738888E+03  0.91314621609E+02 0.  0.
         23    2    1    2    0    0  0.33754236161E+02  0.81747720954E+01 -0.38429687320E+02  0.10398232029E+03  0.90162668034E+02 0.  0.
          5    1    3    3  502    0  0.29108570977E+02  0.11329249239E+02  0.44232734258E+02  0.54353340031E+02  0.47000000000E+01 0. -1.
         -5    1    4    4    0  503  0.53192534918E+02 -0.15974163512E+02 -0.18016819936E+01  0.55766977046E+02  0.47000000000E+01 0.  1.
          5    1    4    4  503    0 -0.19438298757E+02  0.24148935608E+02 -0.36628005326E+02  0.48215343240E+02  0.47000000000E+01 0. -1.
         -5    1    3    3    0  502 -0.62862807138E+02 -0.19504021334E+02  0.10510749531E+03  0.12410404884E+03  0.47000000000E+01 0.  1.
<mgrwt>
<rscale>  0 0.97426061E+02</rscale>
<asrwt>0</asrwt>
<pdfrwt beam="1">  1        2 0.13194551E-01 0.97696138E+02</pdfrwt>
<pdfrwt beam="2">  1       -2 0.30257712E-01 0.97696138E+02</pdfrwt>
<totfact> 0.42742363E+03</totfact>
</mgrwt>
</event>
<event>
 8    1  0.6396648E-004  0.9350979E+02  0.7546771E-02  0.1295424E+00
         -1   -1    0    0    0  501 -0.00000000000E+00  0.00000000000E+00  0.13965280806E+02  0.13965280806E+02  0.00000000000E+00 0.  1.
          1   -1    0    0  501    0  0.00000000000E+00 -0.00000000000E+00 -0.71103538982E+03  0.71103538982E+03  0.00000000000E+00 0. -1.
         23    2    1    2    0    0  0.63222765926E+01  0.56621032110E+01 -0.47845525357E+03  0.48722654332E+03  0.91641935011E+02 0.  0.
         23    2    1    2    0    0 -0.63222765926E+01 -0.56621032110E+01 -0.21861485545E+03  0.23777412731E+03  0.93123842285E+02 0.  0.
          5    1    3    3  502    0 -0.40027119984E+02 -0.63771493421E+00 -0.29947142399E+03  0.30217180677E+03  0.47000000000E+01 0. -1.
         -5    1    3    3    0  502  0.46349396577E+02  0.62998181452E+01 -0.17898382957E+03  0.18505473655E+03  0.47000000000E+01 0.  1.
          5    1    4    4  503    0  0.30022888215E+02  0.53334889025E+01 -0.18273403231E+03  0.18532036176E+03  0.47000000000E+01 0. -1.
         -5    1    4    4    0  503 -0.36345164808E+02 -0.10995592114E+02 -0.35880823137E+02  0.52453765545E+02  0.47000000000E+01 0.  1.
<mgrwt>
<rscale>  0 0.93138662E+02</rscale>
<asrwt>0</asrwt>
<pdfrwt beam="1">  1        1 0.10939007E+00 0.93509789E+02</pdfrwt>
<pdfrwt beam="2">  1       -1 0.21485045E-02 0.93509789E+02</pdfrwt>
<totfact> 0.15671563E+04</totfact>
</mgrwt>
</event>
<event>
 8    1  0.6396648E-004  0.9207563E+02  0.7546771E-02  0.1299238E+00
         -2   -1    0    0    0  501 -0.00000000000E+00  0.00000000000E+00  0.46118814856E+02  0.46118814856E+02  0.00000000000E+00 0.  1.
          2   -1    0    0  501    0  0.00000000000E+00 -0.00000000000E+00 -0.19734838224E+03  0.19734838224E+03  0.00000000000E+00 0. -1.
         23    2    1    2    0    0 -0.30285021380E+01  0.96114605547E+01 -0.39723953349E+02  0.10027918041E+03  0.91522508465E+02 0.  0.
         23    2    1    2    0    0  0.30285021380E+01 -0.96114605547E+01 -0.11150561404E+03  0.14318801668E+03  0.89262277365E+02 0.  0.
          5    1    3    3  502    0  0.36097281226E+00 -0.32215308214E+02 -0.47256220966E+02  0.57386381701E+02  0.47000000000E+01 0. -1.
         -5    1    4    4    0  503 -0.27138503699E+02  0.21502562010E+02 -0.16464324439E+02  0.38626707539E+02  0.47000000000E+01 0.  1.
          5    1    4    4  503    0  0.30167005837E+02 -0.31114022565E+02 -0.95041289596E+02  0.10456130914E+03  0.47000000000E+01 0. -1.
         -5    1    3    3    0  502 -0.33894749503E+01  0.41826768769E+02  0.75322676165E+01  0.42892798714E+02  0.47000000000E+01 0.  1.
<mgrwt>
<rscale>  0 0.91508839E+02</rscale>
<asrwt>0</asrwt>
<pdfrwt beam="1">  1        2 0.30361290E-01 0.92075630E+02</pdfrwt>
<pdfrwt beam="2">  1       -2 0.70952023E-02 0.92075630E+02</pdfrwt>
<totfact> 0.17717837E+04</totfact>
</mgrwt>
</event>
<event>
 8    1  0.6396648E-004  0.2930566E+03  0.7546771E-02  0.1088854E+00
         -1   -1    0    0    0  501 -0.00000000000E+00  0.00000000000E+00  0.93685768658E+02  0.93685768658E+02  0.00000000000E+00 0.  1.
          1   -1    0    0  501    0  0.00000000000E+00 -0.00000000000E+00 -0.11622982440E+04  0.11622982440E+04  0.00000000000E+00 0. -1.
         23    2    1    2    0    0 -0.26904750685E+03  0.71736361779E+02 -0.24384498101E+03  0.38069914880E+03  0.89099947186E+02 0.  0.
         23    2    1    2    0    0  0.26904750685E+03 -0.71736361779E+02 -0.82476749437E+03  0.87528486390E+03  0.91375634905E+02 0.  0.
          5    1    4    4  502    0  0.17160070897E+03 -0.88858702976E+02 -0.57343026346E+03  0.60513389383E+03  0.47000000000E+01 0. -1.
         -5    1    4    4    0  502  0.97446797877E+02  0.17122341197E+02 -0.25133723091E+03  0.27015097007E+03  0.47000000000E+01 0.  1.
          5    1    3    3  503    0 -0.32761267133E+02  0.42267951987E+02 -0.53822730347E+02  0.76018791699E+02  0.47000000000E+01 0. -1.
         -5    1    3    3    0  503 -0.23628623972E+03  0.29468409792E+02 -0.19002225066E+03  0.30468035710E+03  0.47000000000E+01 0.  1.
<mgrwt>
<rscale>  0 0.29288105E+03</rscale>
<asrwt>0</asrwt>
<pdfrwt beam="1">  1        1 0.17881510E+00 0.29305660E+03</pdfrwt>
<pdfrwt beam="2">  1       -1 0.14413196E-01 0.29305660E+03</pdfrwt>
<totfact> 0.41799982E+02</totfact>
</mgrwt>
</event>
<event>
 8    1  0.6396648E-004  0.9263844E+02  0.7546771E-02  0.1298413E+00
         -1   -1    0    0    0  501 -0.00000000000E+00  0.00000000000E+00  0.39056592685E+02  0.39056592685E+02  0.00000000000E+00 0.  1.
          1   -1    0    0  501    0  0.00000000000E+00 -0.00000000000E+00 -0.21254370550E+03  0.21254370550E+03  0.00000000000E+00 0. -1.
         23    2    1    2    0    0  0.28504272079E+01 -0.77322449645E+01 -0.90361792205E+02  0.12941071834E+03  0.92271165508E+02 0.  0.
         23    2    1    2    0    0 -0.28504272079E+01  0.77322449645E+01 -0.83125320608E+02  0.12218957984E+03  0.89177138033E+02 0.  0.
          5    1    4    4  502    0 -0.32077646406E+02 -0.13599813997E+02 -0.77721850172E+02  0.85303612666E+02  0.47000000000E+01 0. -1.
         -5    1    3    3    0  503 -0.37295703891E+02  0.12463488060E+02 -0.16668536815E+02  0.42967873847E+02  0.47000000000E+01 0.  1.
          5    1    3    3  503    0  0.40146131099E+02 -0.20195733025E+02 -0.73693255390E+02  0.86442844496E+02  0.47000000000E+01 0. -1.
         -5    1    4    4    0  502  0.29227219199E+02  0.21332058961E+02 -0.54034704368E+01  0.36885967174E+02  0.47000000000E+01 0.  1.
<mgrwt>
<rscale>  0 0.91858306E+02</rscale>
<asrwt>0</asrwt>
<pdfrwt beam="1">  1        1 0.32699032E-01 0.92638440E+02</pdfrwt>
<pdfrwt beam="2">  1       -1 0.60087066E-02 0.92638440E+02</pdfrwt>
<totfact> 0.16278668E+04</totfact>
</mgrwt>
</event>
<event>
 8    1  0.6396648E-004  0.9499930E+02  0.7546771E-02  0.1291680E+00
         -3   -1    0    0    0  501 -0.00000000000E+00  0.00000000000E+00  0.28100000598E+03  0.28100000598E+03  0.00000000000E+00 0.  1.
          3   -1    0    0  501    0  0.00000000000E+00 -0.00000000000E+00 -0.31914619413E+02  0.31914619413E+02  0.00000000000E+00 0. -1.
         23    2    1    2    0    0 -0.13872086969E+02 -0.20433004307E+02  0.13259214684E+03  0.16259648950E+03  0.90812986579E+02 0.  0.
         23    2    1    2    0    0  0.13872086969E+02  0.20433004307E+02  0.11649323973E+03  0.15031813590E+03  0.91732898215E+02 0.  0.
          5    1    3    3  502    0  0.11341463138E+02 -0.51999786358E+02  0.76406758216E+02  0.93234592660E+02  0.47000000000E+01 0. -1.
         -5    1    4    4    0  503  0.18071949662E+02  0.55556364004E+02  0.81064163171E+02  0.10003296205E+03  0.47000000000E+01 0.  1.
          5    1    4    4  503    0 -0.41998626929E+01 -0.35123359697E+02  0.35429076558E+02  0.50285173847E+02  0.47000000000E+01 0. -1.
         -5    1    3    3    0  502 -0.25213550108E+02  0.31566782051E+02  0.56185388621E+02  0.69361896836E+02  0.47000000000E+01 0.  1.
<mgrwt>
<rscale>  0 0.94776523E+02</rscale>
<asrwt>0</asrwt>
<pdfrwt beam="1">  1        3 0.49099417E-02 0.94999300E+02</pdfrwt>
<pdfrwt beam="2">  1       -3 0.43230768E-01 0.94999300E+02</pdfrwt>
<totfact> 0.26725384E+03</totfact>
</mgrwt>
</event>
<event>
 8    1  0.6396648E-004  0.1075296E+03  0.7546771E-02  0.1267007E+00
          2   -1    0    0  501    0  0.00000000000E+00  0.00000000000E+00  0.12758948018E+02  0.12758948018E+02  0.00000000000E+00 0. -1.
         -2   -1    0    0    0  501 -0.00000000000E+00 -0.00000000000E+00 -0.90293828766E+03  0.90293828766E+03  0.00000000000E+00 0.  1.
         23    2    1    2    0    0 -0.31729570134E+02  0.44482268581E+02 -0.35765487519E+03  0.37242481273E+03  0.88305116223E+02 0.  0.
         23    2    1    2    0    0  0.31729570134E+02 -0.44482268581E+02 -0.53252446445E+03  0.54327242295E+03  0.92613079291E+02 0.  0.
          5    1    3    3  502    0  0.30272048032E+02  0.21916699154E+02 -0.12567594472E+03  0.13119935852E+03  0.47000000000E+01 0. -1.
         -5    1    3    3    0  502 -0.62001618166E+02  0.22565569426E+02 -0.23197893047E+03  0.24122545421E+03  0.47000000000E+01 0.  1.
          5    1    4    4  503    0  0.44483255201E+02 -0.66239622509E+02 -0.35379645978E+03  0.36271265836E+03  0.47000000000E+01 0. -1.
         -5    1    4    4    0  503 -0.12753685068E+02  0.21757353929E+02 -0.17872800467E+03  0.18055976459E+03  0.47000000000E+01 0.  1.
<mgrwt>
<rscale>  0 0.10659571E+03</rscale>
<asrwt>0</asrwt>
<pdfrwt beam="1">  1        2 0.19629156E-02 0.10752963E+03</pdfrwt>
<pdfrwt beam="2">  1       -2 0.13891355E+00 0.10752963E+03</pdfrwt>
<totfact> 0.20385343E+03</totfact>
</mgrwt>
</event>
<event>
 8    1  0.6396648E-004  0.1066686E+03  0.7546771E-02  0.1267399E+00
          1   -1    0    0  501    0  0.00000000000E+00  0.00000000000E+00  0.56915750841E+02  0.56915750841E+02  0.00000000000E+00 0. -1.
         -1   -1    0    0    0  501 -0.00000000000E+00 -0.00000000000E+00 -0.63890410392E+03  0.63890410392E+03  0.00000000000E+00 0.  1.
         23    2    1    2    0    0  0.68291008330E+00  0.54079540373E+02 -0.58051984618E+03  0.59023848897E+03  0.91940845090E+02 0.  0.
         23    2    1    2    0    0 -0.68291008330E+00 -0.54079540373E+02 -0.14685068925E+01  0.10558136579E+03  0.90665347492E+02 0.  0.
          5    1    3    3  502    0  0.27242704978E+02 -0.21407910527E+01 -0.61199079521E+02  0.67187538243E+02  0.47000000000E+01 0. -1.
         -5    1    3    3    0  502 -0.26559794895E+02  0.56220331426E+02 -0.51932076666E+03  0.52305095073E+03  0.47000000000E+01 0.  1.
          5    1    4    4  503    0 -0.33808786052E+02 -0.56962002369E+02  0.15150339064E+02  0.68112601639E+02  0.47000000000E+01 0. -1.
         -5    1    4    4    0  503  0.33125875969E+02  0.28824619960E+01 -0.16618845956E+02  0.37468764148E+02  0.47000000000E+01 0.  1.
<mgrwt>
<rscale>  0 0.10639314E+03</rscale>
<asrwt>0</asrwt>
<pdfrwt beam="1">  1        1 0.87562691E-02 0.10666856E+03</pdfrwt>
<pdfrwt beam="2">  1       -1 0.98292942E-01 0.10666856E+03</pdfrwt>
<totfact> 0.79172368E+02</totfact>
</mgrwt>
</event>
<event>
 8    1  0.6396648E-004  0.1073443E+03  0.7546771E-02  0.1269932E+00
         -1   -1    0    0    0  501 -0.00000000000E+00  0.00000000000E+00  0.12235821261E+03  0.12235821261E+03  0.00000000000E+00 0.  1.
          1   -1    0    0  501    0  0.00000000000E+00 -0.00000000000E+00 -0.11240991463E+03  0.11240991463E+03  0.00000000000E+00 0. -1.
         23    2    1    2    0    0  0.10833197167E+02  0.34322004717E+02  0.61256992450E+02  0.12359298312E+03  0.10113084684E+03 0.  0.
         23    2    1    2    0    0 -0.10833197167E+02 -0.34322004717E+02 -0.51308694475E+02  0.11117514413E+03  0.91825771839E+02 0.  0.
          5    1    4    4  502    0 -0.44840346863E+02 -0.43865196612E+02 -0.35038185003E+02  0.72004003978E+02  0.47000000000E+01 0. -1.
         -5    1    4    4    0  502  0.34007149696E+02  0.95431918943E+01 -0.16270509472E+02  0.39171140147E+02  0.47000000000E+01 0.  1.
          5    1    3    3  503    0  0.47524826446E+02 -0.67454124011E+01  0.12340768453E+02  0.49784478336E+02  0.47000000000E+01 0. -1.
         -5    1    3    3    0  503 -0.36691629278E+02  0.41067417118E+02  0.48916223996E+02  0.73808504780E+02  0.47000000000E+01 0.  1.
<mgrwt>
<rscale>  0 0.10509536E+03</rscale>
<asrwt>0</asrwt>
<pdfrwt beam="1">  1        1 0.17293833E-01 0.10734434E+03</pdfrwt>
<pdfrwt beam="2">  1       -1 0.18824340E-01 0.10734434E+03</pdfrwt>
<totfact> 0.64149107E+03</totfact>
</mgrwt>
</event>
<event>
 8    1  0.6396648E-004  0.1055021E+03  0.7546771E-02  0.1270569E+00
         -2   -1    0    0    0  501 -0.00000000000E+00  0.00000000000E+00  0.32148040395E+03  0.32148040395E+03  0.00000000000E+00 0.  1.
          2   -1    0    0  501    0  0.00000000000E+00 -0.00000000000E+00 -0.64009678088E+02  0.64009678088E+02  0.00000000000E+00 0. -1.
         23    2    1    2    0    0  0.20506767455E+02 -0.41992078591E+02  0.26234259314E+03  0.28276197680E+03  0.94587722106E+02 0.  0.
         23    2    1    2    0    0 -0.20506767455E+02  0.41992078591E+02 -0.48718672832E+01  0.10272810523E+03  0.91353523950E+02 0.  0.
          5    1    4    4  502    0  0.29588156495E+02 -0.51543633448E+01 -0.13455181371E+02  0.33243922331E+02  0.47000000000E+01 0. -1.
         -5    1    4    4    0  502 -0.50094923949E+02  0.47146441936E+02  0.85833140880E+01  0.69484182901E+02  0.47000000000E+01 0.  1.
          5    1    3    3  503    0 -0.22886648765E+02  0.67164746923E+01  0.19204465603E+02  0.30980820246E+02  0.47000000000E+01 0. -1.
         -5    1    3    3    0  503  0.43393416220E+02 -0.48708553283E+02  0.24313812754E+03  0.25178115656E+03  0.47000000000E+01 0.  1.
<mgrwt>
<rscale>  0 0.10477219E+03</rscale>
<asrwt>0</asrwt>
<pdfrwt beam="1">  1        2 0.98476430E-02 0.10550213E+03</pdfrwt>
<pdfrwt beam="2">  1       -2 0.49458523E-01 0.10550213E+03</pdfrwt>
<totfact> 0.24326631E+03</totfact>
</mgrwt>
</event>
<event>
 7    1  0.6396648E-004  0.2101590E+03  0.7546771E-02  0.1147258E+00
          1   -1    0    0  501    0  0.00000000000E+00  0.00000000000E+00  0.60288286833E+03  0.60288286833E+03  0.00000000000E+00 0. -1.
         -1   -1    0    0    0  501 -0.00000000000E+00 -0.00000000000E+00 -0.69597964155E+02  0.69597964155E+02  0.00000000000E+00 0.  1.
         23    2    1    2    0    0 -0.40218066579E+02 -0.15249523434E+03  0.15482725933E+03  0.23958711146E+03  0.92510617618E+02 0.  0.
          5    1    3    3  502    0 -0.23471887471E+01 -0.62990575920E+02  0.12110555185E+03  0.13660880879E+03  0.47000000000E+01 0. -1.
         -5    1    3    3    0  502 -0.37870877832E+02 -0.89504658420E+02  0.33721707481E+02  0.10297830268E+03  0.47000000000E+01 0.  1.
          5    1    1    2  503    0  0.42537970081E+02  0.94482124079E+02  0.35543427013E+03  0.37025931596E+03  0.47000000000E+01 0. -1.
         -5    1    1    2    0  503 -0.23199035023E+01  0.58013110262E+02  0.23023374712E+02  0.62634405063E+02  0.47000000000E+01 0.  1.
<mgrwt>
<rscale>  0 0.20296857E+03</rscale>
<asrwt>0</asrwt>
<pdfrwt beam="1">  1        1 0.92751207E-01 0.21015895E+03</pdfrwt>
<pdfrwt beam="2">  1       -1 0.10707380E-01 0.21015895E+03</pdfrwt>
<totfact> 0.19037948E+03</totfact>
</mgrwt>
</event>
<event>
 8    1  0.6396648E-004  0.1156736E+03  0.7546771E-02  0.1252883E+00
          4   -1    0    0  501    0  0.00000000000E+00  0.00000000000E+00  0.54272329404E+03  0.54272329404E+03  0.00000000000E+00 0. -1.
         -4   -1    0    0    0  501 -0.00000000000E+00 -0.00000000000E+00 -0.24788182255E+02  0.24788182255E+02  0.00000000000E+00 0.  1.
         23    2    1    2    0    0  0.51350728830E+02  0.52609222920E+02  0.33009817627E+03  0.34977875855E+03  0.89307033718E+02 0.  0.
         23    2    1    2    0    0 -0.51350728830E+02 -0.52609222920E+02  0.18783693552E+03  0.21773271774E+03  0.81976791494E+02 0.  0.
          5    1    3    3  502    0 -0.46312226742E+01 -0.21184450646E+02  0.80677693857E+02  0.83673230240E+02  0.47000000000E+01 0. -1.
         -5    1    4    4    0  503 -0.35022066199E+02 -0.71159208093E+02  0.16748909756E+03  0.18537763031E+03  0.47000000000E+01 0.  1.
          5    1    4    4  503    0 -0.16328662631E+02  0.18549985174E+02  0.20347837950E+02  0.32355087428E+02  0.47000000000E+01 0. -1.
         -5    1    3    3    0  502  0.55981951504E+02  0.73793673566E+02  0.24942048241E+03  0.26610552831E+03  0.47000000000E+01 0.  1.
<mgrwt>
<rscale>  0 0.11425758E+03</rscale>
<asrwt>0</asrwt>
<pdfrwt beam="1">  1        4 0.83495882E-01 0.11567357E+03</pdfrwt>
<pdfrwt beam="2">  1       -4 0.38135669E-02 0.11567357E+03</pdfrwt>
<totfact> 0.76330527E+02</totfact>
</mgrwt>
</event>
<event>
 8    1  0.6396648E-004  0.9598933E+02  0.7546771E-02  0.1289887E+00
         -4   -1    0    0    0  501 -0.00000000000E+00  0.00000000000E+00  0.22703780249E+02  0.22703780249E+02  0.00000000000E+00 0.  1.
          4   -1    0    0  501    0  0.00000000000E+00 -0.00000000000E+00 -0.49493226960E+03  0.49493226960E+03  0.00000000000E+00 0. -1.
         23    2    1    2    0    0 -0.13514897919E+01  0.27325545675E+02 -0.12375710542E+03  0.15661983354E+03  0.92007821114E+02 0.  0.
         23    2    1    2    0    0  0.13514897919E+01 -0.27325545675E+02 -0.34847138393E+03  0.36101621631E+03  0.90287823353E+02 0.  0.
          5    1    4    4  502    0  0.37568368723E+02 -0.28981869857E+02 -0.27328274123E+03  0.27741102675E+03  0.47000000000E+01 0. -1.
         -5    1    3    3    0  503 -0.37173935027E+02  0.36949617151E+02 -0.44232826135E+02  0.68744516587E+02  0.47000000000E+01 0.  1.
          5    1    3    3  503    0  0.35822445235E+02 -0.96240714756E+01 -0.79524279281E+02  0.87875316953E+02  0.47000000000E+01 0. -1.
         -5    1    4    4    0  502 -0.36216878931E+02  0.16563241823E+01 -0.75188642705E+02  0.83605189559E+02  0.47000000000E+01 0.  1.
<mgrwt>
<rscale>  0 0.95574806E+02</rscale>
<asrwt>0</asrwt>
<pdfrwt beam="1">  1        4 0.76143425E-01 0.95989328E+02</pdfrwt>
<pdfrwt beam="2">  1       -4 0.34928893E-02 0.95989328E+02</pdfrwt>
<totfact> 0.10281793E+03</totfact>
</mgrwt>
</event>
<event>
 8    1  0.6396648E-004  0.9300055E+02  0.7546771E-02  0.1296782E+00
         -3   -1    0    0    0  501 -0.00000000000E+00  0.00000000000E+00  0.34588396059E+02  0.34588396059E+02  0.00000000000E+00 0.  1.
          3   -1    0    0  501    0  0.00000000000E+00 -0.00000000000E+00 -0.29417431081E+03  0.29417431081E+03  0.00000000000E+00 0. -1.
         23    2    1    2    0    0 -0.26992164393E+01  0.14924193878E+02 -0.19574268530E+03  0.21595729783E+03  0.89957424963E+02 0.  0.
         23    2    1    2    0    0  0.26992164393E+01 -0.14924193878E+02 -0.63843229453E+02  0.11280540904E+03  0.91755572198E+02 0.  0.
          5    1    3    3  502    0  0.37676818003E+02  0.21087502286E+02 -0.14072741650E+03  0.14727702170E+03  0.47000000000E+01 0. -1.
         -5    1    4    4    0  503 -0.21649237814E+02  0.29379115284E+02 -0.86236258207E+01  0.37792576454E+02  0.47000000000E+01 0.  1.
          5    1    4    4  503    0  0.24348454253E+02 -0.44303309162E+02 -0.55219603633E+02  0.75012832586E+02  0.47000000000E+01 0. -1.
         -5    1    3    3    0  502 -0.40376034442E+02 -0.61633084076E+01 -0.55015268805E+02  0.68680276132E+02  0.47000000000E+01 0.  1.
<mgrwt>
<rscale>  0 0.92553942E+02</rscale>
<asrwt>0</asrwt>
<pdfrwt beam="1">  1        3 0.45257585E-01 0.93000550E+02</pdfrwt>
<pdfrwt beam="2">  1       -3 0.53212919E-02 0.93000550E+02</pdfrwt>
<totfact> 0.21466225E+03</totfact>
</mgrwt>
</event>
<event>
 8    1  0.6396648E-004  0.1072613E+03  0.7546771E-02  0.1265806E+00
          1   -1    0    0  501    0  0.00000000000E+00  0.00000000000E+00  0.22503405476E+02  0.22503405476E+02  0.00000000000E+00 0. -1.
         -1   -1    0    0    0  501 -0.00000000000E+00 -0.00000000000E+00 -0.51283318750E+03  0.51283318750E+03  0.00000000000E+00 0.  1.
         23    2    1    2    0    0 -0.54319386479E+02 -0.16539469430E+02 -0.26314349262E+03  0.28410245101E+03  0.90805039310E+02 0.  0.
         23    2    1    2    0    0  0.54319386479E+02  0.16539469430E+02 -0.22718628941E+03  0.25123414197E+03  0.90999089009E+02 0.  0.
          5    1    4    4  502    0  0.24779572921E+02  0.43276371632E+02 -0.54808023227E+02  0.74248777673E+02  0.47000000000E+01 0. -1.
         -5    1    4    4    0  502  0.29539813557E+02 -0.26736902202E+02 -0.17237826618E+03  0.17698536430E+03  0.47000000000E+01 0.  1.
          5    1    3    3  503    0 -0.15548890074E+02  0.31758994411E+02 -0.45771152811E+02  0.58030079598E+02  0.47000000000E+01 0. -1.
         -5    1    3    3    0  503 -0.38770496405E+02 -0.48298463841E+02 -0.21737233981E+03  0.22607237141E+03  0.47000000000E+01 0.  1.
<mgrwt>
<rscale>  0 0.10722012E+03</rscale>
<asrwt>0</asrwt>
<pdfrwt beam="1">  1        1 0.34620626E-02 0.10726129E+03</pdfrwt>
<pdfrwt beam="2">  1       -1 0.78897408E-01 0.10726129E+03</pdfrwt>
<totfact> 0.43988614E+03</totfact>
</mgrwt>
</event>
<event>
 8    1  0.6396648E-004  0.9659200E+02  0.7546771E-02  0.1290647E+00
         -1   -1    0    0    0  501 -0.00000000000E+00  0.00000000000E+00  0.59401062537E+02  0.59401062537E+02  0.00000000000E+00 0.  1.
          1   -1    0    0  501    0  0.00000000000E+00 -0.00000000000E+00 -0.37618837955E+03  0.37618837955E+03  0.00000000000E+00 0. -1.
         23    2    1    2    0    0  0.66001734700E+01 -0.10044710129E+01  0.12771129415E+02  0.92167275940E+02  0.91033695716E+02 0.  0.
         23    2    1    2    0    0 -0.66001734700E+01  0.10044710129E+01 -0.32955844643E+03  0.34342216615E+03  0.96361005272E+02 0.  0.
          5    1    3    3  502    0  0.23429789190E+02 -0.38361723404E+02 -0.81462324693E+01  0.45924154292E+02  0.47000000000E+01 0. -1.
         -5    1    4    4    0  503 -0.36140523800E+02  0.23400566576E+02 -0.79006329089E+02  0.90098912384E+02  0.47000000000E+01 0.  1.
          5    1    4    4  503    0  0.29540350330E+02 -0.22396095563E+02 -0.25055211734E+03  0.25332325377E+03  0.47000000000E+01 0. -1.
         -5    1    3    3    0  502 -0.16829615720E+02  0.37357252391E+02  0.20917361884E+02  0.46243121647E+02  0.47000000000E+01 0.  1.
<mgrwt>
<rscale>  0 0.95235224E+02</rscale>
<asrwt>0</asrwt>
<pdfrwt beam="1">  1        1 0.57875135E-01 0.96592001E+02</pdfrwt>
<pdfrwt beam="2">  1       -1 0.91386250E-02 0.96592001E+02</pdfrwt>
<totfact> 0.43463289E+03</totfact>
</mgrwt>
</event>
<event>
 8    1  0.6396648E-004  0.1002763E+03  0.7546771E-02  0.1282892E+00
         -1   -1    0    0    0  501 -0.00000000000E+00  0.00000000000E+00  0.33700544762E+02  0.33700544762E+02  0.00000000000E+00 0.  1.
          1   -1    0    0  501    0  0.00000000000E+00 -0.00000000000E+00 -0.36348178161E+03  0.36348178161E+03  0.00000000000E+00 0. -1.
         23    2    1    2    0    0 -0.24874626596E+02  0.33989372074E+01 -0.66570143501E+02  0.11551687611E+03  0.91006949396E+02 0.  0.
         23    2    1    2    0    0  0.24874626596E+02 -0.33989372074E+01 -0.26321109334E+03  0.28166545026E+03  0.97082678098E+02 0.  0.
          5    1    4    4  502    0 -0.30730439845E+02 -0.22275074442E+01 -0.17146679739E+03  0.17427643079E+03  0.47000000000E+01 0. -1.
         -5    1    4    4    0  502  0.55605066441E+02 -0.11714297633E+01 -0.91744295957E+02  0.10738901947E+03  0.47000000000E+01 0.  1.
          5    1    3    3  503    0 -0.53276753951E+02  0.24273395271E+02 -0.38716586923E+02  0.70346814658E+02  0.47000000000E+01 0. -1.
         -5    1    3    3    0  503  0.28402127355E+02 -0.20874458063E+02 -0.27853556577E+02  0.45170061454E+02  0.47000000000E+01 0.  1.
<mgrwt>
<rscale>  0 0.98775497E+02</rscale>
<asrwt>0</asrwt>
<pdfrwt beam="1">  1        1 0.55920277E-01 0.10027635E+03</pdfrwt>
<pdfrwt beam="2">  1       -1 0.51846989E-02 0.10027635E+03</pdfrwt>
<totfact> 0.10556713E+04</totfact>
</mgrwt>
</event>
<event>
 8    1  0.6396648E-004  0.1607541E+03  0.7546771E-02  0.1188483E+00
          1   -1    0    0  501    0  0.00000000000E+00  0.00000000000E+00  0.37465866618E+03  0.37465866618E+03  0.00000000000E+00 0. -1.
         -1   -1    0    0    0  501 -0.00000000000E+00 -0.00000000000E+00 -0.28377707463E+03  0.28377707463E+03  0.00000000000E+00 0.  1.
         23    2    1    2    0    0 -0.11792281109E+03 -0.59387357475E+02 -0.24154785449E+03  0.29015037004E+03  0.91701819057E+02 0.  0.
         23    2    1    2    0    0  0.11792281109E+03  0.59387357475E+02  0.33242944603E+03  0.36828537078E+03  0.87704789683E+02 0.  0.
          5    1    4    4  502    0  0.64493439800E+02  0.77792135247E+02  0.22855137821E+03  0.24993767736E+03  0.47000000000E+01 0. -1.
         -5    1    3    3    0  503 -0.12877282669E+03 -0.34819622933E+02 -0.19942532490E+03  0.23997374283E+03  0.47000000000E+01 0.  1.
          5    1    3    3  503    0  0.10850015596E+02 -0.24567734541E+02 -0.42122529590E+02  0.50176627208E+02  0.47000000000E+01 0. -1.
         -5    1    4    4    0  502  0.53429371291E+02 -0.18404777772E+02  0.10387806782E+03  0.11834769341E+03  0.47000000000E+01 0.  1.
<mgrwt>
<rscale>  0 0.16018958E+03</rscale>
<asrwt>0</asrwt>
<pdfrwt beam="1">  1        1 0.57639795E-01 0.16075407E+03</pdfrwt>
<pdfrwt beam="2">  1       -1 0.43658011E-01 0.16075407E+03</pdfrwt>
<totfact> 0.35297196E+02</totfact>
</mgrwt>
</event>
<event>
 8    1  0.6396648E-004  0.1083170E+03  0.7546771E-02  0.1265088E+00
          1   -1    0    0  501    0  0.00000000000E+00  0.00000000000E+00  0.16038544846E+03  0.16038544846E+03  0.00000000000E+00 0. -1.
         -1   -1    0    0    0  501 -0.00000000000E+00 -0.00000000000E+00 -0.16115333942E+03  0.16115333942E+03  0.00000000000E+00 0.  1.
         23    2    1    2    0    0  0.53043983062E+02  0.18895939863E+02 -0.12046616776E+03  0.16010693098E+03  0.89170685140E+02 0.  0.
         23    2    1    2    0    0 -0.53043983062E+02 -0.18895939863E+02  0.11969827680E+03  0.16143185690E+03  0.92530245174E+02 0.  0.
          5    1    3    3  502    0  0.32291891035E+02  0.58627341673E+01  0.37897022960E+01  0.33370491786E+02  0.47000000000E+01 0. -1.
         -5    1    4    4    0  503 -0.19157404571E+02 -0.39956472265E+02  0.11506114704E+02  0.46021804630E+02  0.47000000000E+01 0.  1.
          5    1    4    4  503    0 -0.33886578491E+02  0.21060532403E+02  0.10819216209E+03  0.11541005227E+03  0.47000000000E+01 0. -1.
         -5    1    3    3    0  502  0.20752092026E+02  0.13033205695E+02 -0.12425587006E+03  0.12673643919E+03  0.47000000000E+01 0.  1.
<mgrwt>
<rscale>  0 0.10759594E+03</rscale>
<asrwt>0</asrwt>
<pdfrwt beam="1">  1        1 0.24674684E-01 0.10831697E+03</pdfrwt>
<pdfrwt beam="2">  1       -1 0.24792821E-01 0.10831697E+03</pdfrwt>
<totfact> 0.26337178E+03</totfact>
</mgrwt>
</event>
<event>
 8    1  0.6396648E-004  0.1100613E+03  0.7546771E-02  0.1261003E+00
          1   -1    0    0  501    0  0.00000000000E+00  0.00000000000E+00  0.31436772706E+03  0.31436772706E+03  0.00000000000E+00 0. -1.
         -1   -1    0    0    0  501 -0.00000000000E+00 -0.00000000000E+00 -0.38900777729E+02  0.38900777729E+02  0.00000000000E+00 0.  1.
         23    2    1    2    0    0 -0.20520929941E+02  0.57229144444E+02  0.16199304762E+03  0.19518685805E+03  0.90332046024E+02 0.  0.
         23    2    1    2    0    0  0.20520929941E+02 -0.57229144444E+02  0.11347390171E+03  0.15808164673E+03  0.91745283947E+02 0.  0.
          5    1    4    4  502    0 -0.22789743085E+02  0.11533246798E+02  0.43863125031E+02  0.50975012595E+02  0.47000000000E+01 0. -1.
         -5    1    3    3    0  503  0.21123595961E+02 -0.42436484988E+00  0.94773487676E+02  0.97213632573E+02  0.47000000000E+01 0.  1.
          5    1    3    3  503    0 -0.41644525901E+02  0.57653509294E+02  0.67219559948E+02  0.97973225480E+02  0.47000000000E+01 0. -1.
         -5    1    4    4    0  502  0.43310673026E+02 -0.68762391242E+02  0.69610776676E+02  0.10710663414E+03  0.47000000000E+01 0.  1.
<mgrwt>
<rscale>  0 0.10976626E+03</rscale>
<asrwt>0</asrwt>
<pdfrwt beam="1">  1        1 0.48364264E-01 0.11006126E+03</pdfrwt>
<pdfrwt beam="2">  1       -1 0.59847352E-02 0.11006126E+03</pdfrwt>
<totfact> 0.10298637E+04</totfact>
</mgrwt>
</event>
<event>
 8    1  0.6396648E-004  0.1036441E+03  0.7546771E-02  0.1274338E+00
         -1   -1    0    0    0  501 -0.00000000000E+00  0.00000000000E+00  0.10259270989E+03  0.10259270989E+03  0.00000000000E+00 0.  1.
          1   -1    0    0  501    0  0.00000000000E+00 -0.00000000000E+00 -0.12063886363E+03  0.12063886363E+03  0.00000000000E+00 0. -1.
         23    2    1    2    0    0  0.40639524825E+02 -0.12526941196E+02 -0.53126734672E+02  0.11381153372E+03  0.91225654495E+02 0.  0.
         23    2    1    2    0    0 -0.40639524825E+02  0.12526941196E+02  0.35080580932E+02  0.10942003979E+03  0.94517737573E+02 0.  0.
          5    1    3    3  502    0  0.57394847872E+02 -0.36291841215E+02 -0.49435132004E+02  0.84126027942E+02  0.47000000000E+01 0. -1.
         -5    1    4    4    0  503 -0.62203137552E+02  0.20586782728E+02 -0.17733223121E+01  0.65713625805E+02  0.47000000000E+01 0.  1.
          5    1    4    4  503    0  0.21563612727E+02 -0.80598415320E+01  0.36853903244E+02  0.43706413988E+02  0.47000000000E+01 0. -1.
         -5    1    3    3    0  502 -0.16755323047E+02  0.23764900019E+02 -0.36916026677E+01  0.29685505782E+02  0.47000000000E+01 0.  1.
<mgrwt>
<rscale>  0 0.10288757E+03</rscale>
<asrwt>0</asrwt>
<pdfrwt beam="1">  1        1 0.18559825E-01 0.10364409E+03</pdfrwt>
<pdfrwt beam="2">  1       -1 0.15783494E-01 0.10364409E+03</pdfrwt>
<totfact> 0.77165722E+03</totfact>
</mgrwt>
</event>
<event>
 8    1  0.6396648E-004  0.1062478E+03  0.7546771E-02  0.1269637E+00
          1   -1    0    0  501    0  0.00000000000E+00  0.00000000000E+00  0.67691731033E+02  0.67691731033E+02  0.00000000000E+00 0. -1.
         -1   -1    0    0    0  501 -0.00000000000E+00 -0.00000000000E+00 -0.16340313261E+03  0.16340313261E+03  0.00000000000E+00 0.  1.
         23    2    1    2    0    0 -0.37381659096E+02 -0.36251377931E+02 -0.62045191730E+02  0.11964079869E+03  0.88049781697E+02 0.  0.
         23    2    1    2    0    0  0.37381659096E+02  0.36251377931E+02 -0.33666209852E+02  0.11145406495E+03  0.92612332171E+02 0.  0.
          5    1    4    4  502    0 -0.16448480521E+02  0.17913183150E+02  0.20969163410E+02  0.32453512231E+02  0.47000000000E+01 0. -1.
         -5    1    3    3    0  503  0.14385424188E+02 -0.33811231088E+02 -0.56153017256E+02  0.67271027372E+02  0.47000000000E+01 0.  1.
          5    1    3    3  503    0 -0.51767083284E+02 -0.24401468425E+01 -0.58921744740E+01  0.52369771322E+02  0.47000000000E+01 0. -1.
         -5    1    4    4    0  502  0.53830139617E+02  0.18338194781E+02 -0.54635373261E+02  0.79000552722E+02  0.47000000000E+01 0.  1.
<mgrwt>
<rscale>  0 0.10524557E+03</rscale>
<asrwt>0</asrwt>
<pdfrwt beam="1">  1        1 0.10414113E-01 0.10624780E+03</pdfrwt>
<pdfrwt beam="2">  1       -1 0.25138943E-01 0.10624780E+03</pdfrwt>
<totfact> 0.77567309E+03</totfact>
</mgrwt>
</event>
<event>
 8    1  0.6396648E-004  0.9862251E+02  0.7546771E-02  0.1283514E+00
         -1   -1    0    0    0  501 -0.00000000000E+00  0.00000000000E+00  0.16986506639E+03  0.16986506639E+03  0.00000000000E+00 0.  1.
          1   -1    0    0  501    0  0.00000000000E+00 -0.00000000000E+00 -0.17165175864E+03  0.17165175864E+03  0.00000000000E+00 0. -1.
         23    2    1    2    0    0  0.18830897831E+02 -0.35372334425E+02  0.13869843379E+03  0.16987047171E+03  0.89514897466E+02 0.  0.
         23    2    1    2    0    0 -0.18830897831E+02  0.35372334425E+02 -0.14048512603E+03  0.17164635332E+03  0.90114345231E+02 0.  0.
          5    1    4    4  502    0  0.10736401133E+02  0.49047909796E+02 -0.12594104169E+03  0.13566209400E+03  0.47000000000E+01 0. -1.
         -5    1    4    4    0  502 -0.29567298964E+02 -0.13675575371E+02 -0.14544084334E+02  0.35984259321E+02  0.47000000000E+01 0.  1.
          5    1    3    3  503    0  0.38933407894E+02 -0.12666939331E+02  0.17371486164E+02  0.44722702666E+02  0.47000000000E+01 0. -1.
         -5    1    3    3    0  503 -0.20102510063E+02 -0.22705395094E+02  0.12132694762E+03  0.12514776904E+03  0.47000000000E+01 0.  1.
<mgrwt>
<rscale>  0 0.98485369E+02</rscale>
<asrwt>0</asrwt>
<pdfrwt beam="1">  1        1 0.26407963E-01 0.98622513E+02</pdfrwt>
<pdfrwt beam="2">  1       -1 0.26133087E-01 0.98622513E+02</pdfrwt>
<totfact> 0.22107590E+03</totfact>
</mgrwt>
</event>
<event>
 8    1  0.6396648E-004  0.9257711E+02  0.7546771E-02  0.1296793E+00
         -2   -1    0    0    0  501 -0.00000000000E+00  0.00000000000E+00  0.14754100304E+02  0.14754100304E+02  0.00000000000E+00 0.  1.
          2   -1    0    0  501    0  0.00000000000E+00 -0.00000000000E+00 -0.60073884126E+03  0.60073884126E+03  0.00000000000E+00 0. -1.
         23    2    1    2    0    0  0.47945543915E+00  0.12373314345E+02 -0.35007581912E+03  0.36210992769E+03  0.91745254978E+02 0.  0.
         23    2    1    2    0    0 -0.47945543915E+00 -0.12373314345E+02 -0.23590892184E+03  0.25338301388E+03  0.91632982786E+02 0.  0.
          5    1    3    3  502    0 -0.32763669161E+02  0.37927997673E+02 -0.19603098195E+03  0.20239127182E+03  0.47000000000E+01 0. -1.
         -5    1    4    4    0  503  0.29012830291E+02  0.27723814376E+02 -0.79504457290E+02  0.89181853165E+02  0.47000000000E+01 0.  1.
          5    1    4    4  503    0 -0.29492285730E+02 -0.40097128721E+02 -0.15640446455E+03  0.16420116071E+03  0.47000000000E+01 0. -1.
         -5    1    3    3    0  502  0.33243124600E+02 -0.25554683329E+02 -0.15404483717E+03  0.15971865587E+03  0.47000000000E+01 0.  1.
<mgrwt>
<rscale>  0 0.92549278E+02</rscale>
<asrwt>0</asrwt>
<pdfrwt beam="1">  1        2 0.92421361E-01 0.92577106E+02</pdfrwt>
<pdfrwt beam="2">  1       -2 0.22698616E-02 0.92577106E+02</pdfrwt>
<totfact> 0.29142382E+04</totfact>
</mgrwt>
</event>
<event>
 8    1  0.6396648E-004  0.1289122E+03  0.7546771E-02  0.1229506E+00
          2   -1    0    0  501    0  0.00000000000E+00  0.00000000000E+00  0.24630637847E+03  0.24630637847E+03  0.00000000000E+00 0. -1.
         -2   -1    0    0    0  501 -0.00000000000E+00 -0.00000000000E+00 -0.71109035391E+02  0.71109035391E+02  0.00000000000E+00 0.  1.
         23    2    1    2    0    0  0.74340496472E+02 -0.49443284970E+02  0.49251897558E+02  0.13800036126E+03  0.92990335251E+02 0.  0.
         23    2    1    2    0    0 -0.74340496472E+02  0.49443284970E+02  0.12594544552E+03  0.17941505260E+03  0.91413117265E+02 0.  0.
          5    1    3    3  502    0  0.49145740570E+02 -0.63349219045E+02  0.66368582785E+02  0.10418880050E+03  0.47000000000E+01 0. -1.
         -5    1    4    4    0  503 -0.42661436102E+02  0.68870828572E+02  0.11432152684E+03  0.14019518771E+03  0.47000000000E+01 0.  1.
          5    1    4    4  503    0 -0.31679060371E+02 -0.19427543602E+02  0.11623918679E+02  0.39219864888E+02  0.47000000000E+01 0. -1.
         -5    1    3    3    0  502  0.25194755903E+02  0.13905934075E+02 -0.17116685227E+02  0.33811560754E+02  0.47000000000E+01 0.  1.
<mgrwt>
<rscale>  0 0.12862798E+03</rscale>
<asrwt>0</asrwt>
<pdfrwt beam="1">  1        2 0.37893289E-01 0.12891218E+03</pdfrwt>
<pdfrwt beam="2">  1       -2 0.10939852E-01 0.12891218E+03</pdfrwt>
<totfact> 0.73707339E+03</totfact>
</mgrwt>
</event>
<event>
 7    1  0.6396648E-004  0.1482766E+03  0.7546771E-02  0.1213423E+00
         -1   -1    0    0    0  501 -0.00000000000E+00  0.00000000000E+00  0.73196306761E+03  0.73196306761E+03  0.00000000000E+00 0.  1.
          1   -1    0    0  501    0  0.00000000000E+00 -0.00000000000E+00 -0.31600716211E+02  0.31600716211E+02  0.00000000000E+00 0. -1.
         23    2    1    2    0    0 -0.25713128363E+02 -0.69655073494E+02  0.50381473062E+03  0.51735874158E+03  0.91201921385E+02 0.  0.
          5    1    1    2  502    0  0.37833649032E+02  0.42787957903E+02  0.11103551570E+02  0.58374422464E+02  0.47000000000E+01 0. -1.
         -5    1    3    3    0  503 -0.48949856827E+02 -0.24599459654E+02  0.37221018131E+03  0.37624955943E+03  0.47000000000E+01 0.  1.
          5    1    3    3  503    0  0.23236728464E+02 -0.45055613840E+02  0.13160454931E+03  0.14110918215E+03  0.47000000000E+01 0. -1.
         -5    1    1    2    0  502 -0.12120520668E+02  0.26867115591E+02  0.18544406921E+03  0.18783061978E+03  0.47000000000E+01 0.  1.
<mgrwt>
<rscale>  0 0.13992985E+03</rscale>
<asrwt>0</asrwt>
<pdfrwt beam="1">  1        1 0.48616492E-02 0.14827662E+03</pdfrwt>
<pdfrwt beam="2">  1       -1 0.11260969E+00 0.14827662E+03</pdfrwt>
<totfact> 0.13053776E+03</totfact>
</mgrwt>
</event>
<event>
 8    1  0.6396648E-004  0.1016959E+03  0.7546771E-02  0.1278669E+00
          1   -1    0    0  501    0  0.00000000000E+00  0.00000000000E+00  0.86338803552E+03  0.86338803552E+03  0.00000000000E+00 0. -1.
         -1   -1    0    0    0  501 -0.00000000000E+00 -0.00000000000E+00 -0.16590141547E+02  0.16590141547E+02  0.00000000000E+00 0.  1.
         23    2    1    2    0    0  0.34897360440E+02 -0.11423641437E+02  0.66040487422E+03  0.66764725283E+03  0.90939160813E+02 0.  0.
         23    2    1    2    0    0 -0.34897360440E+02  0.11423641437E+02  0.18639301976E+03  0.21233092424E+03  0.94835321612E+02 0.  0.
          5    1    3    3  502    0  0.29273273113E+02  0.34427415865E+02  0.21019881344E+03  0.21505302289E+03  0.47000000000E+01 0. -1.
         -5    1    4    4    0  503 -0.59256838628E+01  0.30667079639E+02  0.10977961530E+02  0.33439335254E+02  0.47000000000E+01 0.  1.
          5    1    4    4  503    0 -0.28971676577E+02 -0.19243438202E+02  0.17541505823E+03  0.17889158899E+03  0.47000000000E+01 0. -1.
         -5    1    3    3    0  502  0.56240873274E+01 -0.45851057302E+02  0.45020606078E+03  0.45259422994E+03  0.47000000000E+01 0.  1.
<mgrwt>
<rscale>  0 0.10077777E+03</rscale>
<asrwt>0</asrwt>
<pdfrwt beam="1">  1        1 0.13282889E+00 0.10169594E+03</pdfrwt>
<pdfrwt beam="2">  1       -1 0.25523301E-02 0.10169594E+03</pdfrwt>
<totfact> 0.92515505E+03</totfact>
</mgrwt>
</event>
<event>
 8    1  0.6396648E-004  0.1040662E+03  0.7546771E-02  0.1273708E+00
          2   -1    0    0  501    0  0.00000000000E+00  0.00000000000E+00  0.62962868065E+03  0.62962868065E+03  0.00000000000E+00 0. -1.
         -2   -1    0    0    0  501 -0.00000000000E+00 -0.00000000000E+00 -0.21111964132E+02  0.21111964132E+02  0.00000000000E+00 0.  1.
         23    2    1    2    0    0  0.47237870940E+02  0.15728934040E+00  0.44999690441E+03  0.46111390508E+03  0.88867194638E+02 0.  0.
         23    2    1    2    0    0 -0.47237870940E+02 -0.15728934040E+00  0.15851981211E+03  0.18962673971E+03  0.92727171804E+02 0.  0.
          5    1    4    4  502    0 -0.69962526269E+01 -0.25639338837E+02  0.13235640939E+03  0.13508009606E+03  0.47000000000E+01 0. -1.
         -5    1    4    4    0  502 -0.40241618314E+02  0.25482049496E+02  0.26163402723E+02  0.54546643646E+02  0.47000000000E+01 0.  1.
          5    1    3    3  503    0  0.42799430772E+02  0.25363434151E+02  0.41224407081E+03  0.41526179572E+03  0.47000000000E+01 0. -1.
         -5    1    3    3    0  503  0.44384401680E+01 -0.25206144811E+02  0.37752833599E+02  0.45852109353E+02  0.47000000000E+01 0.  1.
<mgrwt>
<rscale>  0 0.10319937E+03</rscale>
<asrwt>0</asrwt>
<pdfrwt beam="1">  1        2 0.96865937E-01 0.10406618E+03</pdfrwt>
<pdfrwt beam="2">  1       -2 0.32479950E-02 0.10406618E+03</pdfrwt>
<totfact> 0.16608103E+04</totfact>
</mgrwt>
</event>
<event>
 8    1  0.6396648E-004  0.9920336E+02  0.7546771E-02  0.1285898E+00
          2   -1    0    0  501    0  0.00000000000E+00  0.00000000000E+00  0.10120123583E+04  0.10120123583E+04  0.00000000000E+00 0. -1.
         -2   -1    0    0    0  501 -0.00000000000E+00 -0.00000000000E+00 -0.12576165369E+02  0.12576165369E+02  0.00000000000E+00 0.  1.
         23    2    1    2    0    0  0.10235644727E+02 -0.23471375463E+02  0.75783894234E+03  0.76341705221E+03  0.88487621692E+02 0.  0.
         23    2    1    2    0    0 -0.10235644727E+02  0.23471375463E+02  0.24159725064E+03  0.26117147150E+03  0.95841703459E+02 0.  0.
          5    1    4    4  502    0 -0.19928519659E+02  0.58791714988E+02  0.14899358131E+03  0.16147689903E+03  0.47000000000E+01 0. -1.
         -5    1    4    4    0  502  0.96928749322E+01 -0.35320339524E+02  0.92603669322E+02  0.99694572473E+02  0.47000000000E+01 0.  1.
          5    1    3    3  503    0 -0.34715819662E+02  0.93179673431E+01  0.30783537027E+03  0.30996244586E+03  0.47000000000E+01 0. -1.
         -5    1    3    3    0  503  0.44951464389E+02 -0.32789342807E+02  0.45000357206E+03  0.45345460635E+03  0.47000000000E+01 0.  1.
<mgrwt>
<rscale>  0 0.97382506E+02</rscale>
<asrwt>0</asrwt>
<pdfrwt beam="1">  1        2 0.15569415E+00 0.99203357E+02</pdfrwt>
<pdfrwt beam="2">  1       -2 0.19347955E-02 0.99203357E+02</pdfrwt>
<totfact> 0.19513560E+04</totfact>
</mgrwt>
</event>
<event>
 8    1  0.6396648E-004  0.1059547E+03  0.7546771E-02  0.1269270E+00
          2   -1    0    0  501    0  0.00000000000E+00  0.00000000000E+00  0.46168020800E+02  0.46168020800E+02  0.00000000000E+00 0. -1.
         -2   -1    0    0    0  501 -0.00000000000E+00 -0.00000000000E+00 -0.45714472083E+03  0.45714472083E+03  0.00000000000E+00 0.  1.
         23    2    1    2    0    0 -0.83018724050E+01 -0.51765267215E+02 -0.38061201893E+03  0.39508467402E+03  0.92075114507E+02 0.  0.
         23    2    1    2    0    0  0.83018724050E+01  0.51765267215E+02 -0.30364681099E+02  0.10822806761E+03  0.89681306781E+02 0.  0.
          5    1    4    4  502    0  0.46023417956E+02  0.10524003665E+02 -0.95090001259E+01  0.48388229322E+02  0.47000000000E+01 0. -1.
         -5    1    4    4    0  502 -0.37721545551E+02  0.41241263551E+02 -0.20855680973E+02  0.59839838293E+02  0.47000000000E+01 0.  1.
          5    1    3    3  503    0 -0.46742748474E+02 -0.27736237766E+02 -0.26990219395E+03  0.27536061396E+03  0.47000000000E+01 0. -1.
         -5    1    3    3    0  503  0.38440876069E+02 -0.24029029449E+02 -0.11070982498E+03  0.11972406006E+03  0.47000000000E+01 0.  1.
<mgrwt>
<rscale>  0 0.10543245E+03</rscale>
<asrwt>0</asrwt>
<pdfrwt beam="1">  1        2 0.71027722E-02 0.10595466E+03</pdfrwt>
<pdfrwt beam="2">  1       -2 0.70329959E-01 0.10595466E+03</pdfrwt>
<totfact> 0.17807387E+03</totfact>
</mgrwt>
</event>
<event>
 8    1  0.6396648E-004  0.1096027E+03  0.7546771E-02  0.1265296E+00
         -3   -1    0    0    0  501 -0.00000000000E+00  0.00000000000E+00  0.69348304992E+03  0.69348304992E+03  0.00000000000E+00 0.  1.
          3   -1    0    0  501    0  0.00000000000E+00 -0.00000000000E+00 -0.19156654264E+02  0.19156654264E+02  0.00000000000E+00 0. -1.
         23    2    1    2    0    0 -0.63352194535E+02  0.41053623793E+01  0.18269184156E+03  0.20893612835E+03  0.79042028094E+02 0.  0.
         23    2    1    2    0    0  0.63352194535E+02 -0.41053623793E+01  0.49163455409E+03  0.50370357583E+03  0.89344294573E+02 0.  0.
          5    1    4    4  502    0  0.58442822215E+01 -0.40230970609E+02  0.21081455813E+03  0.21474998149E+03  0.47000000000E+01 0. -1.
         -5    1    4    4    0  502  0.57507912314E+02  0.36125608230E+02  0.28081999596E+03  0.28895359434E+03  0.47000000000E+01 0.  1.
          5    1    3    3  503    0 -0.30412372395E+02 -0.13910357378E+02  0.14867275641E+02  0.36899001640E+02  0.47000000000E+01 0. -1.
         -5    1    3    3    0  503 -0.32939822141E+02  0.18015719758E+02  0.16782456592E+03  0.17203712671E+03  0.47000000000E+01 0.  1.
<mgrwt>
<rscale>  0 0.10748666E+03</rscale>
<asrwt>0</asrwt>
<pdfrwt beam="1">  1        3 0.29471781E-02 0.10960273E+03</pdfrwt>
<pdfrwt beam="2">  1       -3 0.10668968E+00 0.10960273E+03</pdfrwt>
<totfact> 0.91075545E+02</totfact>
</mgrwt>
</event>
<event>
 8    1  0.6396648E-004  0.1168310E+03  0.7546771E-02  0.1249269E+00
         -1   -1    0    0    0  501 -0.00000000000E+00  0.00000000000E+00  0.37371795090E+02  0.37371795090E+02  0.00000000000E+00 0.  1.
          1   -1    0    0  501    0  0.00000000000E+00 -0.00000000000E+00 -0.49875563927E+03  0.49875563927E+03  0.00000000000E+00 0. -1.
         23    2    1    2    0    0 -0.81542754755E+01  0.74513718359E+02 -0.90259036209E+02  0.14763528429E+03  0.89614156898E+02 0.  0.
         23    2    1    2    0    0  0.81542754755E+01 -0.74513718359E+02 -0.37112480798E+03  0.38849215008E+03  0.87027243700E+02 0.  0.
          5    1    4    4  502    0  0.41424320805E+02 -0.30257530415E+02 -0.10922918977E+03  0.12076671064E+03  0.47000000000E+01 0. -1.
         -5    1    3    3    0  503 -0.42165957179E+02  0.53025151395E+02 -0.28210108304E+02  0.73535942476E+02  0.47000000000E+01 0.  1.
          5    1    3    3  503    0  0.34011681704E+02  0.21488566964E+02 -0.62048927905E+02  0.74099341810E+02  0.47000000000E+01 0. -1.
         -5    1    4    4    0  502 -0.33270045330E+02 -0.44256187944E+02 -0.26189561821E+03  0.26772543944E+03  0.47000000000E+01 0.  1.
<mgrwt>
<rscale>  0 0.11633478E+03</rscale>
<asrwt>0</asrwt>
<pdfrwt beam="1">  1        1 0.76731628E-01 0.11683100E+03</pdfrwt>
<pdfrwt beam="2">  1       -1 0.57495076E-02 0.11683100E+03</pdfrwt>
<totfact> 0.61468968E+03</totfact>
</mgrwt>
</event>
<event>
 8    1  0.6396648E-004  0.1193546E+03  0.7546771E-02  0.1244749E+00
          1   -1    0    0  501    0  0.00000000000E+00  0.00000000000E+00  0.26943380419E+03  0.26943380419E+03  0.00000000000E+00 0. -1.
         -1   -1    0    0    0  501 -0.00000000000E+00 -0.00000000000E+00 -0.90604879544E+02  0.90604879544E+02  0.00000000000E+00 0.  1.
         23    2    1    2    0    0 -0.42973878865E+02  0.61344652381E+02 -0.27398303427E+02  0.12245891569E+03  0.92927920249E+02 0.  0.
         23    2    1    2    0    0  0.42973878865E+02 -0.61344652381E+02  0.20622722807E+03  0.23757976804E+03  0.91129336346E+02 0.  0.
          5    1    3    3  502    0  0.14150259120E+02 -0.16658030106E+02 -0.23924325555E+01  0.22484072890E+02  0.47000000000E+01 0. -1.
         -5    1    3    3    0  502 -0.57124137984E+02  0.78002682487E+02 -0.25005870872E+02  0.99974842804E+02  0.47000000000E+01 0.  1.
          5    1    4    4  503    0  0.69721115549E+02 -0.36709874547E+02  0.11725657001E+03  0.14135006916E+03  0.47000000000E+01 0. -1.
         -5    1    4    4    0  503 -0.26747236685E+02 -0.24634777834E+02  0.88970658067E+02  0.96229698877E+02  0.47000000000E+01 0.  1.
<mgrwt>
<rscale>  0 0.11900432E+03</rscale>
<asrwt>0</asrwt>
<pdfrwt beam="1">  1        1 0.41451354E-01 0.11935459E+03</pdfrwt>
<pdfrwt beam="2">  1       -1 0.13939212E-01 0.11935459E+03</pdfrwt>
<totfact> 0.34807861E+03</totfact>
</mgrwt>
</event>
<event>
 8    1  0.6396648E-004  0.1175165E+03  0.7546771E-02  0.1247713E+00
          2   -1    0    0  501    0  0.00000000000E+00  0.00000000000E+00  0.21641377762E+03  0.21641377762E+03  0.00000000000E+00 0.  1.
         -2   -1    0    0    0  501 -0.00000000000E+00 -0.00000000000E+00 -0.73003084610E+02  0.73003084610E+02  0.00000000000E+00 0. -1.
         23    2    1    2    0    0  0.46282620946E+02 -0.49190359693E+02  0.12437335282E+03  0.17036831400E+03  0.94841230666E+02 0.  0.
         23    2    1    2    0    0 -0.46282620946E+02  0.49190359693E+02  0.19037340191E+02  0.11904854823E+03  0.96168414913E+02 0.  0.
          5    1    3    3  502    0  0.37880937322E+01 -0.58289368852E+02  0.28847593151E+02  0.65316719192E+02  0.47000000000E+01 0. -1.
         -5    1    3    3    0  502  0.42494527214E+02  0.90990091591E+01  0.95525759673E+02  0.10505159481E+03  0.47000000000E+01 0.  1.
          5    1    4    4  503    0 -0.17634901908E+02 -0.28905220734E+02  0.46757714869E+01  0.34502962046E+02  0.47000000000E+01 0. -1.
         -5    1    4    4    0  503 -0.28647719038E+02  0.78095580427E+02  0.14361568704E+02  0.84545586188E+02  0.47000000000E+01 0.  1.
<mgrwt>
<rscale>  0 0.11724470E+03</rscale>
<asrwt>0</asrwt>
<pdfrwt beam="1">  1        2 0.33294427E-01 0.11751654E+03</pdfrwt>
<pdfrwt beam="2">  1       -2 0.11231244E-01 0.11751654E+03</pdfrwt>
<totfact> 0.80624844E+03</totfact>
</mgrwt>
</event>
<event>
 8    1  0.6396648E-004  0.9273302E+02  0.7546771E-02  0.1297131E+00
         -2   -1    0    0    0  501 -0.00000000000E+00  0.00000000000E+00  0.19409767186E+03  0.19409767186E+03  0.00000000000E+00 0.  1.
          2   -1    0    0  501    0  0.00000000000E+00 -0.00000000000E+00 -0.73081236772E+02  0.73081236772E+02  0.00000000000E+00 0. -1.
         23    2    1    2    0    0 -0.11523623998E+02  0.10558072796E+02 -0.24476315168E+02  0.94646145843E+02  0.90080719954E+02 0.  0.
         23    2    1    2    0    0  0.11523623998E+02 -0.10558072796E+02  0.14549275026E+03  0.17253276279E+03  0.91406493466E+02 0.  0.
          5    1    3    3  502    0 -0.48758268331E+02 -0.20341298201E+01 -0.25050656601E+02  0.55055715516E+02  0.47000000000E+01 0. -1.
         -5    1    3    3    0  502  0.37234644334E+02  0.12592202616E+02  0.57434143337E+00  0.39590430327E+02  0.47000000000E+01 0.  1.
          5    1    4    4  503    0  0.21327079395E+02 -0.48515273890E+02  0.86177286393E+02  0.10127779029E+03  0.47000000000E+01 0. -1.
         -5    1    4    4    0  503 -0.98034553976E+01  0.37957201094E+02  0.59315463866E+02  0.71254972501E+02  0.47000000000E+01 0.  1.
<mgrwt>
<rscale>  0 0.92404651E+02</rscale>
<asrwt>0</asrwt>
<pdfrwt beam="1">  1        2 0.11243267E-01 0.92733025E+02</pdfrwt>
<pdfrwt beam="2">  1       -2 0.29861180E-01 0.92733025E+02</pdfrwt>
<totfact> 0.52708144E+03</totfact>
</mgrwt>
</event>
<event>
 8    1  0.6396648E-004  0.1041659E+03  0.7546771E-02  0.1272608E+00
         -2   -1    0    0    0  501 -0.00000000000E+00  0.00000000000E+00  0.85613035699E+01  0.85613035699E+01  0.00000000000E+00 0.  1.
          2   -1    0    0  501    0  0.00000000000E+00 -0.00000000000E+00 -0.13907239543E+04  0.13907239543E+04  0.00000000000E+00 0. -1.
         23    2    1    2    0    0 -0.25345728220E+02 -0.40329968968E+02 -0.91082931471E+03  0.91657866791E+03  0.90760683078E+02 0.  0.
         23    2    1    2    0    0  0.25345728220E+02  0.40329968968E+02 -0.47133333603E+03  0.48270658997E+03  0.92637066087E+02 0.  0.
          5    1    3    3  502    0  0.25882222276E+02 -0.43542929979E+02 -0.47113814196E+03  0.47387668753E+03  0.47000000000E+01 0. -1.
         -5    1    4    4    0  503 -0.31638772260E+02 -0.18678737746E+01 -0.18015768591E+03  0.18298465142E+03  0.47000000000E+01 0.  1.
          5    1    4    4  503    0  0.56984500479E+02  0.42197842743E+02 -0.29117565012E+03  0.29972193855E+03  0.47000000000E+01 0. -1.
         -5    1    3    3    0  502 -0.51227950496E+02  0.32129610107E+01 -0.43969117276E+03  0.44270198038E+03  0.47000000000E+01 0.  1.
<mgrwt>
<rscale>  0 0.10374712E+03</rscale>
<asrwt>0</asrwt>
<pdfrwt beam="1">  1        2 0.21395729E+00 0.10416592E+03</pdfrwt>
<pdfrwt beam="2">  1       -2 0.13171251E-02 0.10416592E+03</pdfrwt>
<totfact> 0.21065065E+04</totfact>
</mgrwt>
</event>
<event>
 8    1  0.6396648E-004  0.9893178E+02  0.7546771E-02  0.1283219E+00
          3   -1    0    0  501    0  0.00000000000E+00  0.00000000000E+00  0.16111865955E+03  0.16111865955E+03  0.00000000000E+00 0. -1.
         -3   -1    0    0    0  501 -0.00000000000E+00 -0.00000000000E+00 -0.62377405884E+02  0.62377405884E+02  0.00000000000E+00 0.  1.
         23    2    1    2    0    0  0.29899364729E+02 -0.30397153327E+01  0.27233346379E+02  0.10142691217E+03  0.92965324060E+02 0.  0.
         23    2    1    2    0    0 -0.29899364729E+02  0.30397153327E+01  0.71507907286E+02  0.12206915326E+03  0.94256487802E+02 0.  0.
          5    1    4    4  502    0 -0.53966748002E+02  0.24517591690E+02  0.23275767976E+02  0.63854315179E+02  0.47000000000E+01 0. -1.
         -5    1    3    3    0  503 -0.23492843939E+02 -0.11520562098E+02 -0.16882143126E+02  0.31491805663E+02  0.47000000000E+01 0.  1.
          5    1    3    3  503    0  0.53392208668E+02  0.84808467649E+01  0.44115489505E+02  0.69935106510E+02  0.47000000000E+01 0. -1.
         -5    1    4    4    0  502  0.24067383272E+02 -0.21477876357E+02  0.48232139310E+02  0.58214838081E+02  0.47000000000E+01 0.  1.
<mgrwt>
<rscale>  0 0.98622999E+02</rscale>
<asrwt>0</asrwt>
<pdfrwt beam="1">  1        3 0.24787486E-01 0.98931781E+02</pdfrwt>
<pdfrwt beam="2">  1       -3 0.95965241E-02 0.98931781E+02</pdfrwt>
<totfact> 0.25949760E+03</totfact>
</mgrwt>
</event>
<event>
 8    1  0.6396648E-004  0.1281836E+03  0.7546771E-02  0.1230226E+00
         -2   -1    0    0    0  501 -0.00000000000E+00  0.00000000000E+00  0.10646003054E+03  0.10646003054E+03  0.00000000000E+00 0.  1.
          2   -1    0    0  501    0  0.00000000000E+00 -0.00000000000E+00 -0.18316488552E+03  0.18316488552E+03  0.00000000000E+00 0. -1.
         23    2    1    2    0    0  0.69415369433E+01 -0.89357274652E+02  0.19267720200E+02  0.12949446572E+03  0.91458537826E+02 0.  0.
         23    2    1    2    0    0 -0.69415369433E+01  0.89357274652E+02 -0.95972575183E+02  0.16013045034E+03  0.91641248741E+02 0.  0.
          5    1    3    3  502    0 -0.12973636255E+02 -0.36881626817E+02 -0.33959479275E+02  0.51999094867E+02  0.47000000000E+01 0. -1.
         -5    1    3    3    0  502  0.19915173198E+02 -0.52475647835E+02  0.53227199475E+02  0.77495370850E+02  0.47000000000E+01 0.  1.
          5    1    4    4  503    0  0.26425217042E+02  0.78567346797E+01 -0.57444185680E+02  0.63890099734E+02  0.47000000000E+01 0. -1.
         -5    1    4    4    0  503 -0.33366753986E+02  0.81500539972E+02 -0.38528389502E+02  0.96240350607E+02  0.47000000000E+01 0.  1.
<mgrwt>
<rscale>  0 0.12815091E+03</rscale>
<asrwt>0</asrwt>
<pdfrwt beam="1">  1        2 0.28179213E-01 0.12818356E+03</pdfrwt>
<pdfrwt beam="2">  1       -2 0.16378466E-01 0.12818356E+03</pdfrwt>
<totfact> 0.52833259E+03</totfact>
</mgrwt>
</event>
<event>
 8    1  0.6396648E-004  0.1160055E+03  0.7546771E-02  0.1250126E+00
         -1   -1    0    0    0  501 -0.00000000000E+00  0.00000000000E+00  0.52172042204E+02  0.52172042204E+02  0.00000000000E+00 0.  1.
          1   -1    0    0  501    0  0.00000000000E+00 -0.00000000000E+00 -0.26154479254E+03  0.26154479254E+03  0.00000000000E+00 0. -1.
         23    2    1    2    0    0  0.66761880032E+02  0.23216632700E+02 -0.12686636717E+03  0.17190796708E+03  0.91984310434E+02 0.  0.
         23    2    1    2    0    0 -0.66761880032E+02 -0.23216632700E+02 -0.82506383159E+02  0.14180886766E+03  0.91138855742E+02 0.  0.
          5    1    3    3  502    0  0.51843434937E+02 -0.13505248525E+01 -0.13239176594E+03  0.14226466656E+03  0.47000000000E+01 0. -1.
         -5    1    3    3    0  502  0.14918445095E+02  0.24567157552E+02  0.55253987622E+01  0.29643300520E+02  0.47000000000E+01 0.  1.
          5    1    4    4  503    0 -0.27457457511E+02  0.30181677886E+02 -0.77898218229E+01  0.41804509051E+02  0.47000000000E+01 0. -1.
         -5    1    4    4    0  503 -0.39304422522E+02 -0.53398310586E+02 -0.74716561336E+02  0.10000435861E+03  0.47000000000E+01 0.  1.
<mgrwt>
<rscale>  0 0.11583782E+03</rscale>
<asrwt>0</asrwt>
<pdfrwt beam="1">  1        1 0.40237660E-01 0.11600549E+03</pdfrwt>
<pdfrwt beam="2">  1       -1 0.80264682E-02 0.11600549E+03</pdfrwt>
<totfact> 0.83679423E+03</totfact>
</mgrwt>
</event>
<event>
 8    1  0.6396648E-004  0.2217580E+03  0.7546771E-02  0.1132679E+00
          1   -1    0    0  501    0  0.00000000000E+00  0.00000000000E+00  0.30229521609E+03  0.30229521609E+03  0.00000000000E+00 0. -1.
         -1   -1    0    0    0  501 -0.00000000000E+00 -0.00000000000E+00 -0.30105878676E+03  0.30105878676E+03  0.00000000000E+00 0.  1.
         23    2    1    2    0    0 -0.20302837708E+03 -0.25348010316E+00  0.20543895751E+03  0.30189875226E+03  0.87847055757E+02 0.  0.
         23    2    1    2    0    0  0.20302837708E+03  0.25348010316E+00 -0.20420252817E+03  0.30145525058E+03  0.89196465395E+02 0.  0.
          5    1    4    4  502    0  0.55609811218E+02  0.40401284926E+02 -0.63849179078E+02  0.93933607385E+02  0.47000000000E+01 0. -1.
         -5    1    4    4    0  502  0.14741856586E+03 -0.40147804823E+02 -0.14035334909E+03  0.20752164320E+03  0.47000000000E+01 0.  1.
          5    1    3    3  503    0 -0.13689184411E+03  0.41025330096E+02  0.13779919976E+03  0.19857785412E+03  0.47000000000E+01 0. -1.
         -5    1    3    3    0  503 -0.66136532975E+02 -0.41278810200E+02  0.67639757747E+02  0.10332089815E+03  0.47000000000E+01 0.  1.
<mgrwt>
<rscale>  0 0.22162301E+03</rscale>
<asrwt>0</asrwt>
<pdfrwt beam="1">  1        1 0.46506956E-01 0.22175797E+03</pdfrwt>
<pdfrwt beam="2">  1       -1 0.46316736E-01 0.22175797E+03</pdfrwt>
<totfact> 0.41396020E+02</totfact>
</mgrwt>
</event>
<event>
 8    1  0.6396648E-004  0.9442960E+02  0.7546771E-02  0.1292485E+00
         -1   -1    0    0    0  501 -0.00000000000E+00  0.00000000000E+00  0.15738251035E+03  0.15738251035E+03  0.00000000000E+00 0.  1.
          1   -1    0    0  501    0  0.00000000000E+00 -0.00000000000E+00 -0.98043544885E+02  0.98043544885E+02  0.00000000000E+00 0. -1.
         23    2    1    2    0    0  0.22247809746E+02  0.14784009673E+02  0.11266224982E+03  0.14698103336E+03  0.90537890702E+02 0.  0.
         23    2    1    2    0    0 -0.22247809746E+02 -0.14784009673E+02 -0.53323284361E+02  0.10844502187E+03  0.90572722895E+02 0.  0.
          5    1    3    3  502    0 -0.16772364071E+02  0.40375398412E+02  0.74532819594E+02  0.86537368750E+02  0.47000000000E+01 0. -1.
         -5    1    4    4    0  503  0.20941419513E+02 -0.16254380038E+01  0.15129297161E+02  0.26309137814E+02  0.47000000000E+01 0.  1.
          5    1    4    4  503    0 -0.43189229259E+02 -0.13158571669E+02 -0.68452581522E+02  0.82135884055E+02  0.47000000000E+01 0. -1.
         -5    1    3    3    0  502  0.39020173817E+02 -0.25591388739E+02  0.38129430229E+02  0.60443664613E+02  0.47000000000E+01 0.  1.
<mgrwt>
<rscale>  0 0.94421251E+02</rscale>
<asrwt>0</asrwt>
<pdfrwt beam="1">  1        1 0.15083622E-01 0.94429604E+02</pdfrwt>
<pdfrwt beam="2">  1       -1 0.24212694E-01 0.94429604E+02</pdfrwt>
<totfact> 0.50530074E+03</totfact>
</mgrwt>
</event>
<event>
 8    1  0.6396648E-004  0.9846031E+02  0.7546771E-02  0.1284283E+00
         -2   -1    0    0    0  501 -0.00000000000E+00  0.00000000000E+00  0.47718408616E+02  0.47718408616E+02  0.00000000000E+00 0.  1.
          2   -1    0    0  501    0  0.00000000000E+00 -0.00000000000E+00 -0.20112259386E+03  0.20112259386E+03  0.00000000000E+00 0. -1.
         23    2    1    2    0    0  0.98772194313E+01 -0.34096665795E+02 -0.84470717801E+02  0.12972946854E+03  0.91838394799E+02 0.  0.
         23    2    1    2    0    0 -0.98772194313E+01  0.34096665795E+02 -0.68933467444E+02  0.11911153394E+03  0.90418983082E+02 0.  0.
          5    1    3    3  502    0  0.31964967839E+02 -0.56458649508E+02 -0.67332956697E+02  0.93622408273E+02  0.47000000000E+01 0. -1.
         -5    1    4    4    0  503 -0.85159053139E+01  0.62163357837E+02 -0.27122304184E+02  0.68516516878E+02  0.47000000000E+01 0.  1.
          5    1    4    4  503    0 -0.13613141175E+01 -0.28066692042E+02 -0.41811163259E+02  0.50595017061E+02  0.47000000000E+01 0. -1.
         -5    1    3    3    0  502 -0.22087748408E+02  0.22361983714E+02 -0.17137761104E+02  0.36107060265E+02  0.47000000000E+01 0.  1.
<mgrwt>
<rscale>  0 0.98127982E+02</rscale>
<asrwt>0</asrwt>
<pdfrwt beam="1">  1        2 0.30941938E-01 0.98460311E+02</pdfrwt>
<pdfrwt beam="2">  1       -2 0.73412935E-02 0.98460311E+02</pdfrwt>
<totfact> 0.16598248E+04</totfact>
</mgrwt>
</event>
<event>
 8    1  0.6396648E-004  0.9448607E+02  0.7546771E-02  0.1312975E+00
         -2   -1    0    0    0  501 -0.00000000000E+00  0.00000000000E+00  0.42613030613E+03  0.42613030613E+03  0.00000000000E+00 0.  1.
          2   -1    0    0  501    0  0.00000000000E+00 -0.00000000000E+00 -0.17134595093E+02  0.17134595093E+02  0.00000000000E+00 0. -1.
         23    2    1    2    0    0 -0.12070645963E+02  0.14879661654E+02  0.31715389674E+03  0.33092931574E+03  0.92523040229E+02 0.  0.
         23    2    1    2    0    0  0.12070645963E+02 -0.14879661654E+02  0.91841814296E+02  0.11233558548E+03  0.61783979216E+02 0.  0.
          5    1    3    3  502    0  0.18314133839E+02 -0.21755877820E+02  0.22747348268E+03  0.22929239202E+03  0.47000000000E+01 0. -1.
         -5    1    3    3    0  502 -0.30384779803E+02  0.36635539473E+02  0.89680414065E+02  0.10163692372E+03  0.47000000000E+01 0.  1.
          5    1    4    4  503    0  0.24537549861E+02  0.84813932937E+01  0.13769116786E+02  0.29760778929E+02  0.47000000000E+01 0. -1.
         -5    1    4    4    0  503 -0.12466903897E+02 -0.23361054947E+02  0.78072697510E+02  0.82574806555E+02  0.47000000000E+01 0.  1.
<mgrwt>
<rscale>  0 0.85946766E+02</rscale>
<asrwt>0</asrwt>
<pdfrwt beam="1">  1        2 0.26360919E-02 0.94486072E+02</pdfrwt>
<pdfrwt beam="2">  1       -2 0.65558500E-01 0.94486072E+02</pdfrwt>
<totfact> 0.74390120E+03</totfact>
</mgrwt>
</event>
<event>
 8    1  0.6396648E-004  0.9505445E+02  0.7546771E-02  0.1292538E+00
          1   -1    0    0  501    0  0.00000000000E+00  0.00000000000E+00  0.41943592905E+03  0.41943592905E+03  0.00000000000E+00 0. -1.
         -1   -1    0    0    0  501 -0.00000000000E+00 -0.00000000000E+00 -0.28117880899E+02  0.28117880899E+02  0.00000000000E+00 0.  1.
         23    2    1    2    0    0 -0.19364289546E+02  0.54279717369E+01  0.80714243612E+02  0.12273067151E+03  0.90241841852E+02 0.  0.
         23    2    1    2    0    0  0.19364289546E+02 -0.54279717369E+01  0.31060380454E+03  0.32482313844E+03  0.92902687171E+02 0.  0.
          5    1    3    3  502    0 -0.26097190014E+01 -0.40924585524E+02  0.48385453073E+02  0.63599327061E+02  0.47000000000E+01 0. -1.
         -5    1    3    3    0  502 -0.16754570545E+02  0.46352557261E+02  0.32328790539E+02  0.59131344450E+02  0.47000000000E+01 0.  1.
          5    1    4    4  503    0  0.30705804648E+02 -0.35952926218E+02  0.26106784968E+03  0.26535631042E+03  0.47000000000E+01 0. -1.
         -5    1    4    4    0  503 -0.11341515102E+02  0.30524954481E+02  0.49535954861E+02  0.59466828021E+02  0.47000000000E+01 0.  1.
<mgrwt>
<rscale>  0 0.94397953E+02</rscale>
<asrwt>0</asrwt>
<pdfrwt beam="1">  1        1 0.64528600E-01 0.95054447E+02</pdfrwt>
<pdfrwt beam="2">  1       -1 0.43258281E-02 0.95054447E+02</pdfrwt>
<totfact> 0.11464565E+04</totfact>
</mgrwt>
</event>
<event>
 8    1  0.6396648E-004  0.1075175E+03  0.7546771E-02  0.1265726E+00
         -1   -1    0    0    0  501 -0.00000000000E+00  0.00000000000E+00  0.13958571235E+02  0.13958571235E+02  0.00000000000E+00 0.  1.
          1   -1    0    0  501    0  0.00000000000E+00 -0.00000000000E+00 -0.88766901486E+03  0.88766901486E+03  0.00000000000E+00 0. -1.
         23    2    1    2    0    0  0.54731592969E+02 -0.10208966146E+02 -0.55909436793E+03  0.56914706338E+03  0.90785996988E+02 0.  0.
         23    2    1    2    0    0 -0.54731592969E+02  0.10208966146E+02 -0.31461607570E+03  0.33248052272E+03  0.91979631650E+02 0.  0.
          5    1    4    4  502    0 -0.81776576152E+01  0.43233976333E+02 -0.84986550996E+02  0.95816776422E+02  0.47000000000E+01 0. -1.
         -5    1    3    3    0  503  0.76762463782E+02 -0.12665940001E+02 -0.49642979545E+03  0.50251122743E+03  0.47000000000E+01 0.  1.
          5    1    3    3  503    0 -0.22030870813E+02  0.24569738554E+01 -0.62664572479E+02  0.66635835954E+02  0.47000000000E+01 0. -1.
         -5    1    4    4    0  502 -0.46553935353E+02 -0.33025010187E+02 -0.22962952470E+03  0.23666374630E+03  0.47000000000E+01 0.  1.
<mgrwt>
<rscale>  0 0.10726180E+03</rscale>
<asrwt>0</asrwt>
<pdfrwt beam="1">  1        1 0.13656445E+00 0.10751755E+03</pdfrwt>
<pdfrwt beam="2">  1       -1 0.21474727E-02 0.10751755E+03</pdfrwt>
<totfact> 0.11401599E+04</totfact>
</mgrwt>
</event>
<event>
 8    1  0.6396648E-004  0.9520386E+02  0.7546771E-02  0.1291221E+00
         -3   -1    0    0    0  501 -0.00000000000E+00  0.00000000000E+00  0.53712030129E+02  0.53712030129E+02  0.00000000000E+00 0.  1.
          3   -1    0    0  501    0  0.00000000000E+00 -0.00000000000E+00 -0.18548584319E+03  0.18548584319E+03  0.00000000000E+00 0. -1.
         23    2    1    2    0    0  0.21665949826E+02 -0.19162235104E+02 -0.28584311330E+02  0.99402404816E+02  0.90703751813E+02 0.  0.
         23    2    1    2    0    0 -0.21665949826E+02  0.19162235104E+02 -0.10318950173E+03  0.13979546850E+03  0.89766893177E+02 0.  0.
          5    1    4    4  502    0  0.33763725368E+01  0.48625305720E+02 -0.31553376738E+02  0.58253976958E+02  0.47000000000E+01 0. -1.
         -5    1    3    3    0  503  0.51032032526E+02  0.17396408279E+01 -0.35543789278E+02  0.62391871668E+02  0.47000000000E+01 0.  1.
          5    1    3    3  503    0 -0.29366082700E+02 -0.20901875932E+02  0.69594779477E+01  0.37010533148E+02  0.47000000000E+01 0. -1.
         -5    1    4    4    0  502 -0.25042322363E+02 -0.29463070616E+02 -0.71636124993E+02  0.81541491545E+02  0.47000000000E+01 0.  1.
<mgrwt>
<rscale>  0 0.94980037E+02</rscale>
<asrwt>0</asrwt>
<pdfrwt beam="1">  1        3 0.28536284E-01 0.95203861E+02</pdfrwt>
<pdfrwt beam="2">  1       -3 0.82633891E-02 0.95203861E+02</pdfrwt>
<totfact> 0.25462292E+03</totfact>
</mgrwt>
</event>
<event>
 8    1  0.6396648E-004  0.9179070E+02  0.7546771E-02  0.1299139E+00
         -2   -1    0    0    0  501 -0.00000000000E+00  0.00000000000E+00  0.21541954588E+02  0.21541954588E+02  0.00000000000E+00 0.  1.
          2   -1    0    0  501    0  0.00000000000E+00 -0.00000000000E+00 -0.38725504968E+03  0.38725504968E+03  0.00000000000E+00 0. -1.
         23    2    1    2    0    0 -0.32208198071E+01  0.72681256269E+01 -0.18650039154E+03  0.20744476333E+03  0.90486100916E+02 0.  0.
         23    2    1    2    0    0  0.32208198071E+01 -0.72681256269E+01 -0.17921270356E+03  0.20135224094E+03  0.91445789870E+02 0.  0.
          5    1    4    4  502    0 -0.93285713049E+00 -0.46403760087E+02 -0.61803484301E+02  0.77433454297E+02  0.47000000000E+01 0. -1.
         -5    1    4    4    0  502  0.41536769376E+01  0.39135634460E+02 -0.11740921926E+03  0.12391878664E+03  0.47000000000E+01 0.  1.
          5    1    3    3  503    0 -0.22338643761E+02  0.32064899824E+00 -0.33100876121E+01  0.23068690922E+02  0.47000000000E+01 0. -1.
         -5    1    3    3    0  503  0.19117823954E+02  0.69474766287E+01 -0.18319030393E+03  0.18437607241E+03  0.47000000000E+01 0.  1.
<mgrwt>
<rscale>  0 0.91550745E+02</rscale>
<asrwt>0</asrwt>
<pdfrwt beam="1">  1        2 0.59577699E-01 0.91790696E+02</pdfrwt>
<pdfrwt beam="2">  1       -2 0.33141469E-02 0.91790696E+02</pdfrwt>
<totfact> 0.27003332E+04</totfact>
</mgrwt>
</event>
<event>
 8    1  0.6396648E-004  0.1024448E+03  0.7546771E-02  0.1276204E+00
          1   -1    0    0  501    0  0.00000000000E+00  0.00000000000E+00  0.36879310916E+03  0.36879310916E+03  0.00000000000E+00 0. -1.
         -1   -1    0    0    0  501 -0.00000000000E+00 -0.00000000000E+00 -0.48392146894E+02  0.48392146894E+02  0.00000000000E+00 0.  1.
         23    2    1    2    0    0  0.40091413963E+02 -0.10593165774E+01  0.29666796047E+03  0.31385794334E+03  0.94268161150E+02 0.  0.
         23    2    1    2    0    0 -0.40091413963E+02  0.10593165774E+01  0.23733001802E+02  0.10332731272E+03  0.92221659892E+02 0.  0.
          5    1    3    3  502    0  0.69486438230E+02 -0.12041901485E+02  0.20858199992E+03  0.22023149907E+03  0.47000000000E+01 0. -1.
         -5    1    3    3    0  502 -0.29395024266E+02  0.10982584908E+02  0.88085960541E+02  0.93626444274E+02  0.47000000000E+01 0.  1.
          5    1    4    4  503    0  0.11107230709E+02 -0.35093779508E+02  0.14311872407E+02  0.39772649220E+02  0.47000000000E+01 0. -1.
         -5    1    4    4    0  503 -0.51198644673E+02  0.36153096085E+02  0.94211293955E+01  0.63554663495E+02  0.47000000000E+01 0.  1.
<mgrwt>
<rscale>  0 0.10197150E+03</rscale>
<asrwt>0</asrwt>
<pdfrwt beam="1">  1        1 0.56737399E-01 0.10244476E+03</pdfrwt>
<pdfrwt beam="2">  1       -1 0.74449459E-02 0.10244476E+03</pdfrwt>
<totfact> 0.60787911E+03</totfact>
</mgrwt>
</event>
<event>
 8    1  0.6396648E-004  0.1366429E+03  0.7546771E-02  0.1217942E+00
         -1   -1    0    0    0  501 -0.00000000000E+00  0.00000000000E+00  0.16676591355E+02  0.16676591355E+02  0.00000000000E+00 0.  1.
          1   -1    0    0  501    0  0.00000000000E+00 -0.00000000000E+00 -0.12064613257E+04  0.12064613257E+04  0.00000000000E+00 0. -1.
         23    2    1    2    0    0 -0.40862167888E+02  0.92905946126E+02 -0.43043186827E+03  0.45160034413E+03  0.91487955553E+02 0.  0.
         23    2    1    2    0    0  0.40862167888E+02 -0.92905946126E+02 -0.75935286610E+03  0.77153757294E+03  0.91390478825E+02 0.  0.
          5    1    3    3  502    0  0.20455705628E+02  0.65019012978E+02 -0.19214433457E+03  0.20392999595E+03  0.47000000000E+01 0. -1.
         -5    1    3    3    0  502 -0.61317873517E+02  0.27886933148E+02 -0.23828753370E+03  0.24767034818E+03  0.47000000000E+01 0.  1.
          5    1    4    4  503    0 -0.21991530724E+02 -0.31360777885E+01 -0.21833970906E+03  0.21951715414E+03  0.47000000000E+01 0. -1.
         -5    1    4    4    0  503  0.62853698613E+02 -0.89769868337E+02 -0.54101315704E+03  0.55202041881E+03  0.47000000000E+01 0.  1.
<mgrwt>
<rscale>  0 0.13662657E+03</rscale>
<asrwt>0</asrwt>
<pdfrwt beam="1">  1        1 0.18560948E+00 0.13664288E+03</pdfrwt>
<pdfrwt beam="2">  1       -1 0.25656289E-02 0.13664288E+03</pdfrwt>
<totfact> 0.52725442E+03</totfact>
</mgrwt>
</event>
<event>
 8    1  0.6396648E-004  0.1054431E+03  0.7546771E-02  0.1271608E+00
          1   -1    0    0  501    0  0.00000000000E+00  0.00000000000E+00  0.58346974605E+02  0.58346974605E+02  0.00000000000E+00 0. -1.
         -1   -1    0    0    0  501 -0.00000000000E+00 -0.00000000000E+00 -0.18270808584E+03  0.18270808584E+03  0.00000000000E+00 0.  1.
         23    2    1    2    0    0 -0.31752449009E+02  0.22442039455E+02 -0.56977000527E+02  0.11985252767E+03  0.98012176009E+02 0.  0.
         23    2    1    2    0    0  0.31752449009E+02 -0.22442039455E+02 -0.67384110705E+02  0.12120253277E+03  0.92938541104E+02 0.  0.
          5    1    3    3  502    0 -0.46097282261E+02  0.41441414393E+02 -0.48492654681E+01  0.62353473314E+02  0.47000000000E+01 0. -1.
         -5    1    3    3    0  502  0.14344833253E+02 -0.18999374938E+02 -0.52127735059E+02  0.57499054353E+02  0.47000000000E+01 0.  1.
          5    1    4    4  503    0  0.54368255182E+02 -0.98222220447E+01 -0.77102762620E+01  0.55981439580E+02  0.47000000000E+01 0. -1.
         -5    1    4    4    0  503 -0.22615806174E+02 -0.12619817411E+02 -0.59673834443E+02  0.65221093195E+02  0.47000000000E+01 0.  1.
<mgrwt>
<rscale>  0 0.10424828E+03</rscale>
<asrwt>0</asrwt>
<pdfrwt beam="1">  1        1 0.89764575E-02 0.10544311E+03</pdfrwt>
<pdfrwt beam="2">  1       -1 0.28108937E-01 0.10544311E+03</pdfrwt>
<totfact> 0.78474955E+03</totfact>
</mgrwt>
</event>
<event>
 8    1  0.6396648E-004  0.9286356E+02  0.7546771E-02  0.1297707E+00
          2   -1    0    0  501    0  0.00000000000E+00  0.00000000000E+00  0.93421301025E+02  0.93421301025E+02  0.00000000000E+00 0. -1.
         -2   -1    0    0    0  501 -0.00000000000E+00 -0.00000000000E+00 -0.99507770930E+02  0.99507770930E+02  0.00000000000E+00 0.  1.
         23    2    1    2    0    0  0.17033793491E+01 -0.79136783905E+01  0.27414657943E+02  0.96825636062E+02  0.92510067138E+02 0.  0.
         23    2    1    2    0    0 -0.17033793491E+01  0.79136783905E+01 -0.33501127848E+02  0.96103435892E+02  0.89710740808E+02 0.  0.
          5    1    4    4  502    0 -0.30123528392E+02 -0.23133056775E+02 -0.37477576496E+02  0.53565138090E+02  0.47000000000E+01 0. -1.
         -5    1    4    4    0  502  0.28420149043E+02  0.31046735166E+02  0.39764486479E+01  0.42538297802E+02  0.47000000000E+01 0.  1.
          5    1    3    3  503    0 -0.20865766914E+02 -0.40444742450E+02 -0.41956926120E+01  0.45944001320E+02  0.47000000000E+01 0. -1.
         -5    1    3    3    0  503  0.22569146263E+02  0.32531064060E+02  0.31610350555E+02  0.50881634743E+02  0.47000000000E+01 0.  1.
<mgrwt>
<rscale>  0 0.92158483E+02</rscale>
<asrwt>0</asrwt>
<pdfrwt beam="1">  1        2 0.14372508E-01 0.92863558E+02</pdfrwt>
<pdfrwt beam="2">  1       -2 0.15308888E-01 0.92863558E+02</pdfrwt>
<totfact> 0.12246171E+04</totfact>
</mgrwt>
</event>
<event>
 8    1  0.6396648E-004  0.9890214E+02  0.7546771E-02  0.1282652E+00
         -1   -1    0    0    0  501 -0.00000000000E+00  0.00000000000E+00  0.29004822381E+03  0.29004822381E+03  0.00000000000E+00 0.  1.
          1   -1    0    0  501    0  0.00000000000E+00 -0.00000000000E+00 -0.19502530969E+03  0.19502530969E+03  0.00000000000E+00 0. -1.
         23    2    1    2    0    0 -0.38928895564E+02 -0.11079239621E+02  0.26809445617E+03  0.28573615266E+03  0.90179282786E+02 0.  0.
         23    2    1    2    0    0  0.38928895564E+02  0.11079239621E+02 -0.17307154205E+03  0.19933738085E+03  0.90240923506E+02 0.  0.
          5    1    3    3  502    0 -0.96485072254E+01 -0.37616358104E+02  0.47279248490E+02  0.61363681656E+02  0.47000000000E+01 0. -1.
         -5    1    3    3    0  502 -0.29280388338E+02  0.26537118482E+02  0.22081520768E+03  0.22437247100E+03  0.47000000000E+01 0.  1.
          5    1    4    4  503    0  0.28815443779E+02 -0.12532376012E+02 -0.17011624551E+03  0.17305784361E+03  0.47000000000E+01 0. -1.
         -5    1    4    4    0  503  0.10113451784E+02  0.23611615633E+02 -0.29552965413E+01  0.26279537238E+02  0.47000000000E+01 0.  1.
<mgrwt>
<rscale>  0 0.98888074E+02</rscale>
<asrwt>0</asrwt>
<pdfrwt beam="1">  1        1 0.30003894E-01 0.98902137E+02</pdfrwt>
<pdfrwt beam="2">  1       -1 0.44622804E-01 0.98902137E+02</pdfrwt>
<totfact> 0.76101977E+02</totfact>
</mgrwt>
</event>
<event>
 8    1  0.6396648E-004  0.9926753E+02  0.7546771E-02  0.1282541E+00
         -1   -1    0    0    0  501 -0.00000000000E+00  0.00000000000E+00  0.28589391032E+02  0.28589391032E+02  0.00000000000E+00 0.  1.
          1   -1    0    0  501    0  0.00000000000E+00 -0.00000000000E+00 -0.51176591901E+03  0.51176591901E+03  0.00000000000E+00 0. -1.
         23    2    1    2    0    0 -0.31068438580E+02 -0.19438102375E+02 -0.39697530077E+03  0.40888404377E+03  0.90849788818E+02 0.  0.
         23    2    1    2    0    0  0.31068438580E+02  0.19438102375E+02 -0.86201227207E+02  0.13147126627E+03  0.92254835013E+02 0.  0.
          5    1    3    3  502    0 -0.52695800346E+02 -0.29672617047E+02 -0.16802184934E+03  0.17863578430E+03  0.47000000000E+01 0. -1.
         -5    1    3    3    0  502  0.21627361766E+02  0.10234514672E+02 -0.22895345143E+03  0.23024825947E+03  0.47000000000E+01 0.  1.
          5    1    4    4  503    0 -0.32497243356E+02  0.25425428937E+01 -0.34340218549E+02  0.47580205549E+02  0.47000000000E+01 0. -1.
         -5    1    4    4    0  503  0.63565681935E+02  0.16895559481E+02 -0.51861008657E+02  0.83891060722E+02  0.47000000000E+01 0.  1.
<mgrwt>
<rscale>  0 0.98939806E+02</rscale>
<asrwt>0</asrwt>
<pdfrwt beam="1">  1        1 0.78733213E-01 0.99267529E+02</pdfrwt>
<pdfrwt beam="2">  1       -1 0.43983682E-02 0.99267529E+02</pdfrwt>
<totfact> 0.87188802E+03</totfact>
</mgrwt>
</event>
<event>
 8    1  0.6396648E-004  0.1504676E+03  0.7546771E-02  0.1209514E+00
          2   -1    0    0  501    0  0.00000000000E+00  0.00000000000E+00  0.86470579650E+03  0.86470579650E+03  0.00000000000E+00 0. -1.
         -2   -1    0    0    0  501 -0.00000000000E+00 -0.00000000000E+00 -0.24309956488E+02  0.24309956488E+02  0.00000000000E+00 0.  1.
         23    2    1    2    0    0 -0.25659802699E+02 -0.85374299125E+02  0.53188243755E+03  0.54576508207E+03  0.83746050658E+02 0.  0.
         23    2    1    2    0    0  0.25659802699E+02  0.85374299125E+02  0.30851340246E+03  0.34325067092E+03  0.12121595260E+03 0.  0.
          5    1    3    3  502    0 -0.50094267900E+02 -0.32593234087E+02  0.33861604519E+03  0.34388176841E+03  0.47000000000E+01 0. -1.
         -5    1    4    4    0  503  0.58274420539E+02  0.42557753141E+02  0.77474390374E+02  0.10597849596E+03  0.47000000000E+01 0.  1.
          5    1    4    4  503    0 -0.32614617840E+02  0.42816545983E+02  0.23103901209E+03  0.23727217497E+03  0.47000000000E+01 0. -1.
         -5    1    3    3    0  502  0.24434465201E+02 -0.52781065038E+02  0.19326639237E+03  0.20188331366E+03  0.47000000000E+01 0.  1.
<mgrwt>
<rscale>  0 0.14287324E+03</rscale>
<asrwt>0</asrwt>
<pdfrwt beam="1">  1        2 0.13303164E+00 0.15046762E+03</pdfrwt>
<pdfrwt beam="2">  1       -2 0.37399940E-02 0.15046762E+03</pdfrwt>
<totfact> 0.94389048E+03</totfact>
</mgrwt>
</event>
<event>
 8    1  0.6396648E-004  0.9699219E+02  0.7546771E-02  0.1287632E+00
         -2   -1    0    0    0  501 -0.00000000000E+00  0.00000000000E+00  0.20830820524E+02  0.20830820524E+02  0.00000000000E+00 0.  1.
          2   -1    0    0  501    0  0.00000000000E+00 -0.00000000000E+00 -0.49997321983E+03  0.49997321983E+03  0.00000000000E+00 0. -1.
         23    2    1    2    0    0  0.26655372621E+02 -0.14377466278E+02 -0.15085069338E+03  0.17848411840E+03  0.90462303756E+02 0.  0.
         23    2    1    2    0    0 -0.26655372621E+02  0.14377466278E+02 -0.32829170592E+03  0.34231992195E+03  0.92142630536E+02 0.  0.
          5    1    3    3  502    0 -0.33022769168E+02 -0.74975606986E+01 -0.42918891350E+02  0.54871102911E+02  0.47000000000E+01 0. -1.
         -5    1    4    4    0  503  0.32756043650E+02  0.16993277353E+02 -0.11731779483E+03  0.12307430623E+03  0.47000000000E+01 0.  1.
          5    1    4    4  503    0 -0.59411416271E+02 -0.26158110753E+01 -0.21097391110E+03  0.21924561573E+03  0.47000000000E+01 0. -1.
         -5    1    3    3    0  502  0.59678141789E+02 -0.68799055795E+01 -0.10793180203E+03  0.12361301548E+03  0.47000000000E+01 0.  1.
<mgrwt>
<rscale>  0 0.96590990E+02</rscale>
<asrwt>0</asrwt>
<pdfrwt beam="1">  1        2 0.76918958E-01 0.96992189E+02</pdfrwt>
<pdfrwt beam="2">  1       -2 0.32047416E-02 0.96992189E+02</pdfrwt>
<totfact> 0.21727932E+04</totfact>
</mgrwt>
</event>
<event>
 8    1  0.6396648E-004  0.9917814E+02  0.7546771E-02  0.1283133E+00
         -3   -1    0    0    0  501 -0.00000000000E+00  0.00000000000E+00  0.51608550345E+02  0.51608550345E+02  0.00000000000E+00 0.  1.
          3   -1    0    0  501    0  0.00000000000E+00 -0.00000000000E+00 -0.21096718145E+03  0.21096718145E+03  0.00000000000E+00 0. -1.
         23    2    1    2    0    0 -0.35775257662E+02  0.13887468238E+02 -0.12495250286E+03  0.15952877753E+03  0.91452567228E+02 0.  0.
         23    2    1    2    0    0  0.35775257662E+02 -0.13887468238E+02 -0.34406128243E+02  0.10304695427E+03  0.89230949164E+02 0.  0.
          5    1    3    3  502    0 -0.14173360887E+02 -0.34520499495E+02 -0.85107729069E+02  0.93048184246E+02  0.47000000000E+01 0. -1.
         -5    1    4    4    0  503  0.61292037409E+02 -0.26236195905E+02 -0.15377603849E+02  0.68582887993E+02  0.47000000000E+01 0.  1.
          5    1    4    4  503    0 -0.25516779747E+02  0.12348727667E+02 -0.19028524394E+02  0.34464066276E+02  0.47000000000E+01 0. -1.
         -5    1    3    3    0  502 -0.21601896775E+02  0.48407967733E+02 -0.39844773793E+02  0.66480593280E+02  0.47000000000E+01 0. -1.
<mgrwt>
<rscale>  0 0.98662947E+02</rscale>
<asrwt>0</asrwt>
<pdfrwt beam="1">  1        3 0.32456489E-01 0.99178137E+02</pdfrwt>
<pdfrwt beam="2">  1       -3 0.79397772E-02 0.99178137E+02</pdfrwt>
<totfact> 0.21611597E+03</totfact>
</mgrwt>
</event>
<event>
 8    1  0.6396648E-004  0.1342455E+03  0.7546771E-02  0.1222331E+00
          1   -1    0    0  501    0  0.00000000000E+00  0.00000000000E+00  0.21144264624E+03  0.21144264624E+03  0.00000000000E+00 0. -1.
         -1   -1    0    0    0  501 -0.00000000000E+00 -0.00000000000E+00 -0.98554377294E+02  0.98554377294E+02  0.00000000000E+00 0.  1.
         23    2    1    2    0    0 -0.63064699773E+02  0.70285999682E+02 -0.48456868789E+01  0.13143852854E+03  0.91298017470E+02 0.  0.
         23    2    1    2    0    0  0.63064699773E+02 -0.70285999682E+02  0.11773395582E+03  0.17855849499E+03  0.95417889685E+02 0.  0.
          5    1    3    3  502    0 -0.23703504443E+02  0.51127863500E+02  0.39475573867E+02  0.68966118356E+02  0.47000000000E+01 0. -1.
         -5    1    3    3    0  502 -0.39361195330E+02  0.19158136183E+02 -0.44321260746E+02  0.62472410182E+02  0.47000000000E+01 0.  1.
          5    1    4    4  503    0  0.13779554437E+02  0.22366383956E+02  0.39092226374E+02  0.47333111186E+02  0.47000000000E+01 0. -1.
         -5    1    4    4    0  503  0.49285145335E+02 -0.92652383638E+02  0.78641729447E+02  0.13122538381E+03  0.47000000000E+01 0.  1.
<mgrwt>
<rscale>  0 0.13351548E+03</rscale>
<asrwt>0</asrwt>
<pdfrwt beam="1">  1        1 0.32529638E-01 0.13424549E+03</pdfrwt>
<pdfrwt beam="2">  1       -1 0.15162212E-01 0.13424549E+03</pdfrwt>
<totfact> 0.41439239E+03</totfact>
</mgrwt>
</event>
<event>
 8    1  0.6396648E-004  0.1186163E+03  0.7546771E-02  0.1245801E+00
          3   -1    0    0  501    0  0.00000000000E+00  0.00000000000E+00  0.33214404235E+02  0.33214404235E+02  0.00000000000E+00 0. -1.
         -3   -1    0    0    0  501 -0.00000000000E+00 -0.00000000000E+00 -0.44663087458E+03  0.44663087458E+03  0.00000000000E+00 0.  1.
         23    2    1    2    0    0  0.70723007188E+02  0.23035824125E+02 -0.14911870333E+03  0.19054191403E+03  0.92398270453E+02 0.  0.
         23    2    1    2    0    0 -0.70723007188E+02 -0.23035824125E+02 -0.26429776702E+03  0.28930336478E+03  0.91163228797E+02 0.  0.
          5    1    4    4  502    0  0.17574895400E+01 -0.42185590475E+02 -0.99920481893E+02  0.10857672640E+03  0.47000000000E+01 0. -1.
         -5    1    3    3    0  503  0.32611150792E+01  0.46302521857E+02 -0.67059414832E+02  0.81692187628E+02  0.47000000000E+01 0.  1.
          5    1    3    3  503    0  0.67461892108E+02 -0.23266697731E+02 -0.82059288495E+02  0.10884972640E+03  0.47000000000E+01 0. -1.
         -5    1    4    4    0  502 -0.72480496728E+02  0.19149766350E+02 -0.16437728513E+03  0.18072663839E+03  0.47000000000E+01 0.  1.
<mgrwt>
<rscale>  0 0.11837572E+03</rscale>
<asrwt>0</asrwt>
<pdfrwt beam="1">  1        3 0.51099083E-02 0.11861633E+03</pdfrwt>
<pdfrwt beam="2">  1       -3 0.68712442E-01 0.11861633E+03</pdfrwt>
<totfact> 0.10281046E+03</totfact>
</mgrwt>
</event>
<event>
 8    1  0.6396648E-004  0.1079423E+03  0.7546771E-02  0.1264639E+00
          1   -1    0    0  501    0  0.00000000000E+00  0.00000000000E+00  0.71873146958E+02  0.71873146958E+02  0.00000000000E+00 0. -1.
         -1   -1    0    0    0  501 -0.00000000000E+00 -0.00000000000E+00 -0.16256476436E+03  0.16256476436E+03  0.00000000000E+00 0.  1.
         23    2    1    2    0    0  0.54436347392E+02  0.30278349507E+01 -0.54958890598E+02  0.12073490182E+03  0.92649625789E+02 0.  0.
         23    2    1    2    0    0 -0.54436347392E+02 -0.30278349507E+01 -0.35732726801E+02  0.11370300950E+03  0.93161488302E+02 0.  0.
          5    1    4    4  502    0 -0.14257632362E+01  0.36323966606E+02 -0.29819331606E+02  0.47251940576E+02  0.47000000000E+01 0. -1.
         -5    1    4    4    0  502 -0.53010584155E+02 -0.39351801557E+02 -0.59133951948E+01  0.66451068923E+02  0.47000000000E+01 0.  1.
          5    1    3    3  503    0  0.35651725302E+02  0.46281409089E+02 -0.20309670215E+02  0.62028921065E+02  0.47000000000E+01 0. -1.
         -5    1    3    3    0  503  0.18784622089E+02 -0.43253574138E+02 -0.34649220382E+02  0.58705980750E+02  0.47000000000E+01 0.  1.
<mgrwt>
<rscale>  0 0.10783180E+03</rscale>
<asrwt>0</asrwt>
<pdfrwt beam="1">  1        1 0.11057407E-01 0.10794233E+03</pdfrwt>
<pdfrwt beam="2">  1       -1 0.25009964E-01 0.10794233E+03</pdfrwt>
<totfact> 0.72405348E+03</totfact>
</mgrwt>
</event>
<event>
 8    1  0.6396648E-004  0.9450452E+02  0.7546771E-02  0.1293379E+00
         -1   -1    0    0    0  501 -0.00000000000E+00  0.00000000000E+00  0.42011575262E+03  0.42011575262E+03  0.00000000000E+00 0.  1.
          1   -1    0    0  501    0  0.00000000000E+00 -0.00000000000E+00 -0.11877471089E+03  0.11877471089E+03  0.00000000000E+00 0. -1.
         23    2    1    2    0    0 -0.24830062808E+02  0.11603363767E+02  0.39507446499E+03  0.40578502267E+03  0.88467404540E+02 0.  0.
         23    2    1    2    0    0  0.24830062808E+02 -0.11603363767E+02 -0.93733423262E+02  0.13310544083E+03  0.90442985758E+02 0.  0.
          5    1    4    4  502    0  0.54013450526E+02 -0.67330560794E+01 -0.86463285663E+02  0.10227793823E+03  0.47000000000E+01 0. -1.
         -5    1    4    4    0  502 -0.29183387718E+02 -0.48703076878E+01 -0.72701375988E+01  0.30827502597E+02  0.47000000000E+01 0.  1.
          5    1    3    3  503    0  0.19170249990E+02  0.36524860314E+02  0.16125471199E+03  0.16651347106E+03  0.47000000000E+01 0. -1.
         -5    1    3    3    0  503 -0.44000312798E+02 -0.24921496547E+02  0.23381975300E+03  0.23927155161E+03  0.47000000000E+01 0.  1.
<mgrwt>
<rscale>  0 0.94028710E+02</rscale>
<asrwt>0</asrwt>
<pdfrwt beam="1">  1        1 0.18273033E-01 0.94504517E+02</pdfrwt>
<pdfrwt beam="2">  1       -1 0.64633192E-01 0.94504517E+02</pdfrwt>
<totfact> 0.71399943E+02</totfact>
</mgrwt>
</event>
<event>
 8    1  0.6396648E-004  0.1047675E+03  0.7546771E-02  0.1271693E+00
          1   -1    0    0  501    0  0.00000000000E+00  0.00000000000E+00  0.13273044406E+03  0.13273044406E+03  0.00000000000E+00 0. -1.
         -1   -1    0    0    0  501 -0.00000000000E+00 -0.00000000000E+00 -0.10713780095E+03  0.10713780095E+03  0.00000000000E+00 0.  1.
         23    2    1    2    0    0 -0.31710570171E+02 -0.30647565216E+02 -0.46605861196E+02  0.11263280962E+03  0.92570027497E+02 0.  0.
         23    2    1    2    0    0  0.31710570171E+02  0.30647565216E+02  0.72198504305E+02  0.12723543539E+03  0.95033670255E+02 0.  0.
          5    1    3    3  502    0  0.20561766811E+02 -0.28591294867E+01  0.15783521906E+02  0.26498498817E+02  0.47000000000E+01 0. -1.
         -5    1    3    3    0  502 -0.52272336981E+02 -0.27788435729E+02 -0.62389383102E+02  0.86134310803E+02  0.47000000000E+01 0.  1.
          5    1    4    4  503    0 -0.20318302528E+02  0.33081307175E+02  0.62977456321E+02  0.74131344967E+02  0.47000000000E+01 0. -1.
         -5    1    4    4    0  503  0.52028872699E+02 -0.24337419597E+01  0.92210479843E+01  0.53104090428E+02  0.47000000000E+01 0.  1.
<mgrwt>
<rscale>  0 0.10420563E+03</rscale>
<asrwt>0</asrwt>
<pdfrwt beam="1">  1        1 0.20420068E-01 0.10476751E+03</pdfrwt>
<pdfrwt beam="2">  1       -1 0.16482739E-01 0.10476751E+03</pdfrwt>
<totfact> 0.63965333E+03</totfact>
</mgrwt>
</event>
<event>
 8    1  0.6396648E-004  0.9540175E+02  0.7546771E-02  0.1292221E+00
         -1   -1    0    0    0  501 -0.00000000000E+00  0.00000000000E+00  0.48745424838E+03  0.48745424838E+03  0.00000000000E+00 0.  1.
          1   -1    0    0  501    0  0.00000000000E+00 -0.00000000000E+00 -0.19481924531E+02  0.19481924531E+02  0.00000000000E+00 0. -1.
         23    2    1    2    0    0 -0.75926591985E+00  0.29203356800E+02  0.29970634618E+03  0.31350677265E+03  0.87230671331E+02 0.  0.
         23    2    1    2    0    0  0.75926591985E+00 -0.29203356800E+02  0.16826597767E+03  0.19342940026E+03  0.90818946884E+02 0.  0.
          5    1    4    4  502    0  0.31712079500E+01 -0.60777233217E+02  0.12941582580E+03  0.14308904432E+03  0.47000000000E+01 0. -1.
         -5    1    4    4    0  502 -0.24119420301E+01  0.31573876417E+02  0.38850151867E+02  0.50340355943E+02  0.47000000000E+01 0.  1.
          5    1    3    3  503    0  0.14079669833E+02 -0.21945884894E+02  0.37562042817E+02  0.45965813677E+02  0.47000000000E+01 0. -1.
         -5    1    3    3    0  503 -0.14838935753E+02  0.51149241694E+02  0.26214430336E+03  0.26754095897E+03  0.47000000000E+01 0.  1.
<mgrwt>
<rscale>  0 0.94537746E+02</rscale>
<asrwt>0</asrwt>
<pdfrwt beam="1">  1        1 0.29972195E-02 0.95401749E+02</pdfrwt>
<pdfrwt beam="2">  1       -1 0.74992952E-01 0.95401749E+02</pdfrwt>
<totfact> 0.58802955E+03</totfact>
</mgrwt>
</event>
<event>
 8    1  0.6396648E-004  0.9436841E+02  0.7546771E-02  0.1294127E+00
          1   -1    0    0  501    0  0.00000000000E+00  0.00000000000E+00  0.36125362303E+02  0.36125362303E+02  0.00000000000E+00 0. -1.
         -1   -1    0    0    0  501 -0.00000000000E+00 -0.00000000000E+00 -0.24706690007E+03  0.24706690007E+03  0.00000000000E+00 0.  1.
         23    2    1    2    0    0 -0.28733317573E+01 -0.33165921551E+01 -0.12851587111E+03  0.15789506303E+03  0.91625684077E+02 0.  0.
         23    2    1    2    0    0  0.28733317573E+01  0.33165921551E+01 -0.82425666657E+02  0.12529719934E+03  0.94266334505E+02 0.  0.
          5    1    3    3  502    0  0.27318619027E+02  0.27684901117E+02 -0.27400103219E+02  0.47808120145E+02  0.47000000000E+01 0. -1.
         -5    1    3    3    0  502 -0.30191950784E+02 -0.31001493272E+02 -0.10111576789E+03  0.11008694288E+03  0.47000000000E+01 0.  1.
          5    1    4    4  503    0  0.45274529913E+02  0.53195245020E+01 -0.64163206088E+02  0.78848509277E+02  0.47000000000E+01 0. -1.
         -5    1    4    4    0  503 -0.42401198155E+02 -0.20029323469E+01 -0.18262460569E+02  0.46448690068E+02  0.47000000000E+01 0.  1.
<mgrwt>
<rscale>  0 0.93701960E+02</rscale>
<asrwt>0</asrwt>
<pdfrwt beam="1">  1        1 0.55577480E-02 0.94368414E+02</pdfrwt>
<pdfrwt beam="2">  1       -1 0.38010292E-01 0.94368414E+02</pdfrwt>
<totfact> 0.88623911E+03</totfact>
</mgrwt>
</event>
<event>
 8    1  0.6396648E-004  0.1004147E+03  0.7546771E-02  0.1280901E+00
         -2   -1    0    0    0  501 -0.00000000000E+00  0.00000000000E+00  0.19279421515E+03  0.19279421515E+03  0.00000000000E+00 0.  1.
          2   -1    0    0  501    0  0.00000000000E+00 -0.00000000000E+00 -0.14381958425E+03  0.14381958425E+03  0.00000000000E+00 0. -1.
         23    2    1    2    0    0  0.91395302480E+01  0.40290786610E+02  0.15967242928E+03  0.18715774366E+03  0.88463878737E+02 0.  0.
         23    2    1    2    0    0 -0.91395302480E+01 -0.40290786610E+02 -0.11069779839E+03  0.14945605574E+03  0.91521754415E+02 0.  0.
          5    1    4    4  502    0 -0.38696693996E+02 -0.50903659840E+02 -0.93421351278E+02  0.11330602626E+03  0.47000000000E+01 0. -1.
         -5    1    4    4    0  502  0.29557163748E+02  0.10612873230E+02 -0.17276447107E+02  0.36150029484E+02  0.47000000000E+01 0.  1.
          5    1    3    3  503    0 -0.23655206810E+02 -0.12719061078E+02  0.19033637998E+02  0.33252258561E+02  0.47000000000E+01 0. -1.
         -5    1    3    3    0  503  0.32794737058E+02  0.53009847688E+02  0.14063879128E+03  0.15390548510E+03  0.47000000000E+01 0.  1.
<mgrwt>
<rscale>  0 0.99712622E+02</rscale>
<asrwt>0</asrwt>
<pdfrwt beam="1">  1        2 0.22126090E-01 0.10041469E+03</pdfrwt>
<pdfrwt beam="2">  1       -2 0.29660649E-01 0.10041469E+03</pdfrwt>
<totfact> 0.24590446E+03</totfact>
</mgrwt>
</event>
<event>
 8    1  0.6396648E-004  0.1095308E+03  0.7546771E-02  0.1264849E+00
          1   -1    0    0  501    0  0.00000000000E+00  0.00000000000E+00  0.10745584810E+03  0.10745584810E+03  0.00000000000E+00 0. -1.
         -1   -1    0    0    0  501 -0.00000000000E+00 -0.00000000000E+00 -0.24417871921E+03  0.24417871921E+03  0.00000000000E+00 0.  1.
         23    2    1    2    0    0 -0.37719483629E+02 -0.12359295356E+02 -0.20030013217E+03  0.22498913262E+03  0.94469334827E+02 0.  0.
         23    2    1    2    0    0  0.37719483629E+02  0.12359295356E+02  0.63577261055E+02  0.12664543469E+03  0.10208568155E+03 0.  0.
          5    1    3    3  502    0 -0.20109664701E+02  0.28561191973E+02 -0.22925520672E+02  0.42045330292E+02  0.47000000000E+01 0. -1.
         -5    1    4    4    0  503 -0.70680459459E+01  0.49892255284E+02  0.24813616722E+02  0.56364882557E+02  0.47000000000E+01 0.  1.
          5    1    4    4  503    0  0.44787529575E+02 -0.37532959928E+02  0.38763644333E+02  0.70280552135E+02  0.47000000000E+01 0. -1.
         -5    1    3    3    0  502 -0.17609818928E+02 -0.40920487329E+02 -0.17737461150E+03  0.18294380233E+03  0.47000000000E+01 0.  1.
<mgrwt>
<rscale>  0 0.10772108E+03</rscale>
<asrwt>0</asrwt>
<pdfrwt beam="1">  1        1 0.16531669E-01 0.10953081E+03</pdfrwt>
<pdfrwt beam="2">  1       -1 0.37565957E-01 0.10953081E+03</pdfrwt>
<totfact> 0.21778301E+03</totfact>
</mgrwt>
</event>
<event>
 8    1  0.6396648E-004  0.9798508E+02  0.7546771E-02  0.1302595E+00
         -1   -1    0    0    0  501 -0.00000000000E+00  0.00000000000E+00  0.80288509563E+02  0.80288509563E+02  0.00000000000E+00 0.  1.
          1   -1    0    0  501    0  0.00000000000E+00 -0.00000000000E+00 -0.15295877609E+03  0.15295877609E+03  0.00000000000E+00 0. -1.
         23    2    1    2    0    0  0.32719280617E+02  0.11756915330E+02  0.42564080279E+02  0.81985819582E+02  0.60837466255E+02 0.  0.
         23    2    1    2    0    0 -0.32719280617E+02 -0.11756915330E+02 -0.11523434680E+03  0.15126146607E+03  0.91609497607E+02 0.  0.
          5    1    4    4  502    0 -0.55819106294E+02 -0.20361069836E+02 -0.11075003425E+03  0.12576965405E+03  0.47000000000E+01 0. -1.
         -5    1    4    4    0  502  0.23099825677E+02  0.86041545062E+01 -0.44843125523E+01  0.25491812022E+02  0.47000000000E+01 0.  1.
          5    1    3    3  503    0  0.11452550361E+02 -0.22798698119E+02  0.29081806602E+02  0.38971566827E+02  0.47000000000E+01 0. -1.
         -5    1    3    3    0  503  0.21266730256E+02  0.34555613448E+02  0.13482273677E+02  0.43014252755E+02  0.47000000000E+01 0.  1.
<mgrwt>
<rscale>  0 0.90106240E+02</rscale>
<asrwt>0</asrwt>
<pdfrwt beam="1">  1        1 0.23532119E-01 0.97985083E+02</pdfrwt>
<pdfrwt beam="2">  1       -1 0.12352079E-01 0.97985083E+02</pdfrwt>
<totfact> 0.83284292E+03</totfact>
</mgrwt>
</event>
<event>
 8    1  0.6396648E-004  0.1094289E+03  0.7546771E-02  0.1262283E+00
         -1   -1    0    0    0  501 -0.00000000000E+00  0.00000000000E+00  0.15897603536E+02  0.15897603536E+02  0.00000000000E+00 0.  1.
          1   -1    0    0  501    0  0.00000000000E+00 -0.00000000000E+00 -0.75775986352E+03  0.75775986352E+03  0.00000000000E+00 0. -1.
         23    2    1    2    0    0  0.54992083914E+02 -0.20914060514E+02 -0.32058896288E+03  0.33875059172E+03  0.92266749413E+02 0.  0.
         23    2    1    2    0    0 -0.54992083914E+02  0.20914060514E+02 -0.42127329710E+03  0.43490687534E+03  0.90616070013E+02 0.  0.
          5    1    3    3  502    0  0.76427658661E+02 -0.28156979712E+02 -0.28390198327E+03  0.29539199146E+03  0.47000000000E+01 0. -1.
         -5    1    3    3    0  502 -0.21435574746E+02  0.72429191972E+01 -0.36686979613E+02  0.43358600258E+02  0.47000000000E+01 0.  1.
          5    1    4    4  503    0 -0.30962609016E+02 -0.32066649553E+02 -0.12148458630E+03  0.12948956668E+03  0.47000000000E+01 0. -1.
         -5    1    4    4    0  503 -0.24029474898E+02  0.52980710067E+02 -0.29978871081E+03  0.30541730866E+03  0.47000000000E+01 0.  1.
<mgrwt>
<rscale>  0 0.10908018E+03</rscale>
<asrwt>0</asrwt>
<pdfrwt beam="1">  1        1 0.11657843E+00 0.10942888E+03</pdfrwt>
<pdfrwt beam="2">  1       -1 0.24457854E-02 0.10942888E+03</pdfrwt>
<totfact> 0.12025939E+04</totfact>
</mgrwt>
</event>
<event>
 8    1  0.6396648E-004  0.1518003E+03  0.7546771E-02  0.1198629E+00
          1   -1    0    0  501    0  0.00000000000E+00  0.00000000000E+00  0.63026559522E+03  0.63026559522E+03  0.00000000000E+00 0. -1.
         -1   -1    0    0    0  501 -0.00000000000E+00 -0.00000000000E+00 -0.39046980851E+02  0.39046980851E+02  0.00000000000E+00 0.  1.
         23    2    1    2    0    0  0.11750578216E+03  0.27588886562E+02  0.20762601471E+03  0.25720007796E+03  0.92057387626E+02 0.  0.
         23    2    1    2    0    0 -0.11750578216E+03 -0.27588886562E+02  0.38359259967E+03  0.41211249812E+03  0.90136968440E+02 0.  0.
          5    1    3    3  502    0  0.23045696136E+02 -0.17773723127E+01  0.12792216508E+03  0.13007856657E+03  0.47000000000E+01 0. -1.
         -5    1    3    3    0  502  0.94460086027E+02  0.29366258875E+02  0.79703849628E+02  0.12712151139E+03  0.47000000000E+01 0.  1.
          5    1    4    4  503    0 -0.27679814214E+02  0.46716559679E+01  0.16743356350E+02  0.33021606052E+02  0.47000000000E+01 0. -1.
         -5    1    4    4    0  503 -0.89825967949E+02 -0.32260542530E+02  0.36684924332E+03  0.37909089206E+03  0.47000000000E+01 0.  1.
<mgrwt>
<rscale>  0 0.15151021E+03</rscale>
<asrwt>0</asrwt>
<pdfrwt beam="1">  1        1 0.96963930E-01 0.15180026E+03</pdfrwt>
<pdfrwt beam="2">  1       -1 0.60072283E-02 0.15180026E+03</pdfrwt>
<totfact> 0.42677731E+03</totfact>
</mgrwt>
</event>
<event>
 8    1  0.6396648E-004  0.9696509E+02  0.7546771E-02  0.1294316E+00
          2   -1    0    0  501    0  0.00000000000E+00  0.00000000000E+00  0.43762394994E+02  0.43762394994E+02  0.00000000000E+00 0. -1.
         -2   -1    0    0    0  501 -0.00000000000E+00 -0.00000000000E+00 -0.21416680371E+03  0.21416680371E+03  0.00000000000E+00 0.  1.
         23    2    1    2    0    0  0.26374226772E+02 -0.15148273099E+02 -0.12527765511E+03  0.15097756304E+03  0.78579028079E+02 0.  0.
         23    2    1    2    0    0 -0.26374226772E+02  0.15148273099E+02 -0.45126753601E+02  0.10695163567E+03  0.92071485627E+02 0.  0.
          5    1    4    4  502    0 -0.25091431052E+02  0.36009707928E+02  0.12164708041E+02  0.45785905025E+02  0.47000000000E+01 0. -1.
         -5    1    3    3    0  503  0.39166358640E+02  0.11582303257E+02 -0.10974122247E+03  0.11718950169E+03  0.47000000000E+01 0.  1.
          5    1    3    3  503    0 -0.12792131868E+02 -0.26730576357E+02 -0.15536432647E+02  0.33788061346E+02  0.47000000000E+01 0. -1.
         -5    1    4    4    0  502 -0.12827957204E+01 -0.20861434828E+02 -0.57291461642E+02  0.61165730642E+02  0.47000000000E+01 0.  1.
<mgrwt>
<rscale>  0 0.93619606E+02</rscale>
<asrwt>0</asrwt>
<pdfrwt beam="1">  1        2 0.67326761E-02 0.96965089E+02</pdfrwt>
<pdfrwt beam="2">  1       -2 0.32948739E-01 0.96965089E+02</pdfrwt>
<totfact> 0.83340616E+03</totfact>
</mgrwt>
</event>
<event>
 8    1  0.6396648E-004  0.1089725E+03  0.7546771E-02  0.1262597E+00
          2   -1    0    0  501    0  0.00000000000E+00  0.00000000000E+00  0.20618651045E+03  0.20618651045E+03  0.00000000000E+00 0. -1.
         -2   -1    0    0    0  501 -0.00000000000E+00 -0.00000000000E+00 -0.74572270273E+02  0.74572270273E+02  0.00000000000E+00 0.  1.
         23    2    1    2    0    0 -0.46468651070E+02 -0.33945546899E+02 -0.14808753624E+01  0.10874332363E+03  0.92256608198E+02 0.  0.
         23    2    1    2    0    0  0.46468651070E+02  0.33945546899E+02  0.13309511554E+03  0.17201545709E+03  0.92538489349E+02 0.  0.
          5    1    3    3  502    0  0.25156971651E+02 -0.84300293071E+01  0.14946056135E+02  0.30812549566E+02  0.47000000000E+01 0. -1.
         -5    1    4    4    0  503  0.90303197936E+01 -0.30532133844E+02  0.25673187945E+02  0.41169897399E+02  0.47000000000E+01 0.  1.
          5    1    4    4  503    0  0.37438331276E+02  0.64477680743E+02  0.10742192759E+03  0.13084555969E+03  0.47000000000E+01 0. -1.
         -5    1    3    3    0  502 -0.71625622721E+02 -0.25515517592E+02 -0.16426931498E+02  0.77930774066E+02  0.47000000000E+01 0.  1.
<mgrwt>
<rscale>  0 0.10891264E+03</rscale>
<asrwt>0</asrwt>
<pdfrwt beam="1">  1        2 0.31721001E-01 0.10897251E+03</pdfrwt>
<pdfrwt beam="2">  1       -2 0.11472657E-01 0.10897251E+03</pdfrwt>
<totfact> 0.81633560E+03</totfact>
</mgrwt>
</event>
<event>
 8    1  0.6396648E-004  0.9756817E+02  0.7546771E-02  0.1289012E+00
          2   -1    0    0  501    0  0.00000000000E+00  0.00000000000E+00  0.31592431223E+03  0.31592431223E+03  0.00000000000E+00 0. -1.
         -2   -1    0    0    0  501 -0.00000000000E+00 -0.00000000000E+00 -0.65602603611E+02  0.65602603611E+02  0.00000000000E+00 0.  1.
         23    2    1    2    0    0 -0.17080342172E+02 -0.27995850423E+01 -0.20561738515E+02  0.93607847894E+02  0.89666428118E+02 0.  0.
         23    2    1    2    0    0  0.17080342172E+02  0.27995850423E+01  0.27088344713E+03  0.28791906794E+03  0.96020685228E+02 0.  0.
          5    1    3    3  502    0  0.25899584777E+02 -0.96325894330E+01  0.19599671666E+02  0.34202520378E+02  0.47000000000E+01 0. -1.
         -5    1    4    4    0  503 -0.20688231596E+02 -0.34145156298E+02  0.16043003611E+03  0.16538978539E+03  0.47000000000E+01 0.  1.
          5    1    4    4  503    0  0.37768573768E+02  0.36944741340E+02  0.11045341102E+03  0.12252928255E+03  0.47000000000E+01 0. -1.
         -5    1    3    3    0  502 -0.42979926949E+02  0.68330043907E+01 -0.40161410180E+02  0.59405327515E+02  0.47000000000E+01 0.  1.
<mgrwt>
<rscale>  0 0.95967583E+02</rscale>
<asrwt>0</asrwt>
<pdfrwt beam="1">  1        2 0.48603739E-01 0.97568170E+02</pdfrwt>
<pdfrwt beam="2">  1       -2 0.10092708E-01 0.97568170E+02</pdfrwt>
<totfact> 0.63087130E+03</totfact>
</mgrwt>
</event>
<event>
 8    1  0.6396648E-004  0.1413590E+03  0.7546771E-02  0.1212969E+00
          1   -1    0    0  501    0  0.00000000000E+00  0.00000000000E+00  0.25973866017E+03  0.25973866017E+03  0.00000000000E+00 0. -1.
         -1   -1    0    0    0  501 -0.00000000000E+00 -0.00000000000E+00 -0.99617715591E+02  0.99617715591E+02  0.00000000000E+00 0.  1.
         23    2    1    2    0    0  0.72061699343E+02  0.75981366274E+02 -0.90413610407E+01  0.14164783957E+03  0.94954240102E+02 0.  0.
         23    2    1    2    0    0 -0.72061699343E+02 -0.75981366274E+02  0.16916230562E+03  0.21770853618E+03  0.88402853761E+02 0.  0.
          5    1    4    4  502    0 -0.48262504959E+02 -0.20713242713E+02  0.14208808414E+03  0.15155666090E+03  0.47000000000E+01 0. -1.
         -5    1    4    4    0  502 -0.23799194384E+02 -0.55268123561E+02  0.27074221479E+02  0.66151875287E+02  0.47000000000E+01 0.  1.
          5    1    3    3  503    0 -0.15615056356E+02  0.45402207808E+02 -0.61010120634E+01  0.48626153529E+02  0.47000000000E+01 0. -1.
         -5    1    3    3    0  503  0.87676755699E+02  0.30579158467E+02 -0.29403489773E+01  0.93021686045E+02  0.47000000000E+01 0.  1.
<mgrwt>
<rscale>  0 0.14026773E+03</rscale>
<asrwt>0</asrwt>
<pdfrwt beam="1">  1        1 0.39959794E-01 0.14135899E+03</pdfrwt>
<pdfrwt beam="2">  1       -1 0.15325802E-01 0.14135899E+03</pdfrwt>
<totfact> 0.31663455E+03</totfact>
</mgrwt>
</event>
<event>
 8    1  0.6396648E-004  0.9539858E+02  0.7546771E-02  0.1290329E+00
         -2   -1    0    0    0  501 -0.00000000000E+00  0.00000000000E+00  0.69392270757E+02  0.69392270757E+02  0.00000000000E+00 0.  1.
          2   -1    0    0  501    0  0.00000000000E+00 -0.00000000000E+00 -0.13396458057E+03  0.13396458057E+03  0.00000000000E+00 0. -1.
         23    2    1    2    0    0 -0.32655424000E+02  0.32588856818E+01 -0.17257603063E+02  0.96946966256E+02  0.89576181824E+02 0.  0.
         23    2    1    2    0    0  0.32655424000E+02 -0.32588856818E+01 -0.47314706746E+02  0.10640988507E+03  0.89483993614E+02 0.  0.
          5    1    4    4  502    0  0.49380350151E+02 -0.29367415554E+02 -0.11455709325E+02  0.58772334933E+02  0.47000000000E+01 0. -1.
         -5    1    3    3    0  503 -0.43652222394E+02  0.33866128744E+02 -0.28335915485E+02  0.62269136034E+02  0.47000000000E+01 0.  1.
          5    1    3    3  503    0  0.10996798394E+02 -0.30607243062E+02  0.11078312422E+02  0.34677830222E+02  0.47000000000E+01 0. -1.
         -5    1    4    4    0  502 -0.16724926151E+02  0.26108529872E+02 -0.35858997421E+02  0.47637550135E+02  0.47000000000E+01 0.  1.
<mgrwt>
<rscale>  0 0.95376935E+02</rscale>
<asrwt>0</asrwt>
<pdfrwt beam="1">  1        2 0.20609935E-01 0.95398582E+02</pdfrwt>
<pdfrwt beam="2">  1       -2 0.10675734E-01 0.95398582E+02</pdfrwt>
<totfact> 0.14462038E+04</totfact>
</mgrwt>
</event>
<event>
 8    1  0.6396648E-004  0.9797401E+02  0.7546771E-02  0.1284985E+00
         -1   -1    0    0    0  501 -0.00000000000E+00  0.00000000000E+00  0.17516287436E+03  0.17516287436E+03  0.00000000000E+00 0.  1.
          1   -1    0    0  501    0  0.00000000000E+00 -0.00000000000E+00 -0.54890311286E+02  0.54890311286E+02  0.00000000000E+00 0. -1.
         23    2    1    2    0    0 -0.15688298862E+02 -0.31073725028E+02  0.49688874700E+02  0.10985395197E+03  0.91581697882E+02 0.  0.
         23    2    1    2    0    0  0.15688298862E+02  0.31073725028E+02  0.70583688376E+02  0.12019923368E+03  0.90852075392E+02 0.  0.
          5    1    4    4  502    0  0.36696672877E+02  0.56768350584E+01  0.77617545640E+02  0.86171025570E+02  0.47000000000E+01 0. -1.
         -5    1    3    3    0  503 -0.37235278357E+02 -0.26878817478E+02  0.67098895089E+02  0.81445002949E+02  0.47000000000E+01 0.  1.
          5    1    3    3  503    0  0.21546979495E+02 -0.41949075500E+01 -0.17410020389E+02  0.28408949024E+02  0.47000000000E+01 0. -1.
         -5    1    4    4    0  502 -0.21008374015E+02  0.25396889969E+02 -0.70338572640E+01  0.34028208106E+02  0.47000000000E+01 0.  1.
<mgrwt>
<rscale>  0 0.97803145E+02</rscale>
<asrwt>0</asrwt>
<pdfrwt beam="1">  1        1 0.84446633E-02 0.97974009E+02</pdfrwt>
<pdfrwt beam="2">  1       -1 0.26948134E-01 0.97974009E+02</pdfrwt>
<totfact> 0.90618029E+03</totfact>
</mgrwt>
</event>
<event>
 7    1  0.6396648E-004  0.1357542E+03  0.7546771E-02  0.1238330E+00
          2   -1    0    0  501    0  0.00000000000E+00  0.00000000000E+00  0.10525294226E+04  0.10525294226E+04  0.00000000000E+00 0. -1.
         -2   -1    0    0    0  501 -0.00000000000E+00 -0.00000000000E+00 -0.13272299547E+02  0.13272299547E+02  0.00000000000E+00 0.  1.
         23    2    1    2    0    0 -0.75144273523E+01  0.11432363617E+02  0.57137623486E+03  0.57862441890E+03  0.90267662179E+02 0.  0.
          5    1    1    2  502    0  0.60887967110E+02 -0.30791786882E+02  0.34525226156E+03  0.35196120922E+03  0.47000000000E+01 0. -1.
         -5    1    3    3    0  503  0.40363468718E+02 -0.33141605860E+01  0.27538746564E+03  0.27838918710E+03  0.47000000000E+01 0. -1.
          5    1    3    3  503    0 -0.47877896070E+02  0.14746524203E+02  0.29598876922E+03  0.30023523180E+03  0.47000000000E+01 0.  1.
         -5    1    1    2    0  502 -0.53373539757E+02  0.19359423265E+02  0.12262862668E+03  0.13521609407E+03  0.47000000000E+01 0.  1.
<mgrwt>
<rscale>  0 0.12293650E+03</rscale>
<asrwt>0</asrwt>
<pdfrwt beam="1">  1        2 0.16192754E+00 0.13575419E+03</pdfrwt>
<pdfrwt beam="2">  1       -2 0.20418931E-02 0.13575419E+03</pdfrwt>
<totfact> 0.17497941E+04</totfact>
</mgrwt>
</event>
<event>
 8    1  0.6396648E-004  0.1281308E+03  0.7546771E-02  0.1230357E+00
         -1   -1    0    0    0  501 -0.00000000000E+00  0.00000000000E+00  0.14704599779E+02  0.14704599779E+02  0.00000000000E+00 0.  1.
          1   -1    0    0  501    0  0.00000000000E+00 -0.00000000000E+00 -0.13041815916E+04  0.13041815916E+04  0.00000000000E+00 0. -1.
         23    2    1    2    0    0  0.86830618758E+02 -0.21460501612E+02 -0.39245906359E+03  0.41276332084E+03  0.91374684422E+02 0.  0.
         23    2    1    2    0    0 -0.86830618758E+02  0.21460501612E+02 -0.89701792820E+03  0.90612287051E+03  0.91746299442E+02 0.  0.
          5    1    3    3  502    0  0.41733343351E+02  0.32623977853E+02 -0.11897273376E+03  0.13031729454E+03  0.47000000000E+01 0. -1.
         -5    1    3    3    0  502  0.45097275408E+02 -0.54084479465E+02 -0.27348632982E+03  0.28244602629E+03  0.47000000000E+01 0.  1.
          5    1    4    4  503    0 -0.20010773464E+02  0.50806295345E+02 -0.40904838134E+03  0.41270374238E+03  0.47000000000E+01 0. -1.
         -5    1    4    4    0  503 -0.66819845294E+02 -0.29345793733E+02 -0.48796954687E+03  0.49341912813E+03  0.47000000000E+01 0.  1.
<mgrwt>
<rscale>  0 0.12806426E+03</rscale>
<asrwt>0</asrwt>
<pdfrwt beam="1">  1        1 0.20064333E+00 0.12813077E+03</pdfrwt>
<pdfrwt beam="2">  1       -1 0.22622460E-02 0.12813077E+03</pdfrwt>
<totfact> 0.54226204E+03</totfact>
</mgrwt>
</event>
<event>
 8    1  0.6396648E-004  0.1398725E+03  0.7546771E-02  0.1214273E+00
          1   -1    0    0  501    0  0.00000000000E+00  0.00000000000E+00  0.26902523779E+02  0.26902523779E+02  0.00000000000E+00 0. -1.
         -1   -1    0    0    0  501 -0.00000000000E+00 -0.00000000000E+00 -0.85454333349E+03  0.85454333349E+03  0.00000000000E+00 0.  1.
         23    2    1    2    0    0  0.10244713258E+03 -0.30360646715E+02 -0.23318922741E+03  0.27076018532E+03  0.86698779295E+02 0.  0.
         23    2    1    2    0    0 -0.10244713258E+03  0.30360646715E+02 -0.59445158230E+03  0.61068567195E+03  0.90261411372E+02 0.  0.
          5    1    4    4  502    0 -0.32116470837E+02 -0.29611010698E+02 -0.13378904532E+03  0.14081860069E+03  0.47000000000E+01 0. -1.
         -5    1    4    4    0  502 -0.70330661741E+02  0.59971657413E+02 -0.46066253699E+03  0.46986707126E+03  0.47000000000E+01 0.  1.
          5    1    3    3  503    0  0.82881703815E+02 -0.50242992921E+02 -0.12122747019E+03  0.15528014906E+03  0.47000000000E+01 0. -1.
         -5    1    3    3    0  503  0.19565428763E+02  0.19882346206E+02 -0.11196175722E+03  0.11548003625E+03  0.47000000000E+01 0.  1.
<mgrwt>
<rscale>  0 0.13930095E+03</rscale>
<asrwt>0</asrwt>
<pdfrwt beam="1">  1        1 0.41388504E-02 0.13987246E+03</pdfrwt>
<pdfrwt beam="2">  1       -1 0.13146819E+00 0.13987246E+03</pdfrwt>
<totfact> 0.11264503E+03</totfact>
</mgrwt>
</event>
<event>
 8    1  0.6396648E-004  0.9015416E+02  0.7546771E-02  0.1302714E+00
         -1   -1    0    0    0  501 -0.00000000000E+00  0.00000000000E+00  0.15570935504E+02  0.15570935504E+02  0.00000000000E+00 0.  1.
          1   -1    0    0  501    0  0.00000000000E+00 -0.00000000000E+00 -0.70374101744E+03  0.70374101744E+03  0.00000000000E+00 0. -1.
         23    2    1    2    0    0  0.17039655015E-02  0.53067668284E+01 -0.16072930161E+03  0.18428695205E+03  0.89997836207E+02 0.  0.
         23    2    1    2    0    0 -0.17039655015E-02 -0.53067668284E+01 -0.52744078033E+03  0.53502500090E+03  0.89609224166E+02 0.  0.
          5    1    3    3  502    0 -0.28379303136E+02 -0.19745647232E+02 -0.24030867527E+02  0.42365646758E+02  0.47000000000E+01 0. -1.
         -5    1    3    3    0  502  0.28381007102E+02  0.25052414061E+02 -0.13669843408E+03  0.14192130529E+03  0.47000000000E+01 0.  1.
          5    1    4    4  503    0  0.18202497765E+02 -0.39011044194E+02 -0.38572011120E+03  0.38814338417E+03  0.47000000000E+01 0. -1.
         -5    1    4    4    0  503 -0.18204201730E+02  0.33704277365E+02 -0.14172066913E+03  0.14688161673E+03  0.47000000000E+01 0.  1.
<mgrwt>
<rscale>  0 0.90057018E+02</rscale>
<asrwt>0</asrwt>
<pdfrwt beam="1">  1        1 0.10826786E+00 0.90154159E+02</pdfrwt>
<pdfrwt beam="2">  1       -1 0.23955282E-02 0.90154159E+02</pdfrwt>
<totfact> 0.13565478E+04</totfact>
</mgrwt>
</event>
<event>
 8    1  0.6396648E-004  0.9177601E+02  0.7546771E-02  0.1298833E+00
         -2   -1    0    0    0  501 -0.00000000000E+00  0.00000000000E+00  0.26043515794E+03  0.26043515794E+03  0.00000000000E+00 0.  1.
          2   -1    0    0  501    0  0.00000000000E+00 -0.00000000000E+00 -0.50662087899E+02  0.50662087899E+02  0.00000000000E+00 0. -1.
         23    2    1    2    0    0 -0.12577609761E+02  0.47935466781E+00  0.11143139526E+02  0.92450015779E+02  0.90908799414E+02 0.  0.
         23    2    1    2    0    0  0.12577609761E+02 -0.47935466781E+00  0.19862993052E+03  0.21864723006E+03  0.90522571043E+02 0.  0.
          5    1    4    4  502    0 -0.29022418567E+02  0.11169740896E+02  0.15071630571E+03  0.15396284843E+03  0.47000000000E+01 0. -1.
         -5    1    4    4    0  502  0.41600028328E+02 -0.11649095563E+02  0.47913624805E+02  0.64684381626E+02  0.47000000000E+01 0.  1.
          5    1    3    3  503    0 -0.40184960434E+02 -0.27363250803E+02 -0.63584326838E+01  0.49255438337E+02  0.47000000000E+01 0. -1.
         -5    1    3    3    0  503  0.27607350673E+02  0.27842605471E+02  0.17501572210E+02  0.43194577442E+02  0.47000000000E+01 0.  1.
<mgrwt>
<rscale>  0 0.91680218E+02</rscale>
<asrwt>0</asrwt>
<pdfrwt beam="1">  1        2 0.77941675E-02 0.91776009E+02</pdfrwt>
<pdfrwt beam="2">  1       -2 0.40066946E-01 0.91776009E+02</pdfrwt>
<totfact> 0.48125380E+03</totfact>
</mgrwt>
</event>
<event>
 8    1  0.6396648E-004  0.1157269E+03  0.7546771E-02  0.1251663E+00
         -2   -1    0    0    0  501 -0.00000000000E+00  0.00000000000E+00  0.69019136900E+02  0.69019136900E+02  0.00000000000E+00 0.  1.
          2   -1    0    0  501    0  0.00000000000E+00 -0.00000000000E+00 -0.32173898841E+03  0.32173898841E+03  0.00000000000E+00 0. -1.
         23    2    1    2    0    0 -0.12607330178E+02  0.65792137320E+02 -0.25088099675E+03  0.27501665701E+03  0.90583315220E+02 0.  0.
         23    2    1    2    0    0  0.12607330178E+02 -0.65792137320E+02 -0.18388547654E+01  0.11574146830E+03  0.94367134061E+02 0.  0.
          5    1    4    4  502    0 -0.27423709728E+02 -0.36916493546E+02 -0.33342598751E+02  0.56997423121E+02  0.47000000000E+01 0. -1.
         -5    1    4    4    0  502  0.40031039906E+02 -0.28875643774E+02  0.31503743985E+02  0.58744045183E+02  0.47000000000E+01 0.  1.
          5    1    3    3  503    0 -0.22064513836E+02 -0.17592953812E+02 -0.62829896264E+02  0.69036516853E+02  0.47000000000E+01 0. -1.
         -5    1    3    3    0  503  0.94571836580E+01  0.83385091131E+02 -0.18805110049E+03  0.20598014016E+03  0.47000000000E+01 0.  1.
<mgrwt>
<rscale>  0 0.11495310E+03</rscale>
<asrwt>0</asrwt>
<pdfrwt beam="1">  1        2 0.49498307E-01 0.11572686E+03</pdfrwt>
<pdfrwt beam="2">  1       -2 0.10618329E-01 0.11572686E+03</pdfrwt>
<totfact> 0.57824020E+03</totfact>
</mgrwt>
</event>
<event>
 8    1  0.6396648E-004  0.9683604E+02  0.7546771E-02  0.1288942E+00
          1   -1    0    0  501    0  0.00000000000E+00  0.00000000000E+00  0.53419036092E+03  0.53419036092E+03  0.00000000000E+00 0. -1.
         -1   -1    0    0    0  501 -0.00000000000E+00 -0.00000000000E+00 -0.18800215153E+02  0.18800215153E+02  0.00000000000E+00 0.  1.
         23    2    1    2    0    0  0.15920777915E+02 -0.15037990303E+02  0.16716807403E+03  0.19155478731E+03  0.90931068638E+02 0.  0.
         23    2    1    2    0    0 -0.15920777915E+02  0.15037990303E+02  0.34822207174E+03  0.36143578877E+03  0.94327121412E+02 0.  0.
          5    1    4    4  502    0 -0.12360735293E+02 -0.27978801487E+02  0.27167611488E+03  0.27343299455E+03  0.47000000000E+01 0. -1.
         -5    1    4    4    0  502 -0.35600426221E+01  0.43016791790E+02  0.76545956856E+02  0.88002794219E+02  0.47000000000E+01 0.  1.
          5    1    3    3  503    0 -0.25227652512E+02 -0.25386195283E+02  0.13011035287E+03  0.13502476546E+03  0.47000000000E+01 0. -1.
         -5    1    3    3    0  503  0.41148430427E+02  0.10348204979E+02  0.37057721156E+02  0.56530021849E+02  0.47000000000E+01 0.  1.
<mgrwt>
<rscale>  0 0.95999020E+02</rscale>
<asrwt>0</asrwt>
<pdfrwt beam="1">  1        1 0.82183121E-01 0.96836037E+02</pdfrwt>
<pdfrwt beam="2">  1       -1 0.28923412E-02 0.96836037E+02</pdfrwt>
<totfact> 0.15115766E+04</totfact>
</mgrwt>
</event>
<event>
 8    1  0.6396648E-004  0.1450089E+03  0.7546771E-02  0.1208037E+00
          1   -1    0    0  501    0  0.00000000000E+00  0.00000000000E+00  0.42688861034E+03  0.42688861034E+03  0.00000000000E+00 0. -1.
         -1   -1    0    0    0  501 -0.00000000000E+00 -0.00000000000E+00 -0.92008830133E+02  0.92008830133E+02  0.00000000000E+00 0.  1.
         23    2    1    2    0    0  0.16133688183E+02  0.11093703054E+03  0.34582075988E+03  0.37347640865E+03  0.85588020255E+02 0.  0.
         23    2    1    2    0    0 -0.16133688183E+02 -0.11093703054E+03 -0.10940979682E+02  0.14542103182E+03  0.91979621762E+02 0.  0.
          5    1    3    3  502    0 -0.31843813745E+02  0.64470331912E+02  0.21059487500E+03  0.22258199286E+03  0.47000000000E+01 0. -1.
         -5    1    3    3    0  502  0.47977501929E+02  0.46466698628E+02  0.13522588489E+03  0.15089441579E+03  0.47000000000E+01 0.  1.
          5    1    4    4  503    0 -0.27059674607E+02 -0.72374708598E+02  0.34410799684E+02  0.84714329186E+02  0.47000000000E+01 0. -1.
         -5    1    4    4    0  503  0.10925986424E+02 -0.38562321942E+02 -0.45351779366E+02  0.60706702633E+02  0.47000000000E+01 0.  1.
<mgrwt>
<rscale>  0 0.14400662E+03</rscale>
<asrwt>0</asrwt>
<pdfrwt beam="1">  1        1 0.65675170E-01 0.14500887E+03</pdfrwt>
<pdfrwt beam="2">  1       -1 0.14155205E-01 0.14500887E+03</pdfrwt>
<totfact> 0.19302888E+03</totfact>
</mgrwt>
</event>
<event>
 8    1  0.6396648E-004  0.9369678E+02  0.7546771E-02  0.1294148E+00
          1   -1    0    0  501    0  0.00000000000E+00  0.00000000000E+00  0.66430179525E+02  0.66430179525E+02  0.00000000000E+00 0. -1.
         -1   -1    0    0    0  501 -0.00000000000E+00 -0.00000000000E+00 -0.21909766365E+03  0.21909766365E+03  0.00000000000E+00 0.  1.
         23    2    1    2    0    0 -0.68529829395E+01  0.21713321242E+02 -0.16627425532E+03  0.19084822411E+03  0.90870704688E+02 0.  0.
         23    2    1    2    0    0  0.68529829395E+01 -0.21713321242E+02  0.13606771200E+02  0.94679619056E+02  0.90888141953E+02 0.  0.
          5    1    4    4  502    0 -0.13757513944E+01 -0.54965329146E+02 -0.50104336065E+01  0.55410058157E+02  0.47000000000E+01 0. -1.
         -5    1    3    3    0  503  0.12821958281E+02  0.50001524490E+02 -0.13289137511E+03  0.14264207880E+03  0.47000000000E+01 0.  1.
          5    1    3    3  503    0 -0.19674941220E+02 -0.28288203248E+02 -0.33382880214E+02  0.48206145318E+02  0.47000000000E+01 0. -1.
         -5    1    4    4    0  502  0.82287343339E+01  0.33252007904E+02  0.18617204807E+02  0.39269560899E+02  0.47000000000E+01 0.  1.
<mgrwt>
<rscale>  0 0.93692548E+02</rscale>
<asrwt>0</asrwt>
<pdfrwt beam="1">  1        1 0.10220027E-01 0.93696777E+02</pdfrwt>
<pdfrwt beam="2">  1       -1 0.33707334E-01 0.93696777E+02</pdfrwt>
<totfact> 0.48368696E+03</totfact>
</mgrwt>
</event>
<event>
 8    1  0.6396648E-004  0.9559928E+02  0.7546771E-02  0.1289859E+00
          1   -1    0    0  501    0  0.00000000000E+00  0.00000000000E+00  0.16881359619E+03  0.16881359619E+03  0.00000000000E+00 0. -1.
         -1   -1    0    0    0  501 -0.00000000000E+00 -0.00000000000E+00 -0.84272771163E+02  0.84272771163E+02  0.00000000000E+00 0.  1.
         23    2    1    2    0    0 -0.19955228722E+02 -0.20990494080E+02 -0.33441215210E+02  0.10123451498E+03  0.91056576661E+02 0.  0.
         23    2    1    2    0    0  0.19955228722E+02  0.20990494080E+02  0.11798204024E+03  0.15185185237E+03  0.91106592822E+02 0.  0.
          5    1    3    3  502    0  0.28191552847E+02 -0.33591950648E+02 -0.69194255761E+01  0.44644722538E+02  0.47000000000E+01 0. -1.
         -5    1    3    3    0  502 -0.48146781569E+02  0.12601456568E+02 -0.26521789634E+02  0.56589792440E+02  0.47000000000E+01 0.  1.
          5    1    4    4  503    0  0.47041619024E+02  0.13036742341E+01  0.26258913025E+02  0.54094676264E+02  0.47000000000E+01 0. -1.
         -5    1    4    4    0  503 -0.27086390302E+02  0.19686819846E+02  0.91723127211E+02  0.97757176108E+02  0.47000000000E+01 0.  1.
<mgrwt>
<rscale>  0 0.95587366E+02</rscale>
<asrwt>0</asrwt>
<pdfrwt beam="1">  1        1 0.25971322E-01 0.95599285E+02</pdfrwt>
<pdfrwt beam="2">  1       -1 0.12965042E-01 0.95599285E+02</pdfrwt>
<totfact> 0.68264095E+03</totfact>
</mgrwt>
</event>
<event>
 8    1  0.6396648E-004  0.1467268E+03  0.7546771E-02  0.1204677E+00
         -1   -1    0    0    0  501 -0.00000000000E+00  0.00000000000E+00  0.10589376990E+03  0.10589376990E+03  0.00000000000E+00 0.  1.
          1   -1    0    0  501    0  0.00000000000E+00 -0.00000000000E+00 -0.20787152239E+03  0.20787152239E+03  0.00000000000E+00 0. -1.
         23    2    1    2    0    0 -0.10590240948E+03 -0.43466039381E+02 -0.75506491656E+02  0.16466977334E+03  0.91160775872E+02 0.  0.
         23    2    1    2    0    0  0.10590240948E+03  0.43466039381E+02 -0.26471260843E+02  0.14909551895E+03  0.91783055124E+02 0.  0.
          5    1    3    3  502    0 -0.70301446483E+02 -0.22133912605E+02 -0.93535120353E+02  0.11917681068E+03  0.47000000000E+01 0. -1.
         -5    1    4    4    0  503 -0.13031902626E+02  0.17788216220E+02 -0.14355912500E+02  0.26728885986E+02  0.47000000000E+01 0.  1.
          5    1    4    4  503    0  0.11893431210E+03  0.25677823160E+02 -0.12115348343E+02  0.12236663296E+03  0.47000000000E+01 0. -1.
         -5    1    3    3    0  502 -0.35600962993E+02 -0.21332126775E+02  0.18028628697E+02  0.45492962659E+02  0.47000000000E+01 0.  1.
<mgrwt>
<rscale>  0 0.14662956E+03</rscale>
<asrwt>0</asrwt>
<pdfrwt beam="1">  1        1 0.31980234E-01 0.14672677E+03</pdfrwt>
<pdfrwt beam="2">  1       -1 0.16291349E-01 0.14672677E+03</pdfrwt>
<totfact> 0.37977827E+03</totfact>
</mgrwt>
</event>
<event>
 8    1  0.6396648E-004  0.1531991E+03  0.7546771E-02  0.1197784E+00
         -1   -1    0    0    0  501 -0.00000000000E+00  0.00000000000E+00  0.96146596416E+02  0.96146596416E+02  0.00000000000E+00 0.  1.
          1   -1    0    0  501    0  0.00000000000E+00 -0.00000000000E+00 -0.43206892265E+03  0.43206892265E+03  0.00000000000E+00 0. -1.
         23    2    1    2    0    0 -0.77486037383E+02 -0.88577463501E+02  0.10279759780E+02  0.14963150244E+03  0.91836049738E+02 0.  0.
         23    2    1    2    0    0  0.77486037383E+02  0.88577463501E+02 -0.34620208602E+03  0.37858401663E+03  0.98081192164E+02 0.  0.
          5    1    3    3  502    0 -0.19682902841E+02  0.15409409676E+02  0.16642563850E+02  0.30396241582E+02  0.47000000000E+01 0. -1.
         -5    1    4    4    0  503  0.33783027712E+02  0.99347808114E+01 -0.22379116032E+03  0.22659339414E+03  0.47000000000E+01 0.  1.
          5    1    4    4  503    0  0.43703009671E+02  0.78642682689E+02 -0.12241092570E+03  0.15199062249E+03  0.47000000000E+01 0. -1.
         -5    1    3    3    0  502 -0.57803134542E+02 -0.10398687318E+03 -0.63628040691E+01  0.11923526086E+03  0.47000000000E+01 0.  1.
<mgrwt>
<rscale>  0 0.15220929E+03</rscale>
<asrwt>0</asrwt>
<pdfrwt beam="1">  1        1 0.66472141E-01 0.15319913E+03</pdfrwt>
<pdfrwt beam="2">  1       -1 0.14791784E-01 0.15319913E+03</pdfrwt>
<totfact> 0.17768684E+03</totfact>
</mgrwt>
</event>
<event>
 8    1  0.6396648E-004  0.9657608E+02  0.7546771E-02  0.1289333E+00
         -2   -1    0    0    0  501 -0.00000000000E+00  0.00000000000E+00  0.25223187274E+03  0.25223187274E+03  0.00000000000E+00 0.  1.
          2   -1    0    0  501    0  0.00000000000E+00 -0.00000000000E+00 -0.34680957758E+03  0.34680957758E+03  0.00000000000E+00 0. -1.
         23    2    1    2    0    0 -0.19179058443E+02  0.23404881661E+02  0.23640329376E+03  0.25425838801E+03  0.88573053477E+02 0.  0.
         23    2    1    2    0    0  0.19179058443E+02 -0.23404881661E+02 -0.33098099861E+03  0.34478306232E+03  0.91713215255E+02 0.  0.
          5    1    4    4  502    0  0.49221521736E+02  0.20561727720E+01 -0.24699319422E+03  0.25190219142E+03  0.47000000000E+01 0. -1.
         -5    1    4    4    0  502 -0.30042463293E+02 -0.25461054433E+02 -0.83987804385E+02  0.92880870899E+02  0.47000000000E+01 0.  1.
          5    1    3    3  503    0 -0.16873762317E+02 -0.20720645989E+02  0.20973050357E+02  0.34293262694E+02  0.47000000000E+01 0. -1.
         -5    1    3    3    0  503 -0.23052961262E+01  0.44125527650E+02  0.21543024340E+03  0.21996512531E+03  0.47000000000E+01 0.  1.
<mgrwt>
<rscale>  0 0.95823098E+02</rscale>
<asrwt>0</asrwt>
<pdfrwt beam="1">  1        2 0.53355319E-01 0.96576077E+02</pdfrwt>
<pdfrwt beam="2">  1       -2 0.38804904E-01 0.96576077E+02</pdfrwt>
<totfact> 0.58826811E+02</totfact>
</mgrwt>
</event>
<event>
 8    1  0.6396648E-004  0.1315960E+03  0.7546771E-02  0.1225925E+00
         -1   -1    0    0    0  501 -0.00000000000E+00  0.00000000000E+00  0.11356013718E+03  0.11356013718E+03  0.00000000000E+00 0.  1.
          1   -1    0    0  501    0  0.00000000000E+00 -0.00000000000E+00 -0.34327921094E+03  0.34327921094E+03  0.00000000000E+00 0. -1.
         23    2    1    2    0    0 -0.57551345253E+02 -0.72022907123E+02  0.56990370018E+02  0.14137173176E+03  0.90766776832E+02 0.  0.
         23    2    1    2    0    0  0.57551345253E+02  0.72022907123E+02 -0.28670944378E+03  0.31546761636E+03  0.93904501103E+02 0.  0.
          5    1    4    4  502    0  0.83440599027E+02  0.54708140080E+02 -0.22535832028E+03  0.24650309669E+03  0.47000000000E+01 0. -1.
         -5    1    3    3    0  503 -0.80874902798E+02 -0.53116727566E+02  0.53815926280E+02  0.11081687855E+03  0.47000000000E+01 0.  1.
          5    1    3    3  503    0  0.23323557545E+02 -0.18906179557E+02  0.31744437380E+01  0.30554853216E+02  0.47000000000E+01 0. -1.
         -5    1    4    4    0  502 -0.25889253774E+02  0.17314767043E+02 -0.61351123499E+02  0.68964519671E+02  0.47000000000E+01 0.  1.
<mgrwt>
<rscale>  0 0.13103738E+03</rscale>
<asrwt>0</asrwt>
<pdfrwt beam="1">  1        1 0.52812186E-01 0.13159602E+03</pdfrwt>
<pdfrwt beam="2">  1       -1 0.17470790E-01 0.13159602E+03</pdfrwt>
<totfact> 0.18180065E+03</totfact>
</mgrwt>
</event>
<event>
 8    1  0.6396648E-004  0.1179383E+03  0.7546771E-02  0.1246781E+00
         -2   -1    0    0    0  501 -0.00000000000E+00  0.00000000000E+00  0.22010633566E+02  0.22010633566E+02  0.00000000000E+00 0.  1.
          2   -1    0    0  501    0  0.00000000000E+00 -0.00000000000E+00 -0.83405763736E+03  0.83405763736E+03  0.00000000000E+00 0. -1.
         23    2    1    2    0    0  0.70031397135E+02 -0.27688982501E+02 -0.19446519341E+03  0.22743386980E+03  0.90765507483E+02 0.  0.
         23    2    1    2    0    0 -0.70031397135E+02  0.27688982501E+02 -0.61758181039E+03  0.62863440113E+03  0.90015784299E+02 0.  0.
          5    1    4    4  502    0 -0.48128672554E+02 -0.19980291020E+02 -0.44842530642E+03  0.45146752551E+03  0.47000000000E+01 0. -1.
         -5    1    3    3    0  503  0.65256768961E+02 -0.55965006751E+02 -0.16464139455E+03  0.18579398988E+03  0.47000000000E+01 0.  1.
          5    1    3    3  503    0  0.47746281734E+01  0.28276024250E+02 -0.29823798860E+02  0.41639879923E+02  0.47000000000E+01 0. -1.
         -5    1    4    4    0  502 -0.21902724581E+02  0.47669273521E+02 -0.16915650397E+03  0.17716687562E+03  0.47000000000E+01 0.  1.
<mgrwt>
<rscale>  0 0.11779408E+03</rscale>
<asrwt>0</asrwt>
<pdfrwt beam="1">  1        2 0.12831654E+00 0.11793835E+03</pdfrwt>
<pdfrwt beam="2">  1       -2 0.33862519E-02 0.11793835E+03</pdfrwt>
<totfact> 0.11278781E+04</totfact>
</mgrwt>
</event>
<event>
 8    1  0.6396648E-004  0.1048268E+03  0.7546771E-02  0.1272098E+00
          1   -1    0    0  501    0  0.00000000000E+00  0.00000000000E+00  0.10537216871E+04  0.10537216871E+04  0.00000000000E+00 0. -1.
         -1   -1    0    0    0  501 -0.00000000000E+00 -0.00000000000E+00 -0.21916404859E+02  0.21916404859E+02  0.00000000000E+00 0.  1.
         23    2    1    2    0    0 -0.72810179710E+01  0.39922918605E+02  0.11737232727E+03  0.15521629290E+03  0.93107366627E+02 0.  0.
         23    2    1    2    0    0  0.72810179710E+01 -0.39922918605E+02  0.91443295498E+03  0.92042179907E+03  0.96653020601E+02 0.  0.
          5    1    3    3  502    0 -0.49051164378E+02  0.10935215964E+02  0.60305316340E+02  0.78641063408E+02  0.47000000000E+01 0. -1.
         -5    1    3    3    0  502  0.41770146407E+02  0.28987702641E+02  0.57067010927E+02  0.76575229490E+02  0.47000000000E+01 0.  1.
          5    1    4    4  503    0  0.43048645962E+02 -0.50940819952E+02  0.61433209277E+03  0.61795967770E+03  0.47000000000E+01 0. -1.
         -5    1    4    4    0  503 -0.35767627991E+02  0.11017901347E+02  0.30010086221E+03  0.30246212136E+03  0.47000000000E+01 0.  1.
<mgrwt>
<rscale>  0 0.10400215E+03</rscale>
<asrwt>0</asrwt>
<pdfrwt beam="1">  1        1 0.16211099E+00 0.10482680E+03</pdfrwt>
<pdfrwt beam="2">  1       -1 0.33717554E-02 0.10482680E+03</pdfrwt>
<totfact> 0.44828433E+03</totfact>
</mgrwt>
</event>
<event>
 8    1  0.6396648E-004  0.9427245E+02  0.7546771E-02  0.1293597E+00
          1   -1    0    0  501    0  0.00000000000E+00  0.00000000000E+00  0.10350161766E+03  0.10350161766E+03  0.00000000000E+00 0. -1.
         -1   -1    0    0    0  501 -0.00000000000E+00 -0.00000000000E+00 -0.86938718691E+02  0.86938718691E+02  0.00000000000E+00 0.  1.
         23    2    1    2    0    0 -0.14507662562E+02 -0.10160273638E+02 -0.72552065282E+01  0.93205588962E+02  0.91219188544E+02 0.  0.
         23    2    1    2    0    0  0.14507662562E+02  0.10160273638E+02  0.23818105496E+02  0.97234747388E+02  0.92593685080E+02 0.  0.
          5    1    3    3  502    0 -0.23047222210E+02 -0.46758120640E+02 -0.15208513438E+02  0.54505827013E+02  0.47000000000E+01 0. -1.
         -5    1    4    4    0  503  0.37308967646E+02  0.98481958811E+01 -0.22843277791E+02  0.45087153039E+02  0.47000000000E+01 0.  1.
          5    1    4    4  503    0 -0.22801305084E+02  0.31207775666E+00  0.46661383287E+02  0.52147594348E+02  0.47000000000E+01 0. -1.
         -5    1    3    3    0  502  0.85395596486E+01  0.36597847002E+02  0.79533069093E+01  0.38699761950E+02  0.47000000000E+01 0.  1.
<mgrwt>
<rscale>  0 0.93933203E+02</rscale>
<asrwt>0</asrwt>
<pdfrwt beam="1">  1        1 0.15923326E-01 0.94272445E+02</pdfrwt>
<pdfrwt beam="2">  1       -1 0.13375188E-01 0.94272445E+02</pdfrwt>
<totfact> 0.12017339E+04</totfact>
</mgrwt>
</event>
<event>
 8    1  0.6396648E-004  0.1065062E+03  0.7546771E-02  0.1271185E+00
         -2   -1    0    0    0  501 -0.00000000000E+00  0.00000000000E+00  0.23616196228E+02  0.23616196228E+02  0.00000000000E+00 0.  1.
          2   -1    0    0  501    0  0.00000000000E+00 -0.00000000000E+00 -0.44609141466E+03  0.44609141466E+03  0.00000000000E+00 0. -1.
         23    2    1    2    0    0 -0.19938327778E+02 -0.33475348622E+02 -0.23013471351E+03  0.25358541740E+03  0.99123365949E+02 0.  0.
         23    2    1    2    0    0  0.19938327778E+02  0.33475348622E+02 -0.19234050493E+03  0.21612219349E+03  0.90530640136E+02 0.  0.
          5    1    3    3  502    0  0.34244700513E+02 -0.24205523230E+02 -0.51255610954E+02  0.66391524476E+02  0.47000000000E+01 0. -1.
         -5    1    4    4    0  503 -0.39513121544E+01  0.32213729726E+02 -0.13232988662E+02  0.35362964236E+02  0.47000000000E+01 0.  1.
          5    1    4    4  503    0  0.23889639932E+02  0.12616188958E+01 -0.17910751626E+03  0.18075922925E+03  0.47000000000E+01 0. -1.
         -5    1    3    3    0  502 -0.54183028291E+02 -0.92698253916E+01 -0.17887910255E+03  0.18719389292E+03  0.47000000000E+01 0.  1.
<mgrwt>
<rscale>  0 0.10446135E+03</rscale>
<asrwt>0</asrwt>
<pdfrwt beam="1">  1        2 0.68629442E-01 0.10650623E+03</pdfrwt>
<pdfrwt beam="2">  1       -2 0.36332613E-02 0.10650623E+03</pdfrwt>
<totfact> 0.20628105E+04</totfact>
</mgrwt>
</event>
<event>
 8    1  0.6396648E-004  0.1045514E+03  0.7546771E-02  0.1271089E+00
          3   -1    0    0  501    0  0.00000000000E+00  0.00000000000E+00  0.53734842764E+03  0.53734842764E+03  0.00000000000E+00 0. -1.
         -3   -1    0    0    0  501 -0.00000000000E+00 -0.00000000000E+00 -0.54016620682E+02  0.54016620682E+02  0.00000000000E+00 0.  1.
         23    2    1    2    0    0 -0.50102539566E+02  0.15837408755E+01  0.47516491190E+03  0.48649518752E+03  0.91559277338E+02 0.  0.
         23    2    1    2    0    0  0.50102539566E+02 -0.15837408755E+01  0.81668950585E+01  0.10486986081E+03  0.91750841004E+02 0.  0.
          5    1    4    4  502    0  0.43251510691E+02 -0.39955361826E+02 -0.12683576059E+02  0.60415951680E+02  0.47000000000E+01 0. -1.
         -5    1    3    3    0  503  0.19496844980E+02 -0.17143248026E+02  0.67348555359E+02  0.72332121675E+02  0.47000000000E+01 0.  1.
          5    1    3    3  503    0 -0.69599384545E+02  0.18726988902E+02  0.40781635654E+03  0.41416306584E+03  0.47000000000E+01 0. -1.
         -5    1    4    4    0  502  0.68510288750E+01  0.38371620951E+02  0.20850471118E+02  0.44453909129E+02  0.47000000000E+01 0.  1.
<mgrwt>
<rscale>  0 0.10450933E+03</rscale>
<asrwt>0</asrwt>
<pdfrwt beam="1">  1        3 0.82668985E-01 0.10455137E+03</pdfrwt>
<pdfrwt beam="2">  1       -3 0.83102497E-02 0.10455137E+03</pdfrwt>
<totfact> 0.31238510E+02</totfact>
</mgrwt>
</event>
<event>
 8    1  0.6396648E-004  0.1326392E+03  0.7546771E-02  0.1225532E+00
         -1   -1    0    0    0  501 -0.00000000000E+00  0.00000000000E+00  0.74264072933E+03  0.74264072933E+03  0.00000000000E+00 0.  1.
          1   -1    0    0  501    0  0.00000000000E+00 -0.00000000000E+00 -0.34416198294E+02  0.34416198294E+02  0.00000000000E+00 0. -1.
         23    2    1    2    0    0  0.80623541671E+02  0.43808029927E+02  0.57545367607E+03  0.58938368802E+03  0.88356660444E+02 0.  0.
         23    2    1    2    0    0 -0.80623541671E+02 -0.43808029927E+02  0.13277085497E+03  0.18767323960E+03  0.95780196162E+02 0.  0.
          5    1    4    4  502    0 -0.89877034270E+02 -0.25401442444E+02  0.58156481262E+02  0.11012438822E+03  0.47000000000E+01 0. -1.
         -5    1    3    3    0  503  0.89122136573E+02  0.88204985318E+01  0.44639635010E+03  0.45531565732E+03  0.47000000000E+01 0.  1.
          5    1    3    3  503    0 -0.84985949014E+01  0.34987531395E+02  0.12905732597E+03  0.13406803070E+03  0.47000000000E+01 0. -1.
         -5    1    4    4    0  502  0.92534925986E+01 -0.18406587483E+02  0.74614373704E+02  0.77548851386E+02  0.47000000000E+01 0.  1.
<mgrwt>
<rscale>  0 0.13130489E+03</rscale>
<asrwt>0</asrwt>
<pdfrwt beam="1">  1        1 0.52948003E-02 0.13263915E+03</pdfrwt>
<pdfrwt beam="2">  1       -1 0.11425241E+00 0.13263915E+03</pdfrwt>
<totfact> 0.11193977E+03</totfact>
</mgrwt>
</event>
<event>
 8    1  0.6396648E-004  0.1004798E+03  0.7546771E-02  0.1280511E+00
         -2   -1    0    0    0  501 -0.00000000000E+00  0.00000000000E+00  0.19285551096E+02  0.19285551096E+02  0.00000000000E+00 0.  1.
          2   -1    0    0  501    0  0.00000000000E+00 -0.00000000000E+00 -0.57571515960E+03  0.57571515960E+03  0.00000000000E+00 0. -1.
         23    2    1    2    0    0  0.34178461126E+02 -0.23509371819E+02 -0.37465036389E+03  0.38729929357E+03  0.88977468312E+02 0.  0.
         23    2    1    2    0    0 -0.34178461126E+02  0.23509371819E+02 -0.18177924461E+03  0.20770141712E+03  0.91516813405E+02 0.  0.
          5    1    4    4  502    0 -0.41523704116E+02  0.47736647867E+02 -0.16548570707E+03  0.17723040032E+03  0.47000000000E+01 0. -1.
         -5    1    3    3    0  503 -0.22967464036E+02 -0.30599870018E+02 -0.18800929302E+03  0.19192040202E+03  0.47000000000E+01 0.  1.
          5    1    3    3  503    0  0.57145925162E+02  0.70904981987E+01 -0.18664107087E+03  0.19537889155E+03  0.47000000000E+01 0. -1.
         -5    1    4    4    0  502  0.73452429899E+01 -0.24227276048E+02 -0.16293537533E+02  0.30471016797E+02  0.47000000000E+01 0.  1.
<mgrwt>
<rscale>  0 0.99897931E+02</rscale>
<asrwt>0</asrwt>
<pdfrwt beam="1">  1        2 0.88571546E-01 0.10047977E+03</pdfrwt>
<pdfrwt beam="2">  1       -2 0.29670084E-02 0.10047977E+03</pdfrwt>
<totfact> 0.20897763E+04</totfact>
</mgrwt>
</event>
<event>
 8    1  0.6396648E-004  0.1619389E+03  0.7546771E-02  0.1187895E+00
          1   -1    0    0  501    0  0.00000000000E+00  0.00000000000E+00  0.14952269599E+03  0.14952269599E+03  0.00000000000E+00 0. -1.
         -1   -1    0    0    0  501 -0.00000000000E+00 -0.00000000000E+00 -0.17069910789E+03  0.17069910789E+03  0.00000000000E+00 0.  1.
         23    2    1    2    0    0  0.13336254978E+03  0.23557838717E+01 -0.19662849394E+02  0.16312827731E+03  0.91831845298E+02 0.  0.
         23    2    1    2    0    0 -0.13336254978E+03 -0.23557838717E+01 -0.15135625025E+01  0.15709352657E+03  0.82975694127E+02 0.  0.
          5    1    3    3  502    0  0.29587394989E+02 -0.29280869614E+02  0.21388829305E+02  0.47035680995E+02  0.47000000000E+01 0. -1.
         -5    1    3    3    0  502  0.10377515479E+03  0.31636653486E+02 -0.41051678699E+02  0.11609259632E+03  0.47000000000E+01 0.  1.
          5    1    4    4  503    0 -0.11802924574E+03 -0.27869696754E+02 -0.18078634043E+02  0.12270513378E+03  0.47000000000E+01 0. -1.
         -5    1    4    4    0  503 -0.15333304044E+02  0.25513912882E+02  0.16565071541E+02  0.34388392789E+02  0.47000000000E+01 0.  1.
<mgrwt>
<rscale>  0 0.16071186E+03</rscale>
<asrwt>0</asrwt>
<pdfrwt beam="1">  1        1 0.23003492E-01 0.16193890E+03</pdfrwt>
<pdfrwt beam="2">  1       -1 0.26261401E-01 0.16193890E+03</pdfrwt>
<totfact> 0.26654749E+03</totfact>
</mgrwt>
</event>
<event>
 8    1  0.6396648E-004  0.1108760E+03  0.7546771E-02  0.1259042E+00
         -1   -1    0    0    0  501 -0.00000000000E+00  0.00000000000E+00  0.15680959995E+03  0.15680959995E+03  0.00000000000E+00 0.  1.
          1   -1    0    0  501    0  0.00000000000E+00 -0.00000000000E+00 -0.93599658870E+02  0.93599658870E+02  0.00000000000E+00 0. -1.
         23    2    1    2    0    0 -0.11054885175E+02  0.60743003361E+02 -0.19095393540E+02  0.11232358853E+03  0.91869644289E+02 0.  0.
         23    2    1    2    0    0  0.11054885175E+02 -0.60743003361E+02  0.82305334618E+02  0.13808567029E+03  0.92095392335E+02 0.  0.
          5    1    4    4  502    0  0.30835929175E+02 -0.70768705333E+02  0.33518013168E+02  0.84288856852E+02  0.47000000000E+01 0. -1.
         -5    1    3    3    0  503  0.21023558748E+02  0.68055143318E+02 -0.29876537531E+02  0.77383396471E+02  0.47000000000E+01 0.  1.
          5    1    3    3  503    0 -0.32078443922E+02 -0.73121399576E+01  0.10781143991E+02  0.34940192057E+02  0.47000000000E+01 0. -1.
         -5    1    4    4    0  502 -0.19781044000E+02  0.10025701972E+02  0.48787321451E+02  0.53796813438E+02  0.47000000000E+01 0.  1.
<mgrwt>
<rscale>  0 0.11082910E+03</rscale>
<asrwt>0</asrwt>
<pdfrwt beam="1">  1        1 0.14399948E-01 0.11087599E+03</pdfrwt>
<pdfrwt beam="2">  1       -1 0.24124554E-01 0.11087599E+03</pdfrwt>
<totfact> 0.54587921E+03</totfact>
</mgrwt>
</event>
<event>
 8    1  0.6396648E-004  0.1204298E+03  0.7546771E-02  0.1244457E+00
         -1   -1    0    0    0  501 -0.00000000000E+00  0.00000000000E+00  0.85198050634E+02  0.85198050634E+02  0.00000000000E+00 0.  1.
          1   -1    0    0  501    0  0.00000000000E+00 -0.00000000000E+00 -0.32783183524E+03  0.32783183524E+03  0.00000000000E+00 0. -1.
         23    2    1    2    0    0  0.62948025318E+02 -0.26303344537E+02 -0.26884610535E+03  0.29458710730E+03  0.99242206744E+02 0.  0.
         23    2    1    2    0    0 -0.62948025318E+02  0.26303344537E+02  0.26212320746E+02  0.11844277857E+03  0.93205612556E+02 0.  0.
          5    1    4    4  502    0 -0.18828774050E+02 -0.17584752000E+02  0.46034521262E+02  0.52962377052E+02  0.47000000000E+01 0. -1.
         -5    1    3    3    0  503 -0.11615210145E+02  0.23473681162E+02 -0.34051539420E+02  0.43214860302E+02  0.47000000000E+01 0.  1.
          5    1    3    3  503    0  0.74563235463E+02 -0.49777025699E+02 -0.23479456593E+03  0.25137224699E+03  0.47000000000E+01 0. -1.
         -5    1    4    4    0  502 -0.44119251267E+02  0.43888096537E+02 -0.19822200516E+02  0.65480401521E+02  0.47000000000E+01 0.  1.
<mgrwt>
<rscale>  0 0.11917948E+03</rscale>
<asrwt>0</asrwt>
<pdfrwt beam="1">  1        1 0.50435667E-01 0.12042979E+03</pdfrwt>
<pdfrwt beam="2">  1       -1 0.13107392E-01 0.12042979E+03</pdfrwt>
<totfact> 0.30078340E+03</totfact>
</mgrwt>
</event>
<event>
 8    1  0.6396648E-004  0.2713947E+03  0.7546771E-02  0.1100745E+00
          1   -1    0    0  501    0  0.00000000000E+00  0.00000000000E+00  0.49619978788E+03  0.49619978788E+03  0.00000000000E+00 0. -1.
         -1   -1    0    0    0  501 -0.00000000000E+00 -0.00000000000E+00 -0.17019197889E+03  0.17019197889E+03  0.00000000000E+00 0.  1.
         23    2    1    2    0    0  0.67836129599E+02 -0.24452767654E+03  0.40698559659E+02  0.27261968638E+03  0.90937316708E+02 0.  0.
         23    2    1    2    0    0 -0.67836129599E+02  0.24452767654E+03  0.28530924933E+03  0.39377208038E+03  0.96226599543E+02 0.  0.
          5    1    3    3  502    0  0.20407427046E+02 -0.41123759252E+02  0.43882893392E+02  0.63682218760E+02  0.47000000000E+01 0. -1.
         -5    1    4    4    0  503 -0.89142485756E+02  0.18204541016E+03  0.19093965380E+03  0.27850844784E+03  0.47000000000E+01 0.  1.
          5    1    4    4  503    0  0.21306356157E+02  0.62482266381E+02  0.94369595532E+02  0.11526363254E+03  0.47000000000E+01 0. -1.
         -5    1    3    3    0  502  0.47428702553E+02 -0.20340391729E+03 -0.31843337329E+01  0.20893746762E+03  0.47000000000E+01 0.  1.
<mgrwt>
<rscale>  0 0.27093604E+03</rscale>
<asrwt>0</asrwt>
<pdfrwt beam="1">  1        1 0.76338428E-01 0.27139470E+03</pdfrwt>
<pdfrwt beam="2">  1       -1 0.26183382E-01 0.27139470E+03</pdfrwt>
<totfact> 0.59032563E+02</totfact>
</mgrwt>
</event>
<event>
 8    1  0.6396648E-004  0.1235792E+03  0.7546771E-02  0.1240235E+00
         -2   -1    0    0    0  501 -0.00000000000E+00  0.00000000000E+00  0.59326090708E+02  0.59326090708E+02  0.00000000000E+00 0.  1.
          2   -1    0    0  501    0  0.00000000000E+00 -0.00000000000E+00 -0.24445884106E+03  0.24445884106E+03  0.00000000000E+00 0. -1.
         23    2    1    2    0    0 -0.36624369395E+02 -0.56809994321E+02 -0.82592647943E+02  0.14863838413E+03  0.10345580628E+03 0.  0.
         23    2    1    2    0    0  0.36624369395E+02  0.56809994321E+02 -0.10254010241E+03  0.15514654764E+03  0.94801153765E+02 0.  0.
          5    1    3    3  502    0 -0.79070372314E+01 -0.53724700024E+02 -0.10050146723E+03  0.11433065882E+03  0.47000000000E+01 0. -1.
         -5    1    4    4    0  503 -0.25541828010E+02  0.29194845682E+02 -0.10243749001E+02  0.40394905447E+02  0.47000000000E+01 0.  1.
          5    1    4    4  503    0  0.62166197405E+02  0.27615148639E+02 -0.92296353409E+02  0.11475164220E+03  0.47000000000E+01 0. -1.
         -5    1    3    3    0  502 -0.28717332164E+02 -0.30852942970E+01  0.17908819287E+02  0.34307725307E+02  0.47000000000E+01 0.  1.
<mgrwt>
<rscale>  0 0.12175182E+03</rscale>
<asrwt>0</asrwt>
<pdfrwt beam="1">  1        2 0.37609052E-01 0.12357922E+03</pdfrwt>
<pdfrwt beam="2">  1       -2 0.91270909E-02 0.12357922E+03</pdfrwt>
<totfact> 0.98405084E+03</totfact>
</mgrwt>
</event>
<event>
 8    1  0.6396648E-004  0.9514315E+02  0.7546771E-02  0.1290877E+00
         -1   -1    0    0    0  501 -0.00000000000E+00  0.00000000000E+00  0.86669543365E+02  0.86669543365E+02  0.00000000000E+00 0.  1.
          1   -1    0    0  501    0  0.00000000000E+00 -0.00000000000E+00 -0.11624046786E+03  0.11624046786E+03  0.00000000000E+00 0. -1.
         23    2    1    2    0    0  0.13151994771E+02 -0.27275407932E+02 -0.47163595261E+02  0.10615402685E+03  0.90151815586E+02 0.  0.
         23    2    1    2    0    0 -0.13151994771E+02  0.27275407932E+02  0.17592670766E+02  0.96755984378E+02  0.90195873542E+02 0.  0.
          5    1    3    3  502    0 -0.31634339059E+02  0.12908351186E+02 -0.20950446671E+02  0.40353043922E+02  0.47000000000E+01 0. -1.
         -5    1    3    3    0  502  0.44786333831E+02 -0.40183759118E+02 -0.26213148590E+02  0.65800982924E+02  0.47000000000E+01 0.  1.
          5    1    4    4  503    0 -0.19668028909E+02  0.57718122389E+02  0.99971733093E+00  0.61166187130E+02  0.47000000000E+01 0. -1.
         -5    1    4    4    0  503  0.65160341381E+01 -0.30442714458E+02  0.16592953436E+02  0.35589797248E+02  0.47000000000E+01 0.  1.
<mgrwt>
<rscale>  0 0.95132704E+02</rscale>
<asrwt>0</asrwt>
<pdfrwt beam="1">  1        1 0.17883149E-01 0.95143147E+02</pdfrwt>
<pdfrwt beam="2">  1       -1 0.13333776E-01 0.95143147E+02</pdfrwt>
<totfact> 0.10427685E+04</totfact>
</mgrwt>
</event>
<event>
 7    1  0.6396648E-004  0.1031915E+03  0.7546771E-02  0.1300672E+00
          2   -1    0    0  501    0  0.00000000000E+00  0.00000000000E+00  0.12904982780E+04  0.12904982780E+04  0.00000000000E+00 0. -1.
         -2   -1    0    0    0  501 -0.00000000000E+00 -0.00000000000E+00 -0.54018661532E+01  0.54018661532E+01  0.00000000000E+00 0.  1.
         23    2    1    2    0    0  0.34875597446E+02  0.27827320513E+02  0.88684357682E+03  0.89282697965E+03  0.93047400785E+02 0.  0.
          5    1    3    3  502    0  0.39206071378E+02 -0.26439865945E+02  0.35042158715E+03  0.35362912958E+03  0.47000000000E+01 0. -1.
         -5    1    1    2    0  503 -0.89545403111E+01 -0.31259141726E+02  0.27715634537E+03  0.27909684254E+03  0.47000000000E+01 0. -1.
          5    1    1    2  503    0 -0.25921057135E+02  0.34318212131E+01  0.12109648963E+03  0.12397632193E+03  0.47000000000E+01 0. -1.
         -5    1    3    3    0  502 -0.43304739315E+01  0.54267186458E+02  0.53642198967E+03  0.53919785008E+03  0.47000000000E+01 0.  1.
<mgrwt>
<rscale>  0 0.90906239E+02</rscale>
<asrwt>0</asrwt>
<pdfrwt beam="1">  1        2 0.19853795E+00 0.10319150E+03</pdfrwt>
<pdfrwt beam="2">  1       -2 0.83105736E-03 0.10319150E+03</pdfrwt>
<totfact> 0.45759106E+04</totfact>
</mgrwt>
</event>
<event>
 8    1  0.6396648E-004  0.9427443E+02  0.7546771E-02  0.1293039E+00
         -1   -1    0    0    0  501 -0.00000000000E+00  0.00000000000E+00  0.11973218388E+03  0.11973218388E+03  0.00000000000E+00 0.  1.
          1   -1    0    0  501    0  0.00000000000E+00 -0.00000000000E+00 -0.13936269699E+03  0.13936269699E+03  0.00000000000E+00 0. -1.
         23    2    1    2    0    0 -0.12985838630E+01  0.20620888880E+02  0.78965856493E+02  0.12268039565E+03  0.91585837365E+02 0.  0.
         23    2    1    2    0    0  0.12985838630E+01 -0.20620888880E+02 -0.98596369605E+02  0.13641448522E+03  0.91982391258E+02 0.  0.
          5    1    4    4  502    0 -0.23341161567E+02  0.16011492424E+02 -0.85409155364E+02  0.90099897519E+02  0.47000000000E+01 0. -1.
         -5    1    4    4    0  502  0.24639745430E+02 -0.36632381304E+02 -0.13187214241E+02  0.46314587705E+02  0.47000000000E+01 0.  1.
          5    1    3    3  503    0  0.43037756161E+02 -0.78198045169E+00  0.27453737120E+02  0.51270436224E+02  0.47000000000E+01 0. -1.
         -5    1    3    3    0  503 -0.44336340024E+02  0.21402869332E+02  0.51512119373E+02  0.71409959422E+02  0.47000000000E+01 0.  1.
<mgrwt>
<rscale>  0 0.94177560E+02</rscale>
<asrwt>0</asrwt>
<pdfrwt beam="1">  1        1 0.21440415E-01 0.94274427E+02</pdfrwt>
<pdfrwt beam="2">  1       -1 0.18420336E-01 0.94274427E+02</pdfrwt>
<totfact> 0.50126563E+03</totfact>
</mgrwt>
</event>
<event>
 8    1  0.6396648E-004  0.1713235E+03  0.7546771E-02  0.1176752E+00
          1   -1    0    0  501    0  0.00000000000E+00  0.00000000000E+00  0.15381782412E+03  0.15381782412E+03  0.00000000000E+00 0. -1.
         -1   -1    0    0    0  501 -0.00000000000E+00 -0.00000000000E+00 -0.22513987642E+03  0.22513987642E+03  0.00000000000E+00 0.  1.
         23    2    1    2    0    0 -0.42519588969E+02  0.14071368105E+03  0.39493267252E+02  0.17581659964E+03  0.87997176482E+02 0.  0.
         23    2    1    2    0    0  0.42519588969E+02 -0.14071368105E+03 -0.11081531954E+03  0.20314110090E+03  0.85895380257E+02 0.  0.
          5    1    4    4  502    0  0.14021411143E+02 -0.13653524652E+03 -0.10617516637E+03  0.17359069522E+03  0.47000000000E+01 0. -1.
         -5    1    3    3    0  503 -0.62189247327E+02  0.12530185367E+03  0.15436961294E+02  0.14081351778E+03  0.47000000000E+01 0.  1.
          5    1    3    3  503    0  0.19669658357E+02  0.15411827384E+02  0.24056305958E+02  0.35003081858E+02  0.47000000000E+01 0. -1.
         -5    1    4    4    0  502  0.28498177826E+02 -0.41784345299E+01 -0.46401531717E+01  0.29550405682E+02  0.47000000000E+01 0.  1.
<mgrwt>
<rscale>  0 0.17105542E+03</rscale>
<asrwt>0</asrwt>
<pdfrwt beam="1">  1        1 0.23664281E-01 0.17132355E+03</pdfrwt>
<pdfrwt beam="2">  1       -1 0.34636904E-01 0.17132355E+03</pdfrwt>
<totfact> 0.16137735E+03</totfact>
</mgrwt>
</event>
<event>
 8    1  0.6396648E-004  0.1256142E+03  0.7546771E-02  0.1235835E+00
          1   -1    0    0  501    0  0.00000000000E+00  0.00000000000E+00  0.39464080061E+03  0.39464080061E+03  0.00000000000E+00 0. -1.
         -1   -1    0    0    0  501 -0.00000000000E+00 -0.00000000000E+00 -0.38959743985E+02  0.38959743985E+02  0.00000000000E+00 0.  1.
         23    2    1    2    0    0  0.22823997891E+02 -0.74827769630E+02  0.20151112369E+03  0.23745664241E+03  0.98279163947E+02 0.  0.
         23    2    1    2    0    0 -0.22823997891E+02  0.74827769630E+02  0.15416993293E+03  0.19614390218E+03  0.92649512441E+02 0.  0.
          5    1    4    4  502    0 -0.22925293663E+02  0.26605317896E+02  0.94990589468E+00  0.35445794548E+02  0.47000000000E+01 0.  1.
         -5    1    3    3    0  503  0.52889852507E+02 -0.75854884939E+02  0.12880270568E+03  0.15863015810E+03  0.47000000000E+01 0.  1.
          5    1    3    3  503    0 -0.30065854616E+02  0.10271153084E+01  0.72708418008E+02  0.78826484312E+02  0.47000000000E+01 0. -1.
         -5    1    4    4    0  502  0.10129577166E+00  0.48222451734E+02  0.15322002704E+03  0.16069810764E+03  0.47000000000E+01 0. -1.
<mgrwt>
<rscale>  0 0.12451128E+03</rscale>
<asrwt>0</asrwt>
<pdfrwt beam="1">  1        1 0.60713967E-01 0.12561419E+03</pdfrwt>
<pdfrwt beam="2">  1       -1 0.59938070E-02 0.12561419E+03</pdfrwt>
<totfact> 0.78233028E+03</totfact>
</mgrwt>
</event>
<event>
 8    1  0.6396648E-004  0.2288556E+03  0.7546771E-02  0.1127555E+00
          3   -1    0    0  501    0  0.00000000000E+00  0.00000000000E+00  0.45728058595E+03  0.45728058595E+03  0.00000000000E+00 0. -1.
         -3   -1    0    0    0  501 -0.00000000000E+00 -0.00000000000E+00 -0.11548005847E+03  0.11548005847E+03  0.00000000000E+00 0.  1.
         23    2    1    2    0    0 -0.17921122662E+03 -0.10962959098E+03  0.20088434821E+03  0.30451504580E+03  0.90772136679E+02 0.  0.
         23    2    1    2    0    0  0.17921122662E+03  0.10962959098E+03  0.14091617927E+03  0.26824559862E+03  0.89235758711E+02 0.  0.
          5    1    3    3  502    0 -0.16998780001E+03 -0.63658724851E+02  0.16396367783E+03  0.24465171785E+03  0.47000000000E+01 0. -1.
         -5    1    4    4    0  503  0.72313786367E+02  0.67743014969E+02  0.19539820379E+02  0.10110536265E+03  0.47000000000E+01 0.  1.
          5    1    4    4  503    0  0.10689744025E+03  0.41886576014E+02  0.12137635889E+03  0.16714023597E+03  0.47000000000E+01 0. -1.
         -5    1    3    3    0  502 -0.92234266093E+01 -0.45970866132E+02  0.36920670385E+02  0.59863327948E+02  0.47000000000E+01 0.  1.
<mgrwt>
<rscale>  0 0.22870421E+03</rscale>
<asrwt>0</asrwt>
<pdfrwt beam="1">  1        3 0.70350858E-01 0.22885561E+03</pdfrwt>
<pdfrwt beam="2">  1       -3 0.17766163E-01 0.22885561E+03</pdfrwt>
<totfact> 0.13477905E+02</totfact>
</mgrwt>
</event>
<event>
 8    1  0.6396648E-004  0.9711822E+02  0.7546771E-02  0.1286610E+00
          1   -1    0    0  501    0  0.00000000000E+00  0.00000000000E+00  0.95340677732E+02  0.95340677732E+02  0.00000000000E+00 0. -1.
         -1   -1    0    0    0  501 -0.00000000000E+00 -0.00000000000E+00 -0.12783487014E+03  0.12783487014E+03  0.00000000000E+00 0.  1.
         23    2    1    2    0    0  0.12590260279E+02 -0.25243275948E+02  0.37060830096E+02  0.10371907486E+03  0.92673640956E+02 0.  0.
         23    2    1    2    0    0 -0.12590260279E+02  0.25243275948E+02 -0.69555022506E+02  0.11945647301E+03  0.92931211949E+02 0.  0.
          5    1    3    3  502    0 -0.21408209797E+02 -0.36729564647E+02 -0.10413929150E+02  0.44021725162E+02  0.47000000000E+01 0. -1.
         -5    1    4    4    0  503  0.36654798881E+02  0.28838246043E+02 -0.40670025845E+02  0.62059324183E+02  0.47000000000E+01 0.  1.
          5    1    4    4  503    0 -0.49245059160E+02 -0.35949700944E+01 -0.28884996662E+02  0.57397148830E+02  0.47000000000E+01 0. -1.
         -5    1    3    3    0  502  0.33998470076E+02  0.11486288699E+02  0.47474759246E+02  0.59697349699E+02  0.47000000000E+01 0.  1.
<mgrwt>
<rscale>  0 0.97056547E+02</rscale>
<asrwt>0</asrwt>
<pdfrwt beam="1">  1        1 0.14667797E-01 0.97118216E+02</pdfrwt>
<pdfrwt beam="2">  1       -1 0.19666903E-01 0.97118216E+02</pdfrwt>
<totfact> 0.73275145E+03</totfact>
</mgrwt>
</event>
<event>
 8    1  0.6396648E-004  0.9209347E+02  0.7546771E-02  0.1297971E+00
          1   -1    0    0  501    0  0.00000000000E+00  0.00000000000E+00  0.71003447710E+02  0.71003447710E+02  0.00000000000E+00 0. -1.
         -1   -1    0    0    0  501 -0.00000000000E+00 -0.00000000000E+00 -0.11988279917E+03  0.11988279917E+03  0.00000000000E+00 0.  1.
         23    2    1    2    0    0  0.31424409944E+01  0.28746264038E+01 -0.17230331231E+02  0.93506228537E+02  0.91806274559E+02 0.  0.
         23    2    1    2    0    0 -0.31424409944E+01 -0.28746264038E+01 -0.31649020232E+02  0.97380018345E+02  0.91994940507E+02 0.  0.
          5    1    4    4  502    0  0.33965090260E+02  0.38888322394E+01  0.14639031866E+02  0.37485218774E+02  0.47000000000E+01 0. -1.
         -5    1    4    4    0  502 -0.37107531255E+02 -0.67634586431E+01 -0.46288052098E+02  0.59894799571E+02  0.47000000000E+01 0.  1.
          5    1    3    3  503    0 -0.33606904369E+02 -0.26499776036E+02 -0.16819236016E+02  0.46223790967E+02  0.47000000000E+01 0. -1.
         -5    1    3    3    0  503  0.36749345363E+02  0.29374402439E+02 -0.41109521473E+00  0.47282437570E+02  0.47000000000E+01 0.  1.
<mgrwt>
<rscale>  0 0.92046319E+02</rscale>
<asrwt>0</asrwt>
<pdfrwt beam="1">  1        1 0.10923607E-01 0.92093471E+02</pdfrwt>
<pdfrwt beam="2">  1       -1 0.18443508E-01 0.92093471E+02</pdfrwt>
<totfact> 0.11819950E+04</totfact>
</mgrwt>
</event>
<event>
 8    1  0.6396648E-004  0.1080258E+03  0.7546771E-02  0.1266286E+00
         -1   -1    0    0    0  501 -0.00000000000E+00  0.00000000000E+00  0.13272330572E+03  0.13272330572E+03  0.00000000000E+00 0.  1.
          1   -1    0    0  501    0  0.00000000000E+00 -0.00000000000E+00 -0.84904536343E+02  0.84904536343E+02  0.00000000000E+00 0. -1.
         23    2    1    2    0    0  0.20329275086E+01 -0.48397164477E+02  0.17546281605E+02  0.10944151375E+03  0.96556484040E+02 0.  0.
         23    2    1    2    0    0 -0.20329275086E+01  0.48397164477E+02  0.30272487771E+02  0.10818632831E+03  0.91877308373E+02 0.  0.
          5    1    3    3  502    0  0.28084257639E+02 -0.71782297719E+01  0.44661217946E+02  0.53450602412E+02  0.47000000000E+01 0. -1.
         -5    1    3    3    0  502 -0.26051330131E+02 -0.41218934705E+02 -0.27114936340E+02  0.55990911339E+02  0.47000000000E+01 0.  1.
          5    1    4    4  503    0 -0.10655294607E+01  0.75749669939E+02  0.19227712387E+02  0.78300336989E+02  0.47000000000E+01 0. -1.
         -5    1    4    4    0  503 -0.96739804796E+00 -0.27352505462E+02  0.11044775384E+02  0.29885991322E+02  0.47000000000E+01 0.  1.
<mgrwt>
<rscale>  0 0.10697013E+03</rscale>
<asrwt>0</asrwt>
<pdfrwt beam="1">  1        1 0.13062236E-01 0.10802580E+03</pdfrwt>
<pdfrwt beam="2">  1       -1 0.20418970E-01 0.10802580E+03</pdfrwt>
<totfact> 0.80871643E+03</totfact>
</mgrwt>
</event>
<event>
 8    1  0.6396648E-004  0.1116745E+03  0.7546771E-02  0.1261482E+00
          2   -1    0    0  501    0  0.00000000000E+00  0.00000000000E+00  0.25302839084E+03  0.25302839084E+03  0.00000000000E+00 0. -1.
         -2   -1    0    0    0  501 -0.00000000000E+00 -0.00000000000E+00 -0.55798763342E+02  0.55798763342E+02  0.00000000000E+00 0.  1.
         23    2    1    2    0    0  0.10915501077E+02  0.64389849900E+02  0.35941977630E+02  0.11731592060E+03  0.90586966705E+02 0.  0.
         23    2    1    2    0    0 -0.10915501077E+02 -0.64389849900E+02  0.16128764987E+03  0.19151123358E+03  0.79985283978E+02 0.  0.
          5    1    3    3  502    0 -0.17871171701E+02 -0.10505306708E+02  0.29939205055E+02  0.36717655785E+02  0.47000000000E+01 0. -1.
         -5    1    3    3    0  502  0.28786672778E+02  0.74895156607E+02  0.60027725742E+01  0.80598264817E+02  0.47000000000E+01 0.  1.
          5    1    4    4  503    0 -0.32186912197E+02 -0.69443768441E+02  0.14436139667E+03  0.16346478869E+03  0.47000000000E+01 0. -1.
         -5    1    4    4    0  503  0.21271411120E+02  0.50539185408E+01  0.16926253193E+02  0.28046444887E+02  0.47000000000E+01 0.  1.
<mgrwt>
<rscale>  0 0.10950898E+03</rscale>
<asrwt>0</asrwt>
<pdfrwt beam="1">  1        2 0.38927444E-01 0.11167452E+03</pdfrwt>
<pdfrwt beam="2">  1       -2 0.85844253E-02 0.11167452E+03</pdfrwt>
<totfact> 0.10349061E+04</totfact>
</mgrwt>
</event>
<event>
 8    1  0.6396648E-004  0.1108947E+03  0.7546771E-02  0.1261134E+00
         -1   -1    0    0    0  501 -0.00000000000E+00  0.00000000000E+00  0.65805620387E+02  0.65805620387E+02  0.00000000000E+00 0.  1.
          1   -1    0    0  501    0  0.00000000000E+00 -0.00000000000E+00 -0.18095508023E+03  0.18095508023E+03  0.00000000000E+00 0. -1.
         23    2    1    2    0    0 -0.34601882425E+02 -0.50875010287E+02 -0.46035871846E+02  0.12007058362E+03  0.92260970155E+02 0.  0.
         23    2    1    2    0    0  0.34601882425E+02  0.50875010287E+02 -0.69113587996E+02  0.12669011700E+03  0.86534043941E+02 0.  0.
          5    1    4    4  502    0 -0.14734614824E+02  0.54327152758E+02 -0.35821746566E+02  0.66886739552E+02  0.47000000000E+01 0. -1.
         -5    1    3    3    0  503 -0.65664824341E+01 -0.68827212113E+02 -0.87248007851E+01  0.69846374047E+02  0.47000000000E+01 0.  1.
          5    1    3    3  503    0 -0.28035399991E+02  0.17952201825E+02 -0.37311071061E+02  0.50224209568E+02  0.47000000000E+01 0. -1.
         -5    1    4    4    0  502  0.49336497249E+02 -0.34521424706E+01 -0.33291841429E+02  0.59803377448E+02  0.47000000000E+01 0.  1.
<mgrwt>
<rscale>  0 0.10969618E+03</rscale>
<asrwt>0</asrwt>
<pdfrwt beam="1">  1        1 0.27839243E-01 0.11089474E+03</pdfrwt>
<pdfrwt beam="2">  1       -1 0.10123942E-01 0.11089474E+03</pdfrwt>
<totfact> 0.92490511E+03</totfact>
</mgrwt>
</event>
<event>
 8    1  0.6396648E-004  0.1573042E+03  0.7546771E-02  0.1192046E+00
          1   -1    0    0  501    0  0.00000000000E+00  0.00000000000E+00  0.12556555220E+03  0.12556555220E+03  0.00000000000E+00 0. -1.
         -1   -1    0    0    0  501 -0.00000000000E+00 -0.00000000000E+00 -0.10779872588E+04  0.10779872588E+04  0.00000000000E+00 0.  1.
         23    2    1    2    0    0 -0.11789701981E+03 -0.51482057639E+02  0.67889730048E+02  0.17132897388E+03  0.90523435110E+02 0.  0.
         23    2    1    2    0    0  0.11789701981E+03  0.51482057639E+02 -0.10203114366E+04  0.10322238371E+04  0.88884827813E+02 0.  0.
          5    1    3    3  502    0 -0.96668500890E+02 -0.59598314466E+01  0.14793296641E+02  0.98087972151E+02  0.47000000000E+01 0. -1.
         -5    1    3    3    0  502 -0.21228518923E+02 -0.45522226193E+02  0.53096433407E+02  0.73241001725E+02  0.47000000000E+01 0.  1.
          5    1    4    4  503    0  0.69049880440E+02  0.72623061199E+02 -0.75022368922E+03  0.75690136007E+03  0.47000000000E+01 0. -1.
         -5    1    4    4    0  503  0.48847139373E+02 -0.21141003560E+02 -0.27008774739E+03  0.27532247701E+03  0.47000000000E+01 0.  1.
<mgrwt>
<rscale>  0 0.15706934E+03</rscale>
<asrwt>0</asrwt>
<pdfrwt beam="1">  1        1 0.19317777E-01 0.15730417E+03</pdfrwt>
<pdfrwt beam="2">  1       -1 0.16584420E+00 0.15730417E+03</pdfrwt>
<totfact> 0.79249050E+01</totfact>
</mgrwt>
</event>
<event>
 8    1  0.6396648E-004  0.2176072E+03  0.7546771E-02  0.1135868E+00
          1   -1    0    0  501    0  0.00000000000E+00  0.00000000000E+00  0.75379241233E+02  0.75379241233E+02  0.00000000000E+00 0. -1.
         -1   -1    0    0    0  501 -0.00000000000E+00 -0.00000000000E+00 -0.68571399972E+03  0.68571399972E+03  0.00000000000E+00 0.  1.
         23    2    1    2    0    0  0.18850323747E+03 -0.56079994025E+02 -0.19288228516E+03  0.29078595846E+03  0.93136788852E+02 0.  0.
         23    2    1    2    0    0 -0.18850323747E+03  0.56079994025E+02 -0.41745247333E+03  0.47030728250E+03  0.90796124463E+02 0.  0.
          5    1    4    4  502    0 -0.14980456249E+03  0.41496077166E+02 -0.22570952253E+03  0.27409890536E+03  0.47000000000E+01 0. -1.
         -5    1    3    3    0  503  0.17364871647E+03 -0.78216001515E+02 -0.16730511196E+03  0.25354429616E+03  0.47000000000E+01 0.  1.
          5    1    3    3  503    0  0.14854521001E+02  0.22136007490E+02 -0.25577173201E+02  0.37241662298E+02  0.47000000000E+01 0. -1.
         -5    1    4    4    0  502 -0.38698674985E+02  0.14583916859E+02 -0.19174295080E+03  0.19620837714E+03  0.47000000000E+01 0.  1.
<mgrwt>
<rscale>  0 0.21735891E+03</rscale>
<asrwt>0</asrwt>
<pdfrwt beam="1">  1        1 0.11596807E-01 0.21760721E+03</pdfrwt>
<pdfrwt beam="2">  1       -1 0.10549446E+00 0.21760721E+03</pdfrwt>
<totfact> 0.46981765E+02</totfact>
</mgrwt>
</event>
<event>
 8    1  0.6396648E-004  0.1296095E+03  0.7546771E-02  0.1228466E+00
         -2   -1    0    0    0  501 -0.00000000000E+00  0.00000000000E+00  0.80387119665E+02  0.80387119665E+02  0.00000000000E+00 0.  1.
          2   -1    0    0  501    0  0.00000000000E+00 -0.00000000000E+00 -0.41985859511E+03  0.41985859511E+03  0.00000000000E+00 0. -1.
         23    2    1    2    0    0  0.90311372191E+02 -0.37865658487E+00  0.86764097376E+01  0.12875471035E+03  0.91357583289E+02 0.  0.
         23    2    1    2    0    0 -0.90311372191E+02  0.37865658487E+00 -0.34814788519E+03  0.37149100443E+03  0.92964127926E+02 0.  0.
          5    1    4    4  502    0 -0.10076246065E+03 -0.19770346519E+02 -0.31248257912E+03  0.32895500047E+03  0.47000000000E+01 0. -1.
         -5    1    4    4    0  502  0.10451088457E+02  0.20149003104E+02 -0.35665306064E+02  0.42536003957E+02  0.47000000000E+01 0.  1.
          5    1    3    3  503    0  0.15307380337E+02  0.40029498095E+02  0.40567084474E+01  0.43303850798E+02  0.47000000000E+01 0. -1.
         -5    1    3    3    0  503  0.75003991854E+02 -0.40408154680E+02  0.46197012902E+01  0.85450859555E+02  0.47000000000E+01 0.  1.
<mgrwt>
<rscale>  0 0.12932166E+03</rscale>
<asrwt>0</asrwt>
<pdfrwt beam="1">  1        2 0.64593630E-01 0.12960948E+03</pdfrwt>
<pdfrwt beam="2">  1       -2 0.12367249E-01 0.12960948E+03</pdfrwt>
<totfact> 0.34447412E+03</totfact>
</mgrwt>
</event>
<event>
 8    1  0.6396648E-004  0.9226391E+02  0.7546771E-02  0.1298093E+00
          2   -1    0    0  501    0  0.00000000000E+00  0.00000000000E+00  0.29002331393E+03  0.29002331393E+03  0.00000000000E+00 0. -1.
         -2   -1    0    0    0  501 -0.00000000000E+00 -0.00000000000E+00 -0.29011135312E+02  0.29011135312E+02  0.00000000000E+00 0.  1.
         23    2    1    2    0    0  0.25778294342E+01 -0.72446454180E+01  0.13072508940E+03  0.16000524398E+03  0.91942911691E+02 0.  0.
         23    2    1    2    0    0 -0.25778294342E+01  0.72446454180E+01  0.13028708922E+03  0.15902920526E+03  0.90864913019E+02 0.  0.
          5    1    4    4  502    0  0.42145729227E+02  0.16014545447E+02  0.67226052621E+02  0.81081195779E+02  0.47000000000E+01 0. -1.
         -5    1    4    4    0  502 -0.44723558661E+02 -0.87699000293E+01  0.63061036596E+02  0.77948009483E+02  0.47000000000E+01 0.  1.
          5    1    3    3  503    0 -0.39020162074E+01  0.41233009549E+02  0.46100816498E+02  0.62151122988E+02  0.47000000000E+01 0. -1.
         -5    1    3    3    0  503  0.64798456416E+01 -0.48477654967E+02  0.84624272902E+02  0.97854120990E+02  0.47000000000E+01 0.  1.
<mgrwt>
<rscale>  0 0.91994179E+02</rscale>
<asrwt>0</asrwt>
<pdfrwt beam="1">  1        2 0.44618969E-01 0.92263910E+02</pdfrwt>
<pdfrwt beam="2">  1       -2 0.44632518E-02 0.92263910E+02</pdfrwt>
<totfact> 0.23620022E+04</totfact>
</mgrwt>
</event>
<event>
 8    1  0.6396648E-004  0.9572364E+02  0.7546771E-02  0.1289666E+00
         -1   -1    0    0    0  501 -0.00000000000E+00  0.00000000000E+00  0.62030242944E+03  0.62030242944E+03  0.00000000000E+00 0.  1.
          1   -1    0    0  501    0  0.00000000000E+00 -0.00000000000E+00 -0.15765620689E+02  0.15765620689E+02  0.00000000000E+00 0. -1.
         23    2    1    2    0    0 -0.21404813903E+02  0.19127890599E+01  0.38364571867E+03  0.39540745118E+03  0.93280170323E+02 0.  0.
         23    2    1    2    0    0  0.21404813903E+02 -0.19127890599E+01  0.22089109008E+03  0.24066059895E+03  0.93074300364E+02 0.  0.
          5    1    3    3  502    0  0.34206788265E+01  0.44038624120E+02  0.14070516610E+03  0.14755044976E+03  0.47000000000E+01 0. -1.
         -5    1    4    4    0  503 -0.24987003294E+02  0.18928272243E+01  0.16851265647E+03  0.17043045068E+03  0.47000000000E+01 0.  1.
          5    1    4    4  503    0  0.46391817197E+02 -0.38056162842E+01  0.52378433614E+02  0.70230148270E+02  0.47000000000E+01 0. -1.
         -5    1    3    3    0  502 -0.24825492730E+02 -0.42125835060E+02  0.24294055258E+03  0.24785700143E+03  0.47000000000E+01 0.  1.
<mgrwt>
<rscale>  0 0.95673448E+02</rscale>
<asrwt>0</asrwt>
<pdfrwt beam="1">  1        1 0.24254806E-02 0.95723639E+02</pdfrwt>
<pdfrwt beam="2">  1       -1 0.95431124E-01 0.95723639E+02</pdfrwt>
<totfact> 0.47834869E+03</totfact>
</mgrwt>
</event>
<event>
 8    1  0.6396648E-004  0.9396673E+02  0.7546771E-02  0.1303333E+00
         -1   -1    0    0    0  501 -0.00000000000E+00  0.00000000000E+00  0.14015509779E+03  0.14015509779E+03  0.00000000000E+00 0.  1.
          1   -1    0    0  501    0  0.00000000000E+00 -0.00000000000E+00 -0.59877324314E+02  0.59877324314E+02  0.00000000000E+00 0. -1.
         23    2    1    2    0    0  0.20358048890E+02 -0.14466907006E+02  0.70739900083E+02  0.10558287489E+03  0.74295817193E+02 0.  0.
         23    2    1    2    0    0 -0.20358048890E+02  0.14466907006E+02  0.95378733965E+01  0.94449547222E+02  0.90586999005E+02 0.  0.
          5    1    3    3  502    0  0.41391349291E+02 -0.29965581007E+02  0.40715363161E+02  0.65505806143E+02  0.47000000000E+01 0. -1.
         -5    1    4    4    0  503  0.35713232513E+02  0.49784939400E+01  0.86596151255E+01  0.37380466993E+02  0.47000000000E+01 0.  1.
          5    1    4    4  503    0 -0.56071281403E+02  0.94884130664E+01  0.87825827104E+00  0.57069080230E+02  0.47000000000E+01 0. -1.
         -5    1    3    3    0  502 -0.21033300401E+02  0.15498674000E+02  0.30024536922E+02  0.40077068742E+02  0.47000000000E+01 0.  1.
<mgrwt>
<rscale>  0 0.89801488E+02</rscale>
<asrwt>0</asrwt>
<pdfrwt beam="1">  1        1 0.92118961E-02 0.93966728E+02</pdfrwt>
<pdfrwt beam="2">  1       -1 0.21562323E-01 0.93966728E+02</pdfrwt>
<totfact> 0.11551392E+04</totfact>
</mgrwt>
</event>
<event>
 8    1  0.6396648E-004  0.9493263E+02  0.7546771E-02  0.1293302E+00
          1   -1    0    0  501    0  0.00000000000E+00  0.00000000000E+00  0.36137288990E+03  0.36137288990E+03  0.00000000000E+00 0. -1.
         -1   -1    0    0    0  501 -0.00000000000E+00 -0.00000000000E+00 -0.41645408967E+02  0.41645408967E+02  0.00000000000E+00 0.  1.
         23    2    1    2    0    0  0.33676264019E+00 -0.22255162432E+02  0.28915169398E+03  0.30328323681E+03  0.88750289771E+02 0.  0.
         23    2    1    2    0    0 -0.33676264019E+00  0.22255162432E+02  0.30575786946E+02  0.99735062052E+02  0.92286500590E+02 0.  0.
          5    1    4    4  502    0 -0.20951856512E+02  0.23598136523E+02  0.57328733635E+02  0.65608886889E+02  0.47000000000E+01 0. -1.
         -5    1    3    3    0  503 -0.50469768922E+01 -0.56081070053E+02  0.16493550913E+03  0.17434554932E+03  0.47000000000E+01 0.  1.
          5    1    3    3  503    0  0.53837395324E+01  0.33825907621E+02  0.12421618485E+03  0.12893768749E+03  0.47000000000E+01 0. -1.
         -5    1    4    4    0  502  0.20615093872E+02 -0.13429740914E+01 -0.26752946688E+02  0.34126175163E+02  0.47000000000E+01 0.  1.
<mgrwt>
<rscale>  0 0.94062260E+02</rscale>
<asrwt>0</asrwt>
<pdfrwt beam="1">  1        1 0.55595827E-01 0.94932628E+02</pdfrwt>
<pdfrwt beam="2">  1       -1 0.64069862E-02 0.94932628E+02</pdfrwt>
<totfact> 0.77489061E+03</totfact>
</mgrwt>
</event>
<event>
 7    1  0.6396648E-004  0.1555205E+03  0.7546771E-02  0.1215165E+00
          2   -1    0    0  501    0  0.00000000000E+00  0.00000000000E+00  0.10304834002E+03  0.10304834002E+03  0.00000000000E+00 0. -1.
         -2   -1    0    0    0  501 -0.00000000000E+00 -0.00000000000E+00 -0.15786729085E+03  0.15786729085E+03  0.00000000000E+00 0.  1.
         23    2    1    2    0    0  0.43679254271E+02  0.34595305724E+01 -0.82666859170E+01  0.98577250595E+02  0.87916384329E+02 0.  0.
          5    1    1    2  502    0 -0.28120285270E+02  0.56915484456E+02  0.24033467555E+02  0.68042783432E+02  0.47000000000E+01 0. -1.
         -5    1    3    3    0  503 -0.10211301697E+02  0.24004889959E+02 -0.26920328286E+02  0.37779617512E+02  0.47000000000E+01 0.  1.
          5    1    3    3  503    0  0.53890555968E+02 -0.20545359387E+02  0.18653642369E+02  0.60797633083E+02  0.47000000000E+01 0. -1.
         -5    1    1    2    0  502 -0.15558969001E+02 -0.60375015028E+02 -0.70585732462E+02  0.94295596839E+02  0.47000000000E+01 0.  1.
<mgrwt>
<rscale>  0 0.13864425E+03</rscale>
<asrwt>0</asrwt>
<pdfrwt beam="1">  1        2 0.15853591E-01 0.15552053E+03</pdfrwt>
<pdfrwt beam="2">  1       -2 0.24287276E-01 0.15552053E+03</pdfrwt>
<totfact> 0.52441772E+03</totfact>
</mgrwt>
</event>
<event>
 8    1  0.6396648E-004  0.9140490E+02  0.7546771E-02  0.1299846E+00
         -1   -1    0    0    0  501 -0.00000000000E+00  0.00000000000E+00  0.56854506755E+02  0.56854506755E+02  0.00000000000E+00 0.  1.
          1   -1    0    0  501    0  0.00000000000E+00 -0.00000000000E+00 -0.16409474964E+03  0.16409474964E+03  0.00000000000E+00 0. -1.
         23    2    1    2    0    0  0.13880687209E+01 -0.71922983943E+01 -0.90169189561E+02  0.12796390065E+03  0.90502050986E+02 0.  0.
         23    2    1    2    0    0 -0.13880687209E+01  0.71922983943E+01 -0.17071053325E+02  0.92985355744E+02  0.91110919380E+02 0.  0.
          5    1    4    4  502    0 -0.10722008836E+02 -0.37929071732E+02  0.77405986971E+01  0.40442339499E+02  0.47000000000E+01 0. -1.
         -5    1    3    3    0  503 -0.19003758573E+01  0.40941664888E+02 -0.51300221582E+02  0.65830343206E+02  0.47000000000E+01 0.  1.
          5    1    3    3  503    0  0.32884445783E+01 -0.48133963282E+02 -0.38868967978E+02  0.62133557445E+02  0.47000000000E+01 0. -1.
         -5    1    4    4    0  502  0.93339401151E+01  0.45121370126E+02 -0.24811652022E+02  0.52543016246E+02  0.47000000000E+01 0.  1.
<mgrwt>
<rscale>  0 0.91252795E+02</rscale>
<asrwt>0</asrwt>
<pdfrwt beam="1">  1        1 0.25245346E-01 0.91404899E+02</pdfrwt>
<pdfrwt beam="2">  1       -1 0.87468472E-02 0.91404899E+02</pdfrwt>
<totfact> 0.12794659E+04</totfact>
</mgrwt>
</event>
<event>
 8    1  0.6396648E-004  0.1284394E+03  0.7546771E-02  0.1232124E+00
         -1   -1    0    0    0  501 -0.00000000000E+00  0.00000000000E+00  0.42289034112E+03  0.42289034112E+03  0.00000000000E+00 0.  1.
          1   -1    0    0  501    0  0.00000000000E+00 -0.00000000000E+00 -0.37798785158E+02  0.37798785158E+02  0.00000000000E+00 0. -1.
         23    2    1    2    0    0  0.79346595981E+02  0.19782415057E+02  0.22613438964E+03  0.26006429940E+03  0.99042674668E+02 0.  0.
         23    2    1    2    0    0 -0.79346595981E+02 -0.19782415057E+02  0.15895716632E+03  0.20062482688E+03  0.91080811346E+02 0.  0.
          5    1    4    4  502    0 -0.44629026927E+02  0.22925661604E+02  0.26119701145E+02  0.56759710996E+02  0.47000000000E+01 0. -1.
         -5    1    3    3    0  503 -0.21397075126E+02  0.87196046193E+01  0.69967390276E+02  0.73833542721E+02  0.47000000000E+01 0.  1.
          5    1    3    3  503    0  0.10074367111E+03  0.11062810438E+02  0.15616699936E+03  0.18623075668E+03  0.47000000000E+01 0. -1.
         -5    1    4    4    0  502 -0.34717569054E+02 -0.42708076661E+02  0.13283746518E+03  0.14386511588E+03  0.47000000000E+01 0.  1.
<mgrwt>
<rscale>  0 0.12690342E+03</rscale>
<asrwt>0</asrwt>
<pdfrwt beam="1">  1        1 0.58151980E-02 0.12843939E+03</pdfrwt>
<pdfrwt beam="2">  1       -1 0.65060049E-01 0.12843939E+03</pdfrwt>
<totfact> 0.32116518E+03</totfact>
</mgrwt>
</event>
<event>
 8    1  0.6396648E-004  0.9492675E+02  0.7546771E-02  0.1291600E+00
          1   -1    0    0  501    0  0.00000000000E+00  0.00000000000E+00  0.18956063585E+03  0.18956063585E+03  0.00000000000E+00 0. -1.
         -1   -1    0    0    0  501 -0.00000000000E+00 -0.00000000000E+00 -0.15829814539E+03  0.15829814539E+03  0.00000000000E+00 0.  1.
         23    2    1    2    0    0 -0.22357281904E+02  0.10816628636E+02 -0.13001913439E+03  0.16071484987E+03  0.91145159786E+02 0.  0.
         23    2    1    2    0    0  0.22357281904E+02 -0.10816628636E+02  0.16128162486E+03  0.18714393137E+03  0.91620090715E+02 0.  0.
          5    1    4    4  502    0  0.18770342703E+02  0.14861434654E+02  0.15881567355E+03  0.16067886037E+03  0.47000000000E+01 0. -1.
         -5    1    4    4    0  502  0.35869392007E+01 -0.25678063291E+02  0.24659513090E+01  0.26465071000E+02  0.47000000000E+01 0.  1.
          5    1    3    3  503    0 -0.29592670061E+02 -0.29327531462E+02 -0.27141686569E+02  0.49945884443E+02  0.47000000000E+01 0. -1.
         -5    1    3    3    0  503  0.72353881565E+01  0.40144160099E+02 -0.10287744782E+03  0.11076896543E+03  0.47000000000E+01 0.  1.
<mgrwt>
<rscale>  0 0.94811969E+02</rscale>
<asrwt>0</asrwt>
<pdfrwt beam="1">  1        1 0.29163175E-01 0.94926754E+02</pdfrwt>
<pdfrwt beam="2">  1       -1 0.24353561E-01 0.94926754E+02</pdfrwt>
<totfact> 0.21900869E+03</totfact>
</mgrwt>
</event>
<event>
 8    1  0.6396648E-004  0.1280643E+03  0.7546771E-02  0.1230588E+00
          3   -1    0    0  501    0  0.00000000000E+00  0.00000000000E+00  0.78935484755E+02  0.78935484755E+02  0.00000000000E+00 0. -1.
         -3   -1    0    0    0  501 -0.00000000000E+00 -0.00000000000E+00 -0.47420630903E+03  0.47420630903E+03  0.00000000000E+00 0.  1.
         23    2    1    2    0    0  0.88301528753E+02  0.89697750321E+01  0.10263967764E+02  0.12786666572E+03  0.91470860518E+02 0.  0.
         23    2    1    2    0    0 -0.88301528753E+02 -0.89697750321E+01 -0.40553479204E+03  0.42527512806E+03  0.92319283744E+02 0.  0.
          5    1    3    3  502    0  0.92279314548E+02 -0.14510640485E+02 -0.12774904590E+02  0.94399781610E+02  0.47000000000E+01 0. -1.
         -5    1    4    4    0  503 -0.34557347958E+02  0.68536003291E+01 -0.32568177324E+03  0.32761545989E+03  0.47000000000E+01 0.  1.
          5    1    4    4  503    0 -0.53744180795E+02 -0.15823375361E+02 -0.79853018796E+02  0.97659668175E+02  0.47000000000E+01 0. -1.
         -5    1    3    3    0  502 -0.39777857946E+01  0.23480415517E+02  0.23038872355E+02  0.33466884110E+02  0.47000000000E+01 0.  1.
<mgrwt>
<rscale>  0 0.12791147E+03</rscale>
<asrwt>0</asrwt>
<pdfrwt beam="1">  1        3 0.12143921E-01 0.12806431E+03</pdfrwt>
<pdfrwt beam="2">  1       -3 0.72954814E-01 0.12806431E+03</pdfrwt>
<totfact> 0.22471176E+02</totfact>
</mgrwt>
</event>
<event>
 8    1  0.6396648E-004  0.1094720E+03  0.7546771E-02  0.1263648E+00
         -1   -1    0    0    0  501 -0.00000000000E+00  0.00000000000E+00  0.73930336811E+02  0.73930336811E+02  0.00000000000E+00 0.  1.
          1   -1    0    0  501    0  0.00000000000E+00 -0.00000000000E+00 -0.19025140148E+03  0.19025140148E+03  0.00000000000E+00 0. -1.
         23    2    1    2    0    0  0.10081481746E+02 -0.46741163603E+02 -0.11350896288E+03  0.15467367466E+03  0.93559009878E+02 0.  0.
         23    2    1    2    0    0 -0.10081481746E+02  0.46741163603E+02 -0.28121017890E+01  0.10950806363E+03  0.98477080759E+02 0.  0.
          5    1    3    3  502    0 -0.23694944044E+00 -0.65769090002E+02 -0.11490500816E+03  0.13247973522E+03  0.47000000000E+01 0. -1.
         -5    1    4    4    0  503 -0.36982307637E+02  0.52737026200E+02  0.25761268219E+02  0.69531417006E+02  0.47000000000E+01 0.  1.
          5    1    4    4  503    0  0.26900825891E+02 -0.59958625968E+01 -0.28573370008E+02  0.39976646627E+02  0.47000000000E+01 0. -1.
         -5    1    3    3    0  502  0.10318431186E+02  0.19027926399E+02  0.13960452820E+01  0.22193939434E+02  0.47000000000E+01 0.  1.
<mgrwt>
<rscale>  0 0.10835441E+03</rscale>
<asrwt>0</asrwt>
<pdfrwt beam="1">  1        1 0.29269446E-01 0.10947195E+03</pdfrwt>
<pdfrwt beam="2">  1       -1 0.11373898E-01 0.10947195E+03</pdfrwt>
<totfact> 0.72721686E+03</totfact>
</mgrwt>
</event>
<event>
 8    1  0.6396648E-004  0.1118738E+03  0.7546771E-02  0.1262026E+00
         -1   -1    0    0    0  501 -0.00000000000E+00  0.00000000000E+00  0.21746746613E+03  0.21746746613E+03  0.00000000000E+00 0.  1.
          1   -1    0    0  501    0  0.00000000000E+00 -0.00000000000E+00 -0.12467447024E+03  0.12467447024E+03  0.00000000000E+00 0. -1.
         23    2    1    2    0    0  0.43346822366E+02 -0.17296012183E+02  0.17752128548E+03  0.20983217827E+03  0.10167417171E+03 0.  0.
         23    2    1    2    0    0 -0.43346822366E+02  0.17296012183E+02 -0.84728289594E+02  0.13230975810E+03  0.90271202411E+02 0.  0.
          5    1    3    3  502    0  0.25758097246E+02  0.71838045632E+01 -0.24798814521E+01  0.27264013530E+02  0.47000000000E+01 0. -1.
         -5    1    4    4    0  503  0.84527202871E+00 -0.25115608614E+02  0.24268724412E+01  0.25680498257E+02  0.47000000000E+01 0.  1.
          5    1    4    4  503    0 -0.44192094395E+02  0.42411620797E+02 -0.87155162036E+02  0.10662925984E+03  0.47000000000E+01 0. -1.
         -5    1    3    3    0  502  0.17588725120E+02 -0.24479816746E+02  0.18000116693E+03  0.18256816474E+03  0.47000000000E+01 0.  1.
<mgrwt>
<rscale>  0 0.10921766E+03</rscale>
<asrwt>0</asrwt>
<pdfrwt beam="1">  1        1 0.19180688E-01 0.11187375E+03</pdfrwt>
<pdfrwt beam="2">  1       -1 0.33456533E-01 0.11187375E+03</pdfrwt>
<totfact> 0.21995607E+03</totfact>
</mgrwt>
</event>
<event>
 8    1  0.6396648E-004  0.1278741E+03  0.7546771E-02  0.1231755E+00
         -2   -1    0    0    0  501 -0.00000000000E+00  0.00000000000E+00  0.18596669847E+02  0.18596669847E+02  0.00000000000E+00 0.  1.
          2   -1    0    0  501    0  0.00000000000E+00 -0.00000000000E+00 -0.86862569569E+03  0.86862569569E+03  0.00000000000E+00 0. -1.
         23    2    1    2    0    0  0.13797086816E+02  0.88144354788E+02 -0.46565357547E+03  0.48213437039E+03  0.87524350232E+02 0.  0.
         23    2    1    2    0    0 -0.13797086816E+02 -0.88144354788E+02 -0.38437545038E+03  0.40508799515E+03  0.91607914898E+02 0.  0.
          5    1    3    3  502    0  0.19642464736E+02 -0.12116079494E+02 -0.11302448284E+03  0.11545236908E+03  0.47000000000E+01 0. -1.
         -5    1    3    3    0  502 -0.58453779194E+01  0.10026043428E+03 -0.35262909262E+03  0.36668200132E+03  0.47000000000E+01 0.  1.
          5    1    4    4  503    0  0.38016735583E+01 -0.62896016866E+02 -0.36012053570E+03  0.36562173335E+03  0.47000000000E+01 0. -1.
         -5    1    4    4    0  503 -0.17598760375E+02 -0.25248337921E+02 -0.24254914674E+02  0.39466261799E+02  0.47000000000E+01 0.  1.
<mgrwt>
<rscale>  0 0.12714469E+03</rscale>
<asrwt>0</asrwt>
<pdfrwt beam="1">  1        2 0.13363471E+00 0.12787414E+03</pdfrwt>
<pdfrwt beam="2">  1       -2 0.28610263E-02 0.12787414E+03</pdfrwt>
<totfact> 0.13793985E+04</totfact>
</mgrwt>
</event>
<event>
 8    1  0.6396648E-004  0.1059968E+03  0.7546771E-02  0.1268185E+00
          2   -1    0    0  501    0  0.00000000000E+00  0.00000000000E+00  0.15393114622E+04  0.15393114622E+04  0.00000000000E+00 0. -1.
         -2   -1    0    0    0  501 -0.00000000000E+00 -0.00000000000E+00 -0.79217918560E+01  0.79217918560E+01  0.00000000000E+00 0.  1.
         23    2    1    2    0    0  0.24021843790E+02 -0.47394636712E+02  0.98315165740E+03  0.98884907836E+03  0.91717052701E+02 0.  0.
         23    2    1    2    0    0 -0.24021843790E+02  0.47394636712E+02  0.54823801295E+03  0.55838417570E+03  0.91676977826E+02 0.  0.
          5    1    4    4  502    0 -0.23771134186E+02  0.74014595812E+02  0.43873937776E+03  0.44559797892E+03  0.47000000000E+01 0. -1.
         -5    1    3    3    0  503  0.56175827468E+02 -0.11468442247E+02  0.54493513067E+03  0.54796316974E+03  0.47000000000E+01 0.  1.
          5    1    3    3  503    0 -0.32153983679E+02 -0.35926194465E+02  0.43821652673E+03  0.44088590861E+03  0.47000000000E+01 0. -1.
         -5    1    4    4    0  502 -0.25070960407E+00 -0.26619959100E+02  0.10949863518E+03  0.11278619678E+03  0.47000000000E+01 0.  1.
<mgrwt>
<rscale>  0 0.10598811E+03</rscale>
<asrwt>0</asrwt>
<pdfrwt beam="1">  1        2 0.23681691E+00 0.10599678E+03</pdfrwt>
<pdfrwt beam="2">  1       -2 0.12187384E-02 0.10599678E+03</pdfrwt>
<totfact> 0.19740273E+04</totfact>
</mgrwt>
</event>
<event>
 8    1  0.6431350E-004  0.9422192E+02  0.7546771E-02  0.1297292E+00
         -1   -1    0    0    0  501 -0.00000000000E+00  0.00000000000E+00  0.37946629549E+02  0.37946629549E+02  0.00000000000E+00 0.  1.
          1   -1    0    0  501    0  0.00000000000E+00 -0.00000000000E+00 -0.32704369462E+03  0.32704369462E+03  0.00000000000E+00 0. -1.
         23    2    1    2    0    0  0.19572215705E+02  0.36140552314E+01 -0.24690792367E+03  0.26175422014E+03  0.84590874020E+02 0.  0.
         23    2    1    2    0    0 -0.19572215705E+02 -0.36140552314E+01 -0.42189141395E+02  0.10323610402E+03  0.92095800661E+02 0.  0.
          5    1    3    3  502    0 -0.87845886516E+01  0.30454974336E+02 -0.18936006550E+03  0.19205207332E+03  0.47000000000E+01 0. -1.
         -5    1    3    3    0  502  0.28356804356E+02 -0.26840919105E+02 -0.57547858171E+02  0.69702146823E+02  0.47000000000E+01 0.  1.
          5    1    4    4  503    0 -0.35072827378E+02  0.35928549177E+02 -0.15096938053E+02  0.52640017143E+02  0.47000000000E+01 0. -1.
         -5    1    4    4    0  503  0.15500611673E+02 -0.39542604409E+02 -0.27092203342E+02  0.50596086880E+02  0.47000000000E+01 0.  1.
<mgrwt>
<rscale>  0 0.92335753E+02</rscale>
<asrwt>0</asrwt>
<pdfrwt beam="1">  1        1 0.50314416E-01 0.94221916E+02</pdfrwt>
<pdfrwt beam="2">  1       -1 0.58379428E-02 0.94221916E+02</pdfrwt>
<totfact> 0.10045226E+04</totfact>
</mgrwt>
</event>
<event>
 8    1  0.6396648E-004  0.1071745E+03  0.7546771E-02  0.1265977E+00
          2   -1    0    0  501    0  0.00000000000E+00  0.00000000000E+00  0.81988165227E+03  0.81988165227E+03  0.00000000000E+00 0. -1.
         -2   -1    0    0    0  501 -0.00000000000E+00 -0.00000000000E+00 -0.15508435685E+02  0.15508435685E+02  0.00000000000E+00 0.  1.
         23    2    1    2    0    0 -0.35214090831E+02  0.44998389350E+02  0.53272084914E+03  0.54336033711E+03  0.90465825579E+02 0.  0.
         23    2    1    2    0    0  0.35214090831E+02 -0.44998389350E+02  0.27165236744E+03  0.29202975084E+03  0.90672373984E+02 0.  0.
          5    1    4    4  502    0  0.16774799377E+02  0.27182621466E+02  0.73263377762E+02  0.80061859365E+02  0.47000000000E+01 0. -1.
         -5    1    3    3    0  503 -0.34576113390E+01 -0.27130415289E+02  0.15708048788E+03  0.15951295929E+03  0.47000000000E+01 0.  1.
          5    1    3    3  503    0 -0.31756479492E+02  0.72128804639E+02  0.37564036126E+03  0.38384737781E+03  0.47000000000E+01 0. -1.
         -5    1    4    4    0  502  0.18439291453E+02 -0.72181010815E+02  0.19838898968E+03  0.21196789148E+03  0.47000000000E+01 0.  1.
<mgrwt>
<rscale>  0 0.10713077E+03</rscale>
<asrwt>0</asrwt>
<pdfrwt beam="1">  1        2 0.12613561E+00 0.10717447E+03</pdfrwt>
<pdfrwt beam="2">  1       -2 0.23859138E-02 0.10717447E+03</pdfrwt>
<totfact> 0.19075772E+04</totfact>
</mgrwt>
</event>
<event>
 8    1  0.6396648E-004  0.1193669E+03  0.7546771E-02  0.1244152E+00
         -1   -1    0    0    0  501 -0.00000000000E+00  0.00000000000E+00  0.50150860057E+02  0.50150860057E+02  0.00000000000E+00 0.  1.
          1   -1    0    0  501    0  0.00000000000E+00 -0.00000000000E+00 -0.31528612506E+03  0.31528612506E+03  0.00000000000E+00 0. -1.
         23    2    1    2    0    0 -0.62396592506E+02 -0.46306476315E+02 -0.75066000380E+02  0.14099373918E+03  0.90590869132E+02 0.  0.
         23    2    1    2    0    0  0.62396592506E+02  0.46306476315E+02 -0.19006926463E+03  0.22444324594E+03  0.90613579484E+02 0.  0.
          5    1    4    4  502    0  0.82420272718E+02  0.22252880640E+02 -0.15632921017E+03  0.17818306318E+03  0.47000000000E+01 0. -1.
         -5    1    3    3    0  503 -0.38290901085E+02 -0.28528589832E+02  0.11442275865E+02  0.49326354220E+02  0.47000000000E+01 0.  1.
          5    1    3    3  503    0 -0.24105691420E+02 -0.17777886484E+02 -0.86508276245E+02  0.91667384960E+02  0.47000000000E+01 0. -1.
         -5    1    4    4    0  502 -0.20023680212E+02  0.24053595675E+02 -0.33740054455E+02  0.46260182758E+02  0.47000000000E+01 0.  1.
<mgrwt>
<rscale>  0 0.11936254E+03</rscale>
<asrwt>0</asrwt>
<pdfrwt beam="1">  1        1 0.48505557E-01 0.11936685E+03</pdfrwt>
<pdfrwt beam="2">  1       -1 0.77155170E-02 0.11936685E+03</pdfrwt>
<totfact> 0.70692213E+03</totfact>
</mgrwt>
</event>
<event>
 8    1  0.6396648E-004  0.9524565E+02  0.7546771E-02  0.1291379E+00
         -1   -1    0    0    0  501 -0.00000000000E+00  0.00000000000E+00  0.18104227610E+02  0.18104227610E+02  0.00000000000E+00 0.  1.
          1   -1    0    0  501    0  0.00000000000E+00 -0.00000000000E+00 -0.49695013030E+03  0.49695013030E+03  0.00000000000E+00 0. -1.
         23    2    1    2    0    0  0.14271380290E+02  0.11961877562E+02 -0.22153238224E+03  0.24113964856E+03  0.93407574190E+02 0.  0.
         23    2    1    2    0    0 -0.14271380290E+02 -0.11961877562E+02 -0.25731352045E+03  0.27391470935E+03  0.92044887867E+02 0.  0.
          5    1    3    3  502    0 -0.12525420325E+01 -0.23757685643E+02 -0.18792388548E+03  0.18948211847E+03  0.47000000000E+01 0. -1.
         -5    1    4    4    0  503  0.33004755467E+02 -0.27017595224E+02 -0.14069438581E+03  0.14709270727E+03  0.47000000000E+01 0.  1.
          5    1    4    4  503    0 -0.47276135757E+02  0.15055717662E+02 -0.11661913464E+03  0.12682200208E+03  0.47000000000E+01 0. -1.
         -5    1    3    3    0  502  0.15523922323E+02  0.35719563205E+02 -0.33608496765E+02  0.51657530086E+02  0.47000000000E+01 0.  1.
<mgrwt>
<rscale>  0 0.94909875E+02</rscale>
<asrwt>0</asrwt>
<pdfrwt beam="1">  1        1 0.76453862E-01 0.95245649E+02</pdfrwt>
<pdfrwt beam="2">  1       -1 0.27852660E-02 0.95245649E+02</pdfrwt>
<totfact> 0.17498872E+04</totfact>
</mgrwt>
</event>
<event>
 8    1  0.6396648E-004  0.1129639E+03  0.7546771E-02  0.1256388E+00
         -1   -1    0    0    0  501 -0.00000000000E+00  0.00000000000E+00  0.18647443147E+03  0.18647443147E+03  0.00000000000E+00 0.  1.
          1   -1    0    0  501    0  0.00000000000E+00 -0.00000000000E+00 -0.68861434766E+02  0.68861434766E+02  0.00000000000E+00 0. -1.
         23    2    1    2    0    0  0.17242469246E+02  0.62418624699E+02  0.80092719447E+02  0.13630390809E+03  0.89277792290E+02 0.  0.
         23    2    1    2    0    0 -0.17242469246E+02 -0.62418624699E+02  0.37520277259E+02  0.11903195815E+03  0.92560512103E+02 0.  0.
          5    1    4    4  502    0 -0.50925097915E+02 -0.57729376930E+02  0.16799206563E+02  0.78932565520E+02  0.47000000000E+01 0. -1.
         -5    1    4    4    0  502  0.33682628668E+02 -0.46892477682E+01  0.20721070695E+02  0.40099392632E+02  0.47000000000E+01 0.  1.
          5    1    3    3  503    0  0.35685725316E+02  0.50117401510E+02  0.98357353036E+01  0.62482450452E+02  0.47000000000E+01 0. -1.
         -5    1    3    3    0  503 -0.18443256070E+02  0.12301223188E+02  0.70256984143E+02  0.73821457635E+02  0.47000000000E+01 0.  1.
<mgrwt>
<rscale>  0 0.11228942E+03</rscale>
<asrwt>0</asrwt>
<pdfrwt beam="1">  1        1 0.10594067E-01 0.11296387E+03</pdfrwt>
<pdfrwt beam="2">  1       -1 0.28688374E-01 0.11296387E+03</pdfrwt>
<totfact> 0.61311011E+03</totfact>
</mgrwt>
</event>
<event>
 8    1  0.6396648E-004  0.9844549E+02  0.7546771E-02  0.1284391E+00
          1   -1    0    0  501    0  0.00000000000E+00  0.00000000000E+00  0.42965305147E+03  0.42965305147E+03  0.00000000000E+00 0. -1.
         -1   -1    0    0    0  501 -0.00000000000E+00 -0.00000000000E+00 -0.30123696731E+02  0.30123696731E+02  0.00000000000E+00 0.  1.
         23    2    1    2    0    0  0.28200555678E+02 -0.89662293839E+01  0.83134763591E+02  0.12885225770E+03  0.93892762173E+02 0.  0.
         23    2    1    2    0    0 -0.28200555678E+02  0.89662293839E+01  0.31639459115E+03  0.33092449049E+03  0.92357005651E+02 0.  0.
          5    1    4    4  502    0  0.10464269126E+02 -0.34702335039E+02  0.15496593945E+03  0.15921772946E+03  0.47000000000E+01 0. -1.
         -5    1    3    3    0  503  0.54796776311E+02 -0.15115613768E+02  0.20925249951E+02  0.60754625826E+02  0.47000000000E+01 0.  1.
          5    1    3    3  503    0 -0.26596220633E+02  0.61493843844E+01  0.62209513639E+02  0.68097631879E+02  0.47000000000E+01 0. -1.
         -5    1    4    4    0  502 -0.38664824804E+02  0.43668564423E+02  0.16142865170E+03  0.17170676103E+03  0.47000000000E+01 0.  1.
<mgrwt>
<rscale>  0 0.98077528E+02</rscale>
<asrwt>0</asrwt>
<pdfrwt beam="1">  1        1 0.66100465E-01 0.98445495E+02</pdfrwt>
<pdfrwt beam="2">  1       -1 0.46344152E-02 0.98445495E+02</pdfrwt>
<totfact> 0.10088101E+04</totfact>
</mgrwt>
</event>
<event>
 8    1  0.6396648E-004  0.9325802E+02  0.7546771E-02  0.1295263E+00
          1   -1    0    0  501    0  0.00000000000E+00  0.00000000000E+00  0.71944026095E+02  0.71944026095E+02  0.00000000000E+00 0. -1.
         -1   -1    0    0    0  501 -0.00000000000E+00 -0.00000000000E+00 -0.15011641829E+03  0.15011641829E+03  0.00000000000E+00 0.  1.
         23    2    1    2    0    0  0.14104639208E+01 -0.19428163467E+02 -0.88327332150E+02  0.12844756175E+03  0.91200962557E+02 0.  0.
         23    2    1    2    0    0 -0.14104639208E+01  0.19428163467E+02  0.10154939957E+02  0.93612882629E+02  0.90998934304E+02 0.  0.
          5    1    4    4  502    0 -0.18833086701E+02 -0.92155885798E+01  0.41973002188E+02  0.47153315262E+02  0.47000000000E+01 0. -1.
         -5    1    4    4    0  502  0.17422622780E+02  0.28643752046E+02 -0.31818062230E+02  0.46459567367E+02  0.47000000000E+01 0.  1.
          5    1    3    3  503    0 -0.38650916680E+02  0.28315255102E+01 -0.14943830666E+02  0.41800944629E+02  0.47000000000E+01 0. -1.
         -5    1    3    3    0  503  0.40061380601E+02 -0.22259688977E+02 -0.73383501484E+02  0.86646617124E+02  0.47000000000E+01 0.  1.
<mgrwt>
<rscale>  0 0.93208591E+02</rscale>
<asrwt>0</asrwt>
<pdfrwt beam="1">  1        1 0.11068312E-01 0.93258021E+02</pdfrwt>
<pdfrwt beam="2">  1       -1 0.23094833E-01 0.93258021E+02</pdfrwt>
<totfact> 0.81272507E+03</totfact>
</mgrwt>
</event>
<event>
 8    1  0.6396648E-004  0.9983613E+02  0.7546771E-02  0.1284144E+00
          2   -1    0    0  501    0  0.00000000000E+00  0.00000000000E+00  0.30511591029E+03  0.30511591029E+03  0.00000000000E+00 0. -1.
         -2   -1    0    0    0  501 -0.00000000000E+00 -0.00000000000E+00 -0.30959108941E+02  0.30959108941E+02  0.00000000000E+00 0.  1.
         23    2    1    2    0    0  0.75877758457E+01 -0.59791029722E+01  0.15061776931E+03  0.17723816713E+03  0.92921103314E+02 0.  0.
         23    2    1    2    0    0 -0.75877758457E+01  0.59791029722E+01  0.12353903205E+03  0.15883685211E+03  0.99367646313E+02 0.  0.
          5    1    4    4  502    0  0.11301019142E+02 -0.31186298343E+02  0.10963390156E+03  0.11463847787E+03  0.47000000000E+01 0. -1.
         -5    1    3    3    0  503  0.45354523793E+02 -0.10368576609E+02  0.45041109675E+02  0.64925586406E+02  0.47000000000E+01 0.  1.
          5    1    3    3  503    0 -0.37766747948E+02  0.43894736372E+01  0.10557665963E+03  0.11231258072E+03  0.47000000000E+01 0. -1.
         -5    1    4    4    0  502 -0.18888794987E+02  0.37165401315E+02  0.13905130486E+02  0.44198374233E+02  0.47000000000E+01 0.  1.
<mgrwt>
<rscale>  0 0.98192430E+02</rscale>
<asrwt>0</asrwt>
<pdfrwt beam="1">  1        2 0.46940907E-01 0.99836131E+02</pdfrwt>
<pdfrwt beam="2">  1       -2 0.47629400E-02 0.99836131E+02</pdfrwt>
<totfact> 0.20510877E+04</totfact>
</mgrwt>
</event>
<event>
 8    1  0.6396648E-004  0.1135699E+03  0.7546771E-02  0.1255102E+00
         -1   -1    0    0    0  501 -0.00000000000E+00  0.00000000000E+00  0.21216187300E+02  0.21216187300E+02  0.00000000000E+00 0.  1.
          1   -1    0    0  501    0  0.00000000000E+00 -0.00000000000E+00 -0.79336977698E+03  0.79336977698E+03  0.00000000000E+00 0. -1.
         23    2    1    2    0    0  0.17949167312E+01 -0.59025499999E+02 -0.59209343649E+03  0.60288702264E+03  0.97009758007E+02 0.  0.
         23    2    1    2    0    0 -0.17949167312E+01  0.59025499999E+02 -0.18006015319E+03  0.21169894164E+03  0.94379827036E+02 0.  0.
          5    1    3    3  502    0  0.27140400653E+02 -0.63476043967E+02 -0.54176843700E+03  0.54616933165E+03  0.47000000000E+01 0. -1.
         -5    1    3    3    0  502 -0.25345483922E+02  0.44505439675E+01 -0.50324999495E+02  0.56717690988E+02  0.47000000000E+01 0.  1.
          5    1    4    4  503    0 -0.40232714939E+02  0.55258620592E+02 -0.86326839631E+02  0.11021161346E+03  0.47000000000E+01 0.  1.
         -5    1    4    4    0  503  0.38437798207E+02  0.37668794071E+01 -0.93733313556E+02  0.10148732818E+03  0.47000000000E+01 0. -1.
<mgrwt>
<rscale>  0 0.11300621E+03</rscale>
<asrwt>0</asrwt>
<pdfrwt beam="1">  1        1 0.12205689E+00 0.11356991E+03</pdfrwt>
<pdfrwt beam="2">  1       -1 0.32640287E-02 0.11356991E+03</pdfrwt>
<totfact> 0.74212687E+03</totfact>
</mgrwt>
</event>
<event>
 8    1  0.6396648E-004  0.1700364E+03  0.7546771E-02  0.1178218E+00
         -1   -1    0    0    0  501 -0.00000000000E+00  0.00000000000E+00  0.74662157935E+02  0.74662157935E+02  0.00000000000E+00 0.  1.
          1   -1    0    0  501    0  0.00000000000E+00 -0.00000000000E+00 -0.71636364879E+03  0.71636364879E+03  0.00000000000E+00 0. -1.
         23    2    1    2    0    0  0.12402737175E+03  0.72338777701E+02 -0.50539746764E+02  0.17589608183E+03  0.88144641910E+02 0.  0.
         23    2    1    2    0    0 -0.12402737175E+03 -0.72338777701E+02 -0.59116174409E+03  0.61512972489E+03  0.91086129933E+02 0.  0.
          5    1    4    4  502    0 -0.51099291241E+02 -0.55509302630E+02 -0.43934713204E+03  0.44580310977E+03  0.47000000000E+01 0. -1.
         -5    1    3    3    0  503  0.86926388684E+02  0.64279204741E+02  0.51459803849E+01  0.10833551738E+03  0.47000000000E+01 0.  1.
          5    1    3    3  503    0  0.37100983069E+02  0.80595729600E+01 -0.55685727149E+02  0.67560564452E+02  0.47000000000E+01 0. -1.
         -5    1    4    4    0  502 -0.72928080512E+02 -0.16829475070E+02 -0.15181461204E+03  0.16932661512E+03  0.47000000000E+01 0.  1.
<mgrwt>
<rscale>  0 0.16964569E+03</rscale>
<asrwt>0</asrwt>
<pdfrwt beam="1">  1        1 0.11020980E+00 0.17003638E+03</pdfrwt>
<pdfrwt beam="2">  1       -1 0.11486485E-01 0.17003638E+03</pdfrwt>
<totfact> 0.13335587E+03</totfact>
</mgrwt>
</event>
<event>
 8    1  0.6396648E-004  0.9724817E+02  0.7546771E-02  0.1288889E+00
          1   -1    0    0  501    0  0.00000000000E+00  0.00000000000E+00  0.53425264512E+03  0.53425264512E+03  0.00000000000E+00 0. -1.
         -1   -1    0    0    0  501 -0.00000000000E+00 -0.00000000000E+00 -0.17616256787E+02  0.17616256787E+02  0.00000000000E+00 0.  1.
         23    2    1    2    0    0  0.22533025360E+02  0.23966476488E+02  0.20656611111E+03  0.22831286756E+03  0.91515452281E+02 0.  0.
         23    2    1    2    0    0 -0.22533025360E+02 -0.23966476488E+02  0.31007027722E+03  0.32355603434E+03  0.86387506734E+02 0.  0.
          5    1    4    4  502    0 -0.54942643658E+02 -0.21252493742E+02  0.21461138737E+03  0.22259941638E+03  0.47000000000E+01 0. -1.
         -5    1    3    3    0  503  0.40606395827E+02 -0.58473835123E+01  0.38008216081E+02  0.56122952218E+02  0.47000000000E+01 0.  1.
          5    1    3    3  503    0 -0.18073370466E+02  0.29813860000E+02  0.16855789503E+03  0.17218991534E+03  0.47000000000E+01 0. -1.
         -5    1    4    4    0  502  0.32409618298E+02 -0.27139827455E+01  0.95458889847E+02  0.10095661797E+03  0.47000000000E+01 0.  1.
<mgrwt>
<rscale>  0 0.96022864E+02</rscale>
<asrwt>0</asrwt>
<pdfrwt beam="1">  1        1 0.82192702E-01 0.97248173E+02</pdfrwt>
<pdfrwt beam="2">  1       -1 0.27101938E-02 0.97248173E+02</pdfrwt>
<totfact> 0.16604278E+04</totfact>
</mgrwt>
</event>
<event>
 8    1  0.6396648E-004  0.9180639E+02  0.7546771E-02  0.1300003E+00
         -3   -1    0    0    0  501 -0.00000000000E+00  0.00000000000E+00  0.26251123221E+02  0.26251123221E+02  0.00000000000E+00 0.  1.
          3   -1    0    0  501    0  0.00000000000E+00 -0.00000000000E+00 -0.31258234151E+03  0.31258234151E+03  0.00000000000E+00 0. -1.
         23    2    1    2    0    0  0.10080231771E+01  0.13183984604E+02 -0.14694099814E+03  0.17326300734E+03  0.90849211418E+02 0.  0.
         23    2    1    2    0    0 -0.10080231771E+01 -0.13183984604E+02 -0.13939022015E+03  0.16557045740E+03  0.88369165033E+02 0.  0.
          5    1    3    3  502    0  0.25428772803E+02  0.87823030628E+00 -0.14289966326E+03  0.14522326788E+03  0.47000000000E+01 0. -1.
         -5    1    3    3    0  502 -0.24420749626E+02  0.12305754297E+02 -0.40413348850E+01  0.28039739456E+02  0.47000000000E+01 0.  1.
          5    1    4    4  503    0 -0.23079137396E+02 -0.39282444291E+02 -0.41606251581E+02  0.61878325632E+02  0.47000000000E+01 0. -1.
         -5    1    4    4    0  503  0.22071114219E+02  0.26098459687E+02 -0.97783968569E+02  0.10369213177E+03  0.47000000000E+01 0.  1.
<mgrwt>
<rscale>  0 0.91186774E+02</rscale>
<asrwt>0</asrwt>
<pdfrwt beam="1">  1        3 0.48089588E-01 0.91806387E+02</pdfrwt>
<pdfrwt beam="2">  1       -3 0.40386346E-02 0.91806387E+02</pdfrwt>
<totfact> 0.29254043E+03</totfact>
</mgrwt>
</event>
<event>
 8    1  0.6396648E-004  0.1080921E+03  0.7546771E-02  0.1264448E+00
         -1   -1    0    0    0  501 -0.00000000000E+00  0.00000000000E+00  0.39379535821E+03  0.39379535821E+03  0.00000000000E+00 0.  1.
          1   -1    0    0  501    0  0.00000000000E+00 -0.00000000000E+00 -0.29639210335E+02  0.29639210335E+02  0.00000000000E+00 0. -1.
         23    2    1    2    0    0 -0.13658224618E+02 -0.55993198370E+02  0.19632398547E+03  0.22380605449E+03  0.90687691518E+02 0.  0.
         23    2    1    2    0    0  0.13658224618E+02  0.55993198370E+02  0.16783216240E+03  0.19962851405E+03  0.91444647311E+02 0.  0.
          5    1    4    4  502    0  0.40037216940E+02  0.52364914224E+02  0.62774456153E+02  0.91147053311E+02  0.47000000000E+01 0. -1.
         -5    1    4    4    0  502 -0.26378992322E+02  0.36282841462E+01  0.10505770625E+03  0.10848146074E+03  0.47000000000E+01 0.  1.
          5    1    3    3  503    0 -0.20229979000E+02  0.20902277739E+02  0.65870644129E+02  0.72160855198E+02  0.47000000000E+01 0. -1.
         -5    1    3    3    0  503  0.65717543824E+01 -0.76895476109E+02  0.13045334134E+03  0.15164519930E+03  0.47000000000E+01 0.  1.
<mgrwt>
<rscale>  0 0.10793187E+03</rscale>
<asrwt>0</asrwt>
<pdfrwt beam="1">  1        1 0.45598788E-02 0.10809213E+03</pdfrwt>
<pdfrwt beam="2">  1       -1 0.60583898E-01 0.10809213E+03</pdfrwt>
<totfact> 0.50643884E+03</totfact>
</mgrwt>
</event>
<event>
 8    1  0.6396648E-004  0.9663390E+02  0.7546771E-02  0.1287888E+00
          3   -1    0    0  501    0  0.00000000000E+00  0.00000000000E+00  0.13099794489E+03  0.13099794489E+03  0.00000000000E+00 0. -1.
         -3   -1    0    0    0  501 -0.00000000000E+00 -0.00000000000E+00 -0.73034818466E+02  0.73034818466E+02  0.00000000000E+00 0.  1.
         23    2    1    2    0    0 -0.29584402100E+02 -0.76438315764E+01  0.11299460112E+02  0.97292283807E+02  0.91675763868E+02 0.  0.
         23    2    1    2    0    0  0.29584402100E+02  0.76438315764E+01  0.46663666309E+02  0.10674047955E+03  0.91007511843E+02 0.  0.
          5    1    3    3  502    0 -0.36179795550E+00  0.36745305761E+02  0.21702714509E+02  0.42935372484E+02  0.47000000000E+01 0. -1.
         -5    1    3    3    0  502 -0.29222604144E+02 -0.44389137338E+02 -0.10403254397E+02  0.54356911323E+02  0.47000000000E+01 0.  1.
          5    1    4    4  503    0  0.58291565862E+02  0.17333332146E+02  0.45430409648E+02  0.76055000985E+02  0.47000000000E+01 0. -1.
         -5    1    4    4    0  503 -0.28707163763E+02 -0.96895005700E+01  0.12332566606E+01  0.30685478562E+02  0.47000000000E+01 0.  1.
<mgrwt>
<rscale>  0 0.96475076E+02</rscale>
<asrwt>0</asrwt>
<pdfrwt beam="1">  1        3 0.20153530E-01 0.96633900E+02</pdfrwt>
<pdfrwt beam="2">  1       -3 0.11236126E-01 0.96633900E+02</pdfrwt>
<totfact> 0.28736000E+03</totfact>
</mgrwt>
</event>
<event>
 8    1  0.6396648E-004  0.1011454E+03  0.7546771E-02  0.1278194E+00
         -1   -1    0    0    0  501 -0.00000000000E+00  0.00000000000E+00  0.51449618175E+02  0.51449618175E+02  0.00000000000E+00 0.  1.
          1   -1    0    0  501    0  0.00000000000E+00 -0.00000000000E+00 -0.42792238840E+03  0.42792238840E+03  0.00000000000E+00 0. -1.
         23    2    1    2    0    0 -0.41937536723E+02 -0.10027520239E+02 -0.12210449733E+02  0.10132779526E+03  0.90878594079E+02 0.  0.
         23    2    1    2    0    0  0.41937536723E+02  0.10027520239E+02 -0.36426232049E+03  0.37804421131E+03  0.91493603203E+02 0.  0.
          5    1    4    4  502    0  0.41135417961E+02  0.44016540805E+02 -0.29007167744E+03  0.29629925165E+03  0.47000000000E+01 0. -1.
         -5    1    4    4    0  502  0.80211876237E+00 -0.33989020566E+02 -0.74190643049E+02  0.81744959659E+02  0.47000000000E+01 0.  1.
          5    1    3    3  503    0 -0.26116887674E+02 -0.46208288539E+02 -0.25930604185E+02  0.59260306993E+02  0.47000000000E+01 0. -1.
         -5    1    3    3    0  503 -0.15820649049E+02  0.36180768301E+02  0.13720154452E+02  0.42067488270E+02  0.47000000000E+01 0.  1.
<mgrwt>
<rscale>  0 0.10100610E+03</rscale>
<asrwt>0</asrwt>
<pdfrwt beam="1">  1        1 0.65834215E-01 0.10114538E+03</pdfrwt>
<pdfrwt beam="2">  1       -1 0.79153257E-02 0.10114538E+03</pdfrwt>
<totfact> 0.46041492E+03</totfact>
</mgrwt>
</event>
<event>
 8    1  0.6396648E-004  0.9354403E+02  0.7546771E-02  0.1294853E+00
         -3   -1    0    0    0  501 -0.00000000000E+00  0.00000000000E+00  0.15026101303E+03  0.15026101303E+03  0.00000000000E+00 0.  1.
          3   -1    0    0  501    0  0.00000000000E+00 -0.00000000000E+00 -0.59291566568E+02  0.59291566568E+02  0.00000000000E+00 0. -1.
         23    2    1    2    0    0  0.21472959587E+02 -0.21546469098E+00  0.28958106235E+02  0.97321161209E+02  0.90397467243E+02 0.  0.
         23    2    1    2    0    0 -0.21472959587E+02  0.21546469098E+00  0.62011340227E+02  0.11223141839E+03  0.91045870518E+02 0.  0.
          5    1    4    4  502    0 -0.11453636629E+02  0.27222497789E+02 -0.12343969511E+02  0.32352955988E+02  0.47000000000E+01 0. -1.
         -5    1    3    3    0  503  0.48443710216E+02 -0.24839996155E+02  0.25609493252E+02  0.60346951979E+02  0.47000000000E+01 0.  1.
          5    1    3    3  503    0 -0.26970750629E+02  0.24624531464E+02  0.33486129827E+01  0.36974209231E+02  0.47000000000E+01 0. -1.
         -5    1    4    4    0  502 -0.10019322958E+02 -0.27007033098E+02  0.74355309738E+02  0.79878462401E+02  0.47000000000E+01 0.  1.
<mgrwt>
<rscale>  0 0.93385884E+02</rscale>
<asrwt>0</asrwt>
<pdfrwt beam="1">  1        3 0.91217796E-02 0.93544027E+02</pdfrwt>
<pdfrwt beam="2">  1       -3 0.23117079E-01 0.93544027E+02</pdfrwt>
<totfact> 0.31557506E+03</totfact>
</mgrwt>
</event>
<event>
 8    1  0.6396648E-004  0.1035606E+03  0.7546771E-02  0.1274106E+00
          4   -1    0    0  501    0  0.00000000000E+00  0.00000000000E+00  0.38626600405E+02  0.38626600405E+02  0.00000000000E+00 0. -1.
         -4   -1    0    0    0  501 -0.00000000000E+00 -0.00000000000E+00 -0.27984117898E+03  0.27984117898E+03  0.00000000000E+00 0.  1.
         23    2    1    2    0    0 -0.78376875733E+01  0.53381511124E+02 -0.92264083240E+02  0.13705375553E+03  0.85790767401E+02 0.  0.
         23    2    1    2    0    0  0.78376875733E+01 -0.53381511124E+02 -0.14895049534E+03  0.18141402386E+03  0.88395604617E+02 0.  0.
          5    1    4    4  502    0 -0.22070169247E+02 -0.53288571700E+02 -0.13725999899E+03  0.14896026842E+03  0.47000000000E+01 0. -1.
         -5    1    3    3    0  503  0.24695751814E+02  0.43761982754E+02 -0.89428699556E+02  0.10268677421E+03  0.47000000000E+01 0.  1.
          5    1    3    3  503    0 -0.32533439388E+02  0.96195283699E+01 -0.28353836832E+01  0.34366981321E+02  0.47000000000E+01 0. -1.
         -5    1    4    4    0  502  0.29907856820E+02 -0.92939423795E-01 -0.11690496343E+02  0.32453755438E+02  0.47000000000E+01 0.  1.
<mgrwt>
<rscale>  0 0.10300253E+03</rscale>
<asrwt>0</asrwt>
<pdfrwt beam="1">  1        4 0.59425539E-02 0.10356060E+03</pdfrwt>
<pdfrwt beam="2">  1       -4 0.43052489E-01 0.10356060E+03</pdfrwt>
<totfact> 0.14662434E+03</totfact>
</mgrwt>
</event>
<event>
 7    1  0.1221246E-003  0.3299105E+03  0.7546771E-02  0.1106896E+00
         -2   -1    0    0    0  501 -0.00000000000E+00  0.00000000000E+00  0.26170978972E+03  0.26170978972E+03  0.00000000000E+00 0.  1.
          2   -1    0    0  501    0  0.00000000000E+00 -0.00000000000E+00 -0.20126903696E+03  0.20126903696E+03  0.00000000000E+00 0. -1.
         23    2    1    2    0    0  0.87015441403E+02 -0.93256912795E+01  0.30191723621E+01  0.12810846547E+03  0.93509400405E+02 0.  0.
          5    1    1    2  502    0 -0.19492424901E+02  0.74651349206E+02 -0.11493775763E+03  0.13851193702E+03  0.47000000000E+01 0. -1.
         -5    1    1    2    0  502 -0.67523016503E+02 -0.65325657927E+02  0.17235933804E+03  0.19635842419E+03  0.47000000000E+01 0.  1.
          5    1    3    3  503    0  0.49415888927E+02 -0.50434184283E+02  0.11064540398E+02  0.71624374881E+02  0.47000000000E+01 0. -1.
         -5    1    3    3    0  503  0.37599552476E+02  0.41108493004E+02 -0.80453680359E+01  0.56484090594E+02  0.47000000000E+01 0.  1.
<mgrwt>
<rscale>  0 0.26041223E+03</rscale>
<asrwt>0</asrwt>
<pdfrwt beam="1">  1        2 0.30964467E-01 0.32991047E+03</pdfrwt>
<pdfrwt beam="2">  1       -2 0.40263045E-01 0.32991047E+03</pdfrwt>
<totfact> 0.99964493E+02</totfact>
</mgrwt>
</event>
<event>
 8    1  0.6396648E-004  0.1013318E+03  0.7546771E-02  0.1283676E+00
          2   -1    0    0  501    0  0.00000000000E+00  0.00000000000E+00  0.12891284270E+02  0.12891284270E+02  0.00000000000E+00 0. -1.
         -2   -1    0    0    0  501 -0.00000000000E+00 -0.00000000000E+00 -0.76357890137E+03  0.76357890137E+03  0.00000000000E+00 0.  1.
         23    2    1    2    0    0 -0.73018708188E+01 -0.94929833342E+01 -0.29402828632E+03  0.31099961048E+03  0.10062152114E+03 0.  0.
         23    2    1    2    0    0  0.73018708188E+01  0.94929833342E+01 -0.45665933079E+03  0.46547057516E+03  0.89340236720E+02 0.  0.
          5    1    3    3  502    0 -0.35664885209E+02 -0.92653410220E+01 -0.37215369179E+02  0.52582357159E+02  0.47000000000E+01 0. -1.
         -5    1    3    3    0  502  0.28363014391E+02 -0.22764231217E+00 -0.25681291714E+03  0.25841725332E+03  0.47000000000E+01 0. -1.
          5    1    4    4  503    0 -0.34902805025E+02 -0.27806636098E+01 -0.31749922192E+03  0.31945857918E+03  0.47000000000E+01 0.  1.
         -5    1    4    4    0  503  0.42204675843E+02  0.12273646944E+02 -0.13916010887E+03  0.14601199599E+03  0.47000000000E+01 0.  1.
<mgrwt>
<rscale>  0 0.98409685E+02</rscale>
<asrwt>0</asrwt>
<pdfrwt beam="1">  1        2 0.19832742E-02 0.10133175E+03</pdfrwt>
<pdfrwt beam="2">  1       -2 0.11747370E+00 0.10133175E+03</pdfrwt>
<totfact> 0.30049751E+03</totfact>
</mgrwt>
</event>
<event>
 8    1  0.6396648E-004  0.1147061E+03  0.7546771E-02  0.1252153E+00
          1   -1    0    0  501    0  0.00000000000E+00  0.00000000000E+00  0.25070550523E+03  0.25070550523E+03  0.00000000000E+00 0. -1.
         -1   -1    0    0    0  501 -0.00000000000E+00 -0.00000000000E+00 -0.57390527136E+02  0.57390527136E+02  0.00000000000E+00 0.  1.
         23    2    1    2    0    0  0.62957889995E+02  0.25837064881E+02  0.14203567660E+03  0.18256951781E+03  0.92337671467E+02 0.  0.
         23    2    1    2    0    0 -0.62957889995E+02 -0.25837064881E+02  0.51279301494E+02  0.12552651455E+03  0.92174233169E+02 0.  0.
          5    1    3    3  502    0  0.23107661261E+02  0.38993114830E+02  0.13132198356E+03  0.13900352650E+03  0.47000000000E+01 0. -1.
         -5    1    3    3    0  502  0.39850228733E+02 -0.13156049949E+02  0.10713693041E+02  0.43565991311E+02  0.47000000000E+01 0.  1.
          5    1    4    4  503    0 -0.21322600376E+02  0.34252169993E+02  0.25020939801E+02  0.47707461309E+02  0.47000000000E+01 0. -1.
         -5    1    4    4    0  503 -0.41635289619E+02 -0.60089234874E+02  0.26258361693E+02  0.77819053246E+02  0.47000000000E+01 0.  1.
<mgrwt>
<rscale>  0 0.11467323E+03</rscale>
<asrwt>0</asrwt>
<pdfrwt beam="1">  1        1 0.38570077E-01 0.11470613E+03</pdfrwt>
<pdfrwt beam="2">  1       -1 0.88293120E-02 0.11470613E+03</pdfrwt>
<totfact> 0.76298162E+03</totfact>
</mgrwt>
</event>
<event>
 8    1  0.6396648E-004  0.9719303E+02  0.7546771E-02  0.1294804E+00
         -1   -1    0    0    0  501 -0.00000000000E+00  0.00000000000E+00  0.26267730506E+02  0.26267730506E+02  0.00000000000E+00 0.  1.
          1   -1    0    0  501    0  0.00000000000E+00 -0.00000000000E+00 -0.39958356252E+03  0.39958356252E+03  0.00000000000E+00 0. -1.
         23    2    1    2    0    0  0.24563477025E+02  0.11611912533E+02 -0.27650917606E+03  0.28867252992E+03  0.78334565591E+02 0.  0.
         23    2    1    2    0    0 -0.24563477025E+02 -0.11611912533E+02 -0.96806655957E+02  0.13717876311E+03  0.93318184164E+02 0.  0.
          5    1    4    4  502    0  0.58134042287E+01 -0.45459038844E+02 -0.26019501108E+02  0.52909586270E+02  0.47000000000E+01 0. -1.
         -5    1    3    3    0  503 -0.26217516634E+02  0.10471268180E+02 -0.14110994075E+03  0.14398302335E+03  0.47000000000E+01 0.  1.
          5    1    3    3  503    0  0.50780993659E+02  0.11406443522E+01 -0.13539923531E+03  0.14468950656E+03  0.47000000000E+01 0. -1.
         -5    1    4    4    0  502 -0.30376881254E+02  0.33847126312E+02 -0.70787154849E+02  0.84269176844E+02  0.47000000000E+01 0.  1.
<mgrwt>
<rscale>  0 0.93407449E+02</rscale>
<asrwt>0</asrwt>
<pdfrwt beam="1">  1        1 0.61474389E-01 0.97193027E+02</pdfrwt>
<pdfrwt beam="2">  1       -1 0.40411897E-02 0.97193027E+02</pdfrwt>
<totfact> 0.13475751E+04</totfact>
</mgrwt>
</event>
<event>
 8    1  0.6396648E-004  0.9976316E+02  0.7546771E-02  0.1280943E+00
         -1   -1    0    0    0  501 -0.00000000000E+00  0.00000000000E+00  0.11613039488E+03  0.11613039488E+03  0.00000000000E+00 0.  1.
          1   -1    0    0  501    0  0.00000000000E+00 -0.00000000000E+00 -0.15919790101E+03  0.15919790101E+03  0.00000000000E+00 0. -1.
         23    2    1    2    0    0  0.35903395342E+02 -0.19039041114E+02  0.72139423192E+02  0.12311289649E+03  0.91110647130E+02 0.  0.
         23    2    1    2    0    0 -0.35903395342E+02  0.19039041114E+02 -0.11520692932E+03  0.15221539939E+03  0.90803922630E+02 0.  0.
          5    1    3    3  502    0  0.27936989945E+02 -0.45618430093E+02  0.96238539084E+01  0.54554790214E+02  0.47000000000E+01 0. -1.
         -5    1    3    3    0  502  0.79664053973E+01  0.26579388979E+02  0.62515569283E+02  0.68558106277E+02  0.47000000000E+01 0.  1.
          5    1    4    4  503    0 -0.39980580825E+02  0.51926481698E+02 -0.81881127634E+02  0.10498292912E+03  0.47000000000E+01 0. -1.
         -5    1    4    4    0  503  0.40771854830E+01 -0.32887440584E+02 -0.33325801687E+02  0.47232470270E+02  0.47000000000E+01 0.  1.
<mgrwt>
<rscale>  0 0.99693079E+02</rscale>
<asrwt>0</asrwt>
<pdfrwt beam="1">  1        1 0.24491985E-01 0.99763164E+02</pdfrwt>
<pdfrwt beam="2">  1       -1 0.17866215E-01 0.99763164E+02</pdfrwt>
<totfact> 0.44724100E+03</totfact>
</mgrwt>
</event>
<event>
 8    1  0.6396648E-004  0.1080176E+03  0.7546771E-02  0.1264289E+00
         -2   -1    0    0    0  501 -0.00000000000E+00  0.00000000000E+00  0.44900686642E+03  0.44900686642E+03  0.00000000000E+00 0.  1.
          2   -1    0    0  501    0  0.00000000000E+00 -0.00000000000E+00 -0.26118302855E+02  0.26118302855E+02  0.00000000000E+00 0. -1.
         23    2    1    2    0    0 -0.50036617924E+02 -0.31128674654E+02  0.22848824707E+03  0.25273438979E+03  0.90526986108E+02 0.  0.
         23    2    1    2    0    0  0.50036617924E+02  0.31128674654E+02  0.19440031650E+03  0.22239077949E+03  0.90518054707E+02 0.  0.
          5    1    3    3  502    0 -0.51535136332E+02 -0.52306579564E+02  0.11048018376E+03  0.13273963066E+03  0.47000000000E+01 0. -1.
         -5    1    4    4    0  503  0.62871172238E+02 -0.31775013545E+01  0.78407697180E+02  0.10066150103E+03  0.47000000000E+01 0.  1.
          5    1    4    4  503    0 -0.12834554313E+02  0.34306176008E+02  0.11599261932E+03  0.12172927845E+03  0.47000000000E+01 0. -1.
         -5    1    3    3    0  502  0.14985184081E+01  0.21177904910E+02  0.11800806330E+03  0.11999475913E+03  0.47000000000E+01 0.  1.
<mgrwt>
<rscale>  0 0.10801569E+03</rscale>
<asrwt>0</asrwt>
<pdfrwt beam="1">  1        2 0.40182008E-02 0.10801756E+03</pdfrwt>
<pdfrwt beam="2">  1       -2 0.69077974E-01 0.10801756E+03</pdfrwt>
<totfact> 0.38602799E+03</totfact>
</mgrwt>
</event>
<event>
 8    1  0.6396648E-004  0.9429556E+02  0.7546771E-02  0.1293350E+00
         -1   -1    0    0    0  501 -0.00000000000E+00  0.00000000000E+00  0.41106210496E+02  0.41106210496E+02  0.00000000000E+00 0.  1.
          1   -1    0    0  501    0  0.00000000000E+00 -0.00000000000E+00 -0.25294893451E+03  0.25294893451E+03  0.00000000000E+00 0. -1.
         23    2    1    2    0    0 -0.12532435650E+00 -0.24280754525E+02 -0.16410419885E+03  0.18926658826E+03  0.91115764851E+02 0.  0.
         23    2    1    2    0    0  0.12532435650E+00  0.24280754525E+02 -0.47738525167E+02  0.10478855675E+03  0.90067219864E+02 0.  0.
          5    1    4    4  502    0 -0.42614351351E+02  0.17453078737E+02 -0.10421119689E+02  0.47447683126E+02  0.47000000000E+01 0. -1.
         -5    1    4    4    0  502  0.42739675708E+02  0.68276757880E+01 -0.37317405479E+02  0.57340873624E+02  0.47000000000E+01 0.  1.
          5    1    3    3  503    0 -0.29538547975E+02 -0.45242814506E+02 -0.71395060359E+02  0.89659259000E+02  0.47000000000E+01 0. -1.
         -5    1    3    3    0  503  0.29413223618E+02  0.20962059980E+02 -0.92709138489E+02  0.99607329256E+02  0.47000000000E+01 0.  1.
<mgrwt>
<rscale>  0 0.94041339E+02</rscale>
<asrwt>0</asrwt>
<pdfrwt beam="1">  1        1 0.38915221E-01 0.94295564E+02</pdfrwt>
<pdfrwt beam="2">  1       -1 0.63240323E-02 0.94295564E+02</pdfrwt>
<totfact> 0.12220892E+04</totfact>
</mgrwt>
</event>
<event>
 8    1  0.6396648E-004  0.9658755E+02  0.7546771E-02  0.1288873E+00
          1   -1    0    0  501    0  0.00000000000E+00  0.00000000000E+00  0.10611690906E+04  0.10611690906E+04  0.00000000000E+00 0. -1.
         -1   -1    0    0    0  501 -0.00000000000E+00 -0.00000000000E+00 -0.10976935557E+02  0.10976935557E+02  0.00000000000E+00 0.  1.
         23    2    1    2    0    0 -0.20315373410E+02  0.13506017077E+02  0.27044211831E+03  0.28643661809E+03  0.91169457215E+02 0.  0.
         23    2    1    2    0    0  0.20315373410E+02 -0.13506017077E+02  0.77975003675E+03  0.78570940809E+03  0.93456017768E+02 0.  0.
          5    1    3    3  502    0 -0.22329085744E+02  0.43335568831E+02  0.23397906712E+03  0.23904989740E+03  0.47000000000E+01 0. -1.
         -5    1    4    4    0  503 -0.37019425810E+02 -0.11401500414E+02  0.31775523703E+03  0.32014201967E+03  0.47000000000E+01 0.  1.
          5    1    4    4  503    0  0.57334799220E+02 -0.21045166626E+01  0.46199479971E+03  0.46556738841E+03  0.47000000000E+01 0. -1.
         -5    1    3    3    0  502  0.20137123342E+01 -0.29829551754E+02  0.36463051196E+02  0.47386720690E+02  0.47000000000E+01 0.  1.
<mgrwt>
<rscale>  0 0.96030074E+02</rscale>
<asrwt>0</asrwt>
<pdfrwt beam="1">  1        1 0.16325670E+00 0.96587547E+02</pdfrwt>
<pdfrwt beam="2">  1       -1 0.16887602E-02 0.96587547E+02</pdfrwt>
<totfact> 0.11906143E+04</totfact>
</mgrwt>
</event>
<event>
 8    1  0.6396648E-004  0.1003711E+03  0.7546771E-02  0.1280051E+00
         -2   -1    0    0    0  501 -0.00000000000E+00  0.00000000000E+00  0.99455835482E+03  0.99455835482E+03  0.00000000000E+00 0.  1.
          2   -1    0    0  501    0  0.00000000000E+00 -0.00000000000E+00 -0.10043383448E+02  0.10043383448E+02  0.00000000000E+00 0. -1.
         23    2    1    2    0    0 -0.75037551756E+01 -0.38093480487E+02  0.46967641601E+03  0.48007042397E+03  0.91456309883E+02 0.  0.
         23    2    1    2    0    0  0.75037551756E+01  0.38093480487E+02  0.51483855536E+03  0.52453131429E+03  0.92557776521E+02 0.  0.
          5    1    3    3  502    0 -0.37526608321E+02  0.10446636372E+02  0.24959667678E+03  0.25266176917E+03  0.47000000000E+01 0. -1.
         -5    1    4    4    0  503  0.20565384429E+02  0.65917859137E+02  0.34637927724E+03  0.35322626303E+03  0.47000000000E+01 0.  1.
          5    1    4    4  503    0 -0.13061629253E+02 -0.27824378649E+02  0.16845927812E+03  0.17130505127E+03  0.47000000000E+01 0. -1.
         -5    1    3    3    0  502  0.30022853145E+02 -0.48540116859E+02  0.22007973924E+03  0.22740865480E+03  0.47000000000E+01 0.  1.
<mgrwt>
<rscale>  0 0.10011645E+03</rscale>
<asrwt>0</asrwt>
<pdfrwt beam="1">  1        2 0.15451367E-02 0.10037112E+03</pdfrwt>
<pdfrwt beam="2">  1       -2 0.15300890E+00 0.10037112E+03</pdfrwt>
<totfact> 0.21995290E+03</totfact>
</mgrwt>
</event>
<event>
 8    1  0.6396648E-004  0.1051204E+03  0.7546771E-02  0.1272291E+00
          2   -1    0    0  501    0  0.00000000000E+00  0.00000000000E+00  0.18957037418E+03  0.18957037418E+03  0.00000000000E+00 0. -1.
         -2   -1    0    0    0  501 -0.00000000000E+00 -0.00000000000E+00 -0.11413266599E+03  0.11413266599E+03  0.00000000000E+00 0.  1.
         23    2    1    2    0    0 -0.41784456272E+02  0.25012204559E+02 -0.70516822456E+02  0.12658166905E+03  0.93159784919E+02 0.  0.
         23    2    1    2    0    0  0.41784456272E+02 -0.25012204559E+02  0.14595453065E+03  0.17712137112E+03  0.87736559810E+02 0.  0.
          5    1    3    3  502    0  0.19861641921E+02  0.34738498132E+02 -0.15227709048E+02  0.43072278731E+02  0.47000000000E+01 0. -1.
         -5    1    4    4    0  503  0.12741504642E+02 -0.36124994482E+02  0.13348027319E+02  0.40836515524E+02  0.47000000000E+01 0.  1.
          5    1    4    4  503    0  0.29042951631E+02  0.11112789923E+02  0.13260650333E+03  0.13628485559E+03  0.47000000000E+01 0. -1.
         -5    1    3    3    0  502 -0.61646098193E+02 -0.97262935727E+01 -0.55289113408E+02  0.83509390314E+02  0.47000000000E+01 0.  1.
<mgrwt>
<rscale>  0 0.10390582E+03</rscale>
<asrwt>0</asrwt>
<pdfrwt beam="1">  1        2 0.29164673E-01 0.10512039E+03</pdfrwt>
<pdfrwt beam="2">  1       -2 0.17558872E-01 0.10512039E+03</pdfrwt>
<totfact> 0.44800483E+03</totfact>
</mgrwt>
</event>
<event>
 8    1  0.6396648E-004  0.1328020E+03  0.7546771E-02  0.1225517E+00
          3   -1    0    0  501    0  0.00000000000E+00  0.00000000000E+00  0.22804159989E+03  0.22804159989E+03  0.00000000000E+00 0.  1.
         -3   -1    0    0    0  501 -0.00000000000E+00 -0.00000000000E+00 -0.74271075066E+02  0.74271075066E+02  0.00000000000E+00 0. -1.
         23    2    1    2    0    0  0.14649836637E+02 -0.88054250510E+02  0.88229668983E+02  0.15943915471E+03  0.98327009619E+02 0.  0.
         23    2    1    2    0    0 -0.14649836637E+02  0.88054250510E+02  0.65540855843E+02  0.14287352024E+03  0.90272200903E+02 0.  0.
          5    1    4    4  502    0 -0.39658473106E+02  0.52550579968E+02  0.23378313730E+01  0.66044783288E+02  0.47000000000E+01 0.  1.
         -5    1    3    3    0  503 -0.11481471261E+02 -0.34404580507E+02 -0.15463840227E+02  0.39707929897E+02  0.47000000000E+01 0. -1.
          5    1    3    3  503    0  0.26131307897E+02 -0.53649670004E+02  0.10369350921E+03  0.11973122482E+03  0.47000000000E+01 0. -1.
         -5    1    4    4    0  502  0.25008636469E+02  0.35503670542E+02  0.63203024470E+02  0.76828736956E+02  0.47000000000E+01 0.  1.
<mgrwt>
<rscale>  0 0.13131513E+03</rscale>
<asrwt>0</asrwt>
<pdfrwt beam="1">  1        3 0.35083323E-01 0.13280199E+03</pdfrwt>
<pdfrwt beam="2">  1       -3 0.11426319E-01 0.13280199E+03</pdfrwt>
<totfact> 0.10834556E+03</totfact>
</mgrwt>
</event>
<event>
 8    1  0.6396648E-004  0.1052899E+03  0.7546771E-02  0.1270747E+00
          1   -1    0    0  501    0  0.00000000000E+00  0.00000000000E+00  0.25262020984E+03  0.25262020984E+03  0.00000000000E+00 0. -1.
         -1   -1    0    0    0  501 -0.00000000000E+00 -0.00000000000E+00 -0.43225894990E+02  0.43225894990E+02  0.00000000000E+00 0.  1.
         23    2    1    2    0    0 -0.22916378657E+02  0.44314356395E+02  0.92762430787E+02  0.14032405601E+03  0.92720275762E+02 0.  0.
         23    2    1    2    0    0  0.22916378657E+02 -0.44314356395E+02  0.11663188407E+03  0.15552204882E+03  0.89973266555E+02 0.  0.
          5    1    4    4  502    0  0.73415714454E+01 -0.70894361732E+02  0.86420609147E+02  0.11211833428E+03  0.47000000000E+01 0. -1.
         -5    1    4    4    0  502  0.15574807212E+02  0.26580005337E+02  0.30211274920E+02  0.43403714538E+02  0.47000000000E+01 0.  1.
          5    1    3    3  503    0  0.14548242414E+02 -0.18765233486E+02  0.49298497492E+02  0.54920098326E+02  0.47000000000E+01 0. -1.
         -5    1    3    3    0  503 -0.37464621071E+02  0.63079589881E+02  0.43463933295E+02  0.85403957689E+02  0.47000000000E+01 0.  1.
<mgrwt>
<rscale>  0 0.10468199E+03</rscale>
<asrwt>0</asrwt>
<pdfrwt beam="1">  1        1 0.38864647E-01 0.10528994E+03</pdfrwt>
<pdfrwt beam="2">  1       -1 0.66501378E-02 0.10528994E+03</pdfrwt>
<totfact> 0.11474901E+04</totfact>
</mgrwt>
</event>
<event>
 8    1  0.6396648E-004  0.1121077E+03  0.7546771E-02  0.1260471E+00
         -1   -1    0    0    0  501 -0.00000000000E+00  0.00000000000E+00  0.50589884600E+02  0.50589884600E+02  0.00000000000E+00 0.  1.
          1   -1    0    0  501    0  0.00000000000E+00 -0.00000000000E+00 -0.68553522952E+03  0.68553522952E+03  0.00000000000E+00 0. -1.
         23    2    1    2    0    0  0.39903540289E+02  0.50361922423E+02 -0.13893627769E+02  0.10503608133E+03  0.81920264469E+02 0.  0.
         23    2    1    2    0    0 -0.39903540289E+02 -0.50361922423E+02 -0.62105171716E+03  0.63108903280E+03  0.91866839366E+02 0.  0.
          5    1    3    3  502    0 -0.17786042770E+02  0.41622682184E+02 -0.79807733595E+01  0.46201447305E+02  0.47000000000E+01 0. -1.
         -5    1    3    3    0  502  0.57689583059E+02  0.87392402390E+01 -0.59128544097E+01  0.58834634024E+02  0.47000000000E+01 0.  1.
          5    1    4    4  503    0 -0.68674058363E+02 -0.32172770737E+02 -0.47577500676E+03  0.48180406861E+03  0.47000000000E+01 0. -1.
         -5    1    4    4    0  503  0.28770518074E+02 -0.18189151686E+02 -0.14527671039E+03  0.14928496418E+03  0.47000000000E+01 0.  1.
<mgrwt>
<rscale>  0 0.11005326E+03</rscale>
<asrwt>0</asrwt>
<pdfrwt beam="1">  1        1 0.10546696E+00 0.11210768E+03</pdfrwt>
<pdfrwt beam="2">  1       -1 0.77830592E-02 0.11210768E+03</pdfrwt>
<totfact> 0.25464004E+03</totfact>
</mgrwt>
</event>
<event>
 7    1  0.6396648E-004  0.2178414E+03  0.7546771E-02  0.1155534E+00
         -1   -1    0    0    0  501 -0.00000000000E+00  0.00000000000E+00  0.33469898092E+02  0.33469898092E+02  0.00000000000E+00 0.  1.
          1   -1    0    0  501    0  0.00000000000E+00 -0.00000000000E+00 -0.97011745776E+03  0.97011745776E+03  0.00000000000E+00 0. -1.
         23    2    1    2    0    0  0.16638492396E+02 -0.98209099367E+02 -0.26353884818E+03  0.29610574613E+03  0.91126405403E+02 0.  0.
          5    1    1    2  502    0 -0.87900926163E+02  0.33484110731E+02 -0.16219020518E+03  0.18755135603E+03  0.47000000000E+01 0. -1.
         -5    1    3    3    0  503  0.40674924902E+02 -0.45121731499E+02 -0.64804694998E+02  0.88950315699E+02  0.47000000000E+01 0.  1.
          5    1    3    3  503    0 -0.24036432506E+02 -0.53087367869E+02 -0.19873415318E+03  0.20715543043E+03  0.47000000000E+01 0. -1.
         -5    1    1    2    0  502  0.71262433767E+02  0.64724988636E+02 -0.51091850631E+03  0.51993025370E+03  0.47000000000E+01 0.  1.
<mgrwt>
<rscale>  0 0.19328202E+03</rscale>
<asrwt>0</asrwt>
<pdfrwt beam="1">  1        1 0.14924884E+00 0.21784143E+03</pdfrwt>
<pdfrwt beam="2">  1       -1 0.51492152E-02 0.21784143E+03</pdfrwt>
<totfact> 0.28235329E+03</totfact>
</mgrwt>
</event>
<event>
 8    1  0.6396648E-004  0.1001706E+03  0.7546771E-02  0.1280524E+00
          1   -1    0    0  501    0  0.00000000000E+00  0.00000000000E+00  0.25439169827E+03  0.25439169827E+03  0.00000000000E+00 0. -1.
         -1   -1    0    0    0  501 -0.00000000000E+00 -0.00000000000E+00 -0.39124920644E+02  0.39124920644E+02  0.00000000000E+00 0.  1.
         23    2    1    2    0    0  0.39279589687E+02 -0.98864750815E+01  0.11507918378E+03  0.15184194662E+03  0.90399832185E+02 0.  0.
         23    2    1    2    0    0 -0.39279589687E+02  0.98864750815E+01  0.10018759384E+03  0.14167467229E+03  0.91616211735E+02 0.  0.
          5    1    4    4  502    0 -0.66079248689E+02 -0.92437198833E+01  0.65510492716E+02  0.93624933221E+02  0.47000000000E+01 0. -1.
         -5    1    4    4    0  502  0.26799659002E+02  0.19130194965E+02  0.34677101125E+02  0.48049739068E+02  0.47000000000E+01 0.  1.
          5    1    3    3  503    0  0.58445013878E+01  0.34348302878E+02  0.76312823580E+02  0.84022027766E+02  0.47000000000E+01 0. -1.
         -5    1    3    3    0  503  0.33435088300E+02 -0.44234777959E+02  0.38766360202E+02  0.67819918859E+02  0.47000000000E+01 0.  1.
<mgrwt>
<rscale>  0 0.99891665E+02</rscale>
<asrwt>0</asrwt>
<pdfrwt beam="1">  1        1 0.39137183E-01 0.10017065E+03</pdfrwt>
<pdfrwt beam="2">  1       -1 0.60192187E-02 0.10017065E+03</pdfrwt>
<totfact> 0.13128350E+04</totfact>
</mgrwt>
</event>
<event>
 8    1  0.6396648E-004  0.1284517E+03  0.7546771E-02  0.1230014E+00
         -1   -1    0    0    0  501 -0.00000000000E+00  0.00000000000E+00  0.71366891302E+02  0.71366891302E+02  0.00000000000E+00 0.  1.
          1   -1    0    0  501    0  0.00000000000E+00 -0.00000000000E+00 -0.23615093902E+03  0.23615093902E+03  0.00000000000E+00 0. -1.
         23    2    1    2    0    0 -0.89440830804E+02  0.43562239567E+01 -0.57865623377E+02  0.14088386756E+03  0.92093402960E+02 0.  0.
         23    2    1    2    0    0  0.89440830804E+02 -0.43562239567E+01 -0.10691842434E+03  0.16663396276E+03  0.91195883568E+02 0.  0.
          5    1    4    4  502    0  0.78863463911E+02  0.19872047195E+02 -0.11280495424E+03  0.13914521875E+03  0.47000000000E+01 0. -1.
         -5    1    3    3    0  503 -0.71101714471E+02 -0.38825366168E+02 -0.33249804717E+02  0.87695509421E+02  0.47000000000E+01 0.  1.
          5    1    3    3  503    0 -0.18339116332E+02  0.43181590125E+02 -0.24615818660E+02  0.53188358142E+02  0.47000000000E+01 0. -1.
         -5    1    4    4    0  502  0.10577366893E+02 -0.24228271152E+02  0.58865298926E+01  0.27488744016E+02  0.47000000000E+01 0.  1.
<mgrwt>
<rscale>  0 0.12829089E+03</rscale>
<asrwt>0</asrwt>
<pdfrwt beam="1">  1        1 0.36330914E-01 0.12845168E+03</pdfrwt>
<pdfrwt beam="2">  1       -1 0.10979522E-01 0.12845168E+03</pdfrwt>
<totfact> 0.59432947E+03</totfact>
</mgrwt>
</event>
<event>
 7    1  0.6396648E-004  0.1677215E+03  0.7546771E-02  0.1195922E+00
         -1   -1    0    0    0  501 -0.00000000000E+00  0.00000000000E+00  0.68425318681E+02  0.68425318681E+02  0.00000000000E+00 0.  1.
          1   -1    0    0  501    0  0.00000000000E+00 -0.00000000000E+00 -0.34208526480E+03  0.34208526480E+03  0.00000000000E+00 0. -1.
         23    2    1    2    0    0 -0.76513422003E+02  0.19903543404E+02 -0.44575422804E+02  0.12659121949E+03  0.88249157207E+02 0.  0.
          5    1    1    2  502    0  0.64499517049E+02  0.59092472077E+02 -0.11542008072E+03  0.14489994130E+03  0.47000000000E+01 0. -1.
         -5    1    1    2    0  502  0.12013904955E+02 -0.78996015481E+02 -0.11366444260E+03  0.13901942269E+03  0.47000000000E+01 0.  1.
          5    1    3    3  503    0 -0.21055750109E+02  0.49691110473E+02 -0.29523844792E+02  0.61695206329E+02  0.47000000000E+01 0. -1.
         -5    1    3    3    0  503 -0.55457671894E+02 -0.29787567069E+02 -0.15051578011E+02  0.64896013163E+02  0.47000000000E+01 0.  1.
<mgrwt>
<rscale>  0 0.15376449E+03</rscale>
<asrwt>0</asrwt>
<pdfrwt beam="1">  1        1 0.52628502E-01 0.16772145E+03</pdfrwt>
<pdfrwt beam="2">  1       -1 0.10526972E-01 0.16772145E+03</pdfrwt>
<totfact> 0.40623733E+03</totfact>
</mgrwt>
</event>
<event>
 8    1  0.6396648E-004  0.1022860E+03  0.7546771E-02  0.1276354E+00
          1   -1    0    0  501    0  0.00000000000E+00  0.00000000000E+00  0.11930736476E+04  0.11930736476E+04  0.00000000000E+00 0. -1.
         -1   -1    0    0    0  501 -0.00000000000E+00 -0.00000000000E+00 -0.86600746907E+01  0.86600746907E+01  0.00000000000E+00 0.  1.
         23    2    1    2    0    0  0.45045402776E+02  0.12374712148E+02  0.55712639925E+03  0.56616183275E+03  0.89259029282E+02 0.  0.
         23    2    1    2    0    0 -0.45045402776E+02 -0.12374712148E+02  0.62728717365E+03  0.63557188953E+03  0.90995641247E+02 0.  0.
          5    1    4    4  502    0 -0.59207828420E+02 -0.38155527526E+02  0.49240653360E+03  0.49744114783E+03  0.47000000000E+01 0. -1.
         -5    1    3    3    0  503  0.56818242023E+02  0.32482855770E+02  0.50000267620E+03  0.50428981227E+03  0.47000000000E+01 0.  1.
          5    1    3    3  503    0 -0.11772839246E+02 -0.20108143622E+02  0.57123723048E+02  0.61872020483E+02  0.47000000000E+01 0. -1.
         -5    1    4    4    0  502  0.14162425644E+02  0.25780815378E+02  0.13488064005E+03  0.13813074170E+03  0.47000000000E+01 0.  1.
<mgrwt>
<rscale>  0 0.10189836E+03</rscale>
<asrwt>0</asrwt>
<pdfrwt beam="1">  1        1 0.18354966E+00 0.10228601E+03</pdfrwt>
<pdfrwt beam="2">  1       -1 0.13323201E-02 0.10228601E+03</pdfrwt>
<totfact> 0.13582252E+04</totfact>
</mgrwt>
</event>
<event>
 8    1  0.6396648E-004  0.2638548E+03  0.7546771E-02  0.1104935E+00
          2   -1    0    0  501    0  0.00000000000E+00  0.00000000000E+00  0.32204726380E+03  0.32204726380E+03  0.00000000000E+00 0. -1.
         -2   -1    0    0    0  501 -0.00000000000E+00 -0.00000000000E+00 -0.23391116713E+03  0.23391116713E+03  0.00000000000E+00 0.  1.
         23    2    1    2    0    0 -0.19611583681E+02 -0.24681596874E+03 -0.33544331803E+02  0.26539781712E+03  0.89487666728E+02 0.  0.
         23    2    1    2    0    0  0.19611583681E+02  0.24681596874E+03  0.12168042847E+03  0.29056061381E+03  0.91195432925E+02 0.  0.
          5    1    4    4  502    0  0.38932632496E+02  0.18723183657E+03  0.12354009564E+03  0.22771858889E+03  0.47000000000E+01 0. -1.
         -5    1    3    3    0  503 -0.39942616393E+02 -0.16439565046E+03  0.10646613893E+02  0.16957825003E+03  0.47000000000E+01 0.  1.
          5    1    3    3  503    0  0.20331032711E+02 -0.82420318273E+02 -0.44190945696E+02  0.95819567088E+02  0.47000000000E+01 0. -1.
         -5    1    4    4    0  502 -0.19321048814E+02  0.59584132169E+02 -0.18596671649E+01  0.62842024916E+02  0.47000000000E+01 0.  1.
<mgrwt>
<rscale>  0 0.26370831E+03</rscale>
<asrwt>0</asrwt>
<pdfrwt beam="1">  1        2 0.49545733E-01 0.26385478E+03</pdfrwt>
<pdfrwt beam="2">  1       -2 0.35986333E-01 0.26385478E+03</pdfrwt>
<totfact> 0.73966605E+02</totfact>
</mgrwt>
</event>
<event>
 8    1  0.6396648E-004  0.9270573E+02  0.7546771E-02  0.1298149E+00
          1   -1    0    0  501    0  0.00000000000E+00  0.00000000000E+00  0.16266309467E+03  0.16266309467E+03  0.00000000000E+00 0. -1.
         -1   -1    0    0    0  501 -0.00000000000E+00 -0.00000000000E+00 -0.12883421731E+03  0.12883421731E+03  0.00000000000E+00 0.  1.
         23    2    1    2    0    0  0.11153231952E+02  0.11150023571E+02 -0.96332473543E+02  0.13169640635E+03  0.88404074438E+02 0.  0.
         23    2    1    2    0    0 -0.11153231952E+02 -0.11150023571E+02  0.13016135091E+03  0.15980090564E+03  0.91354444688E+02 0.  0.
          5    1    4    4  502    0 -0.46486614096E+02  0.42814462941E+01  0.40099515216E+02  0.61720314265E+02  0.47000000000E+01 0. -1.
         -5    1    4    4    0  502  0.35333382144E+02 -0.15431469865E+02  0.90061835690E+02  0.98080591371E+02  0.47000000000E+01 0.  1.
          5    1    3    3  503    0  0.10562552275E+02 -0.33598474957E+02 -0.72586985975E+02  0.80816988084E+02  0.47000000000E+01 0. -1.
         -5    1    3    3    0  503  0.59067967650E+00  0.44748498528E+02 -0.23745487568E+02  0.50879418263E+02  0.47000000000E+01 0.  1.
<mgrwt>
<rscale>  0 0.91970539E+02</rscale>
<asrwt>0</asrwt>
<pdfrwt beam="1">  1        1 0.25025092E-01 0.92705729E+02</pdfrwt>
<pdfrwt beam="2">  1       -1 0.19820649E-01 0.92705729E+02</pdfrwt>
<totfact> 0.36776048E+03</totfact>
</mgrwt>
</event>
<event>
 8    1  0.6396648E-004  0.1250255E+03  0.7546771E-02  0.1235995E+00
         -1   -1    0    0    0  501 -0.00000000000E+00  0.00000000000E+00  0.21057698443E+02  0.21057698443E+02  0.00000000000E+00 0.  1.
          1   -1    0    0  501    0  0.00000000000E+00 -0.00000000000E+00 -0.93748398009E+03  0.93748398009E+03  0.00000000000E+00 0. -1.
         23    2    1    2    0    0  0.74136845363E+02  0.42251406327E+02 -0.23510408702E+03  0.26628048249E+03  0.91377844396E+02 0.  0.
         23    2    1    2    0    0 -0.74136845363E+02 -0.42251406327E+02 -0.68132219463E+03  0.69226119604E+03  0.88001008370E+02 0.  0.
          5    1    4    4  502    0  0.19753114554E+02 -0.41844123263E+01 -0.13887784475E+03  0.14041666782E+03  0.47000000000E+01 0. -1.
         -5    1    4    4    0  502 -0.93889959917E+02 -0.38066994000E+02 -0.54244434988E+03  0.55184452822E+03  0.47000000000E+01 0.  1.
          5    1    3    3  503    0  0.10360511175E+02 -0.20165426648E+02 -0.11077688620E+03  0.11317063727E+03  0.47000000000E+01 0. -1.
         -5    1    3    3    0  503  0.63776334187E+02  0.62416832975E+02 -0.12432720082E+03  0.15310984522E+03  0.47000000000E+01 0.  1.
<mgrwt>
<rscale>  0 0.12440932E+03</rscale>
<asrwt>0</asrwt>
<pdfrwt beam="1">  1        1 0.14422831E+00 0.12502545E+03</pdfrwt>
<pdfrwt beam="2">  1       -1 0.32396457E-02 0.12502545E+03</pdfrwt>
<totfact> 0.58191847E+03</totfact>
</mgrwt>
</event>
<event>
 8    1  0.6396648E-004  0.1117714E+03  0.7546771E-02  0.1259716E+00
          1   -1    0    0  501    0  0.00000000000E+00  0.00000000000E+00  0.11121983562E+04  0.11121983562E+04  0.00000000000E+00 0. -1.
         -1   -1    0    0    0  501 -0.00000000000E+00 -0.00000000000E+00 -0.11032447888E+02  0.11032447888E+02  0.00000000000E+00 0.  1.
         23    2    1    2    0    0 -0.12245151174E+01 -0.58544776748E+02  0.46892509784E+03  0.48206180417E+03  0.95204229595E+02 0.  0.
         23    2    1    2    0    0  0.12245151174E+01  0.58544776748E+02  0.63224081047E+03  0.64116899992E+03  0.89108101252E+02 0.  0.
          5    1    3    3  502    0  0.19176387496E+02  0.21297254882E+02  0.11012614264E+03  0.11389101894E+03  0.47000000000E+01 0. -1.
         -5    1    3    3    0  502 -0.20400902613E+02 -0.79842031629E+02  0.35879895520E+03  0.36817078523E+03  0.47000000000E+01 0.  1.
          5    1    4    4  503    0  0.42907377873E+02  0.45330810131E+02  0.36128118221E+03  0.36666348065E+03  0.47000000000E+01 0. -1.
         -5    1    4    4    0  503 -0.41682862756E+02  0.13213966617E+02  0.27095962826E+03  0.27450551927E+03  0.47000000000E+01 0.  1.
<mgrwt>
<rscale>  0 0.11046236E+03</rscale>
<asrwt>0</asrwt>
<pdfrwt beam="1">  1        1 0.17110735E+00 0.11177135E+03</pdfrwt>
<pdfrwt beam="2">  1       -1 0.16973006E-02 0.11177135E+03</pdfrwt>
<totfact> 0.10993168E+04</totfact>
</mgrwt>
</event>
<event>
 8    1  0.6396648E-004  0.1027092E+03  0.7546771E-02  0.1278639E+00
         -1   -1    0    0    0  501 -0.00000000000E+00  0.00000000000E+00  0.12022222249E+03  0.12022222249E+03  0.00000000000E+00 0.  1.
          1   -1    0    0  501    0  0.00000000000E+00 -0.00000000000E+00 -0.12921597811E+03  0.12921597811E+03  0.00000000000E+00 0. -1.
         23    2    1    2    0    0  0.17091887070E+02 -0.43441501257E+02 -0.80365086247E+02  0.13041370560E+03  0.91487107759E+02 0.  0.
         23    2    1    2    0    0 -0.17091887070E+02  0.43441501257E+02  0.71371330623E+02  0.11902449499E+03  0.83028109326E+02 0.  0.
          5    1    4    4  502    0 -0.49161299691E+02  0.27617989514E+02  0.29674827317E+02  0.63892660834E+02  0.47000000000E+01 0. -1.
         -5    1    4    4    0  502  0.32069412621E+02  0.15823511744E+02  0.41696503306E+02  0.55131834159E+02  0.47000000000E+01 0.  1.
          5    1    3    3  503    0 -0.25136568065E+02 -0.27635795885E+01 -0.64575332516E+02  0.69509337472E+02  0.47000000000E+01 0. -1.
         -5    1    3    3    0  503  0.42228455135E+02 -0.40677921669E+02 -0.15789753731E+02  0.60904368130E+02  0.47000000000E+01 0.  1.
<mgrwt>
<rscale>  0 0.10079193E+03</rscale>
<asrwt>0</asrwt>
<pdfrwt beam="1">  1        1 0.19879381E-01 0.10270924E+03</pdfrwt>
<pdfrwt beam="2">  1       -1 0.18495726E-01 0.10270924E+03</pdfrwt>
<totfact> 0.55102969E+03</totfact>
</mgrwt>
</event>
<event>
 8    1  0.6396648E-004  0.9462788E+02  0.7546771E-02  0.1292163E+00
         -1   -1    0    0    0  501 -0.00000000000E+00  0.00000000000E+00  0.48404080912E+02  0.48404080912E+02  0.00000000000E+00 0.  1.
          1   -1    0    0  501    0  0.00000000000E+00 -0.00000000000E+00 -0.32384894043E+03  0.32384894043E+03  0.00000000000E+00 0. -1.
         23    2    1    2    0    0 -0.20577174293E+02  0.14707827753E+02 -0.25971261685E+03  0.27632627845E+03  0.90916601950E+02 0.  0.
         23    2    1    2    0    0  0.20577174293E+02 -0.14707827753E+02 -0.15732242663E+02  0.95926742891E+02  0.91184956233E+02 0.  0.
          5    1    4    4  502    0 -0.65305043639E+01 -0.45423867537E+02 -0.26642754395E+02  0.53271958769E+02  0.47000000000E+01 0. -1.
         -5    1    3    3    0  503 -0.40020360853E+02  0.32868268736E+02 -0.85801905591E+02  0.10032950401E+03  0.47000000000E+01 0.  1.
          5    1    3    3  503    0  0.19443186560E+02 -0.18160440984E+02 -0.17391071126E+03  0.17599677444E+03  0.47000000000E+01 0. -1.
         -5    1    4    4    0  502  0.27107678657E+02  0.30716039785E+02  0.10910511732E+02  0.42654784122E+02  0.47000000000E+01 0.  1.
<mgrwt>
<rscale>  0 0.94563177E+02</rscale>
<asrwt>0</asrwt>
<pdfrwt beam="1">  1        1 0.49822913E-01 0.94627885E+02</pdfrwt>
<pdfrwt beam="2">  1       -1 0.74467818E-02 0.94627885E+02</pdfrwt>
<totfact> 0.70922610E+03</totfact>
</mgrwt>
</event>
<event>
 8    1  0.6396648E-004  0.1016087E+03  0.7546771E-02  0.1277482E+00
         -1   -1    0    0    0  501 -0.00000000000E+00  0.00000000000E+00  0.16334896939E+03  0.16334896939E+03  0.00000000000E+00 0.  1.
          1   -1    0    0  501    0  0.00000000000E+00 -0.00000000000E+00 -0.77573398881E+02  0.77573398881E+02  0.00000000000E+00 0. -1.
         23    2    1    2    0    0 -0.45778423216E+02  0.73624764590E+01  0.96048205121E+02  0.13981983157E+03  0.90412706534E+02 0.  0.
         23    2    1    2    0    0  0.45778423216E+02 -0.73624764590E+01 -0.10272634616E+02  0.10110253669E+03  0.89254276157E+02 0.  0.
          5    1    4    4  502    0  0.95007393367E+01 -0.34859780237E+02  0.24259027600E+02  0.43772808297E+02  0.47000000000E+01 0. -1.
         -5    1    3    3    0  503 -0.59510111842E+02 -0.73841073179E+01  0.10189003872E+03  0.11832011005E+03  0.47000000000E+01 0.  1.
          5    1    3    3  503    0  0.13731688626E+02  0.14746583777E+02 -0.58418336016E+01  0.21499721520E+02  0.47000000000E+01 0. -1.
         -5    1    4    4    0  502  0.36277683879E+02  0.27497303777E+02 -0.34531662216E+02  0.57329728397E+02  0.47000000000E+01 0.  1.
<mgrwt>
<rscale>  0 0.10135037E+03</rscale>
<asrwt>0</asrwt>
<pdfrwt beam="1">  1        1 0.11934369E-01 0.10160870E+03</pdfrwt>
<pdfrwt beam="2">  1       -1 0.25130611E-01 0.10160870E+03</pdfrwt>
<totfact> 0.64706797E+03</totfact>
</mgrwt>
</event>
<event>
 8    1  0.6396648E-004  0.1479966E+03  0.7546771E-02  0.1203943E+00
          2   -1    0    0  501    0  0.00000000000E+00  0.00000000000E+00  0.10087921208E+04  0.10087921208E+04  0.00000000000E+00 0. -1.
         -2   -1    0    0    0  501 -0.00000000000E+00 -0.00000000000E+00 -0.21434501745E+02  0.21434501745E+02  0.00000000000E+00 0.  1.
         23    2    1    2    0    0 -0.15635242465E+02 -0.11118437857E+03  0.53534292284E+03  0.55460041264E+03  0.91559520705E+02 0.  0.
         23    2    1    2    0    0  0.15635242465E+02  0.11118437857E+03  0.45201469619E+03  0.47562620987E+03  0.96418769441E+02 0.  0.
          5    1    3    3  502    0 -0.48581538919E+02 -0.87562915453E+02  0.31690217831E+03  0.33238006965E+03  0.47000000000E+01 0. -1.
         -5    1    3    3    0  502  0.32946296454E+02 -0.23621463114E+02  0.21844074453E+03  0.22222034299E+03  0.47000000000E+01 0.  1.
          5    1    4    4  503    0 -0.20624227768E+02  0.19961329763E+01  0.16519734261E+03  0.16655808393E+03  0.47000000000E+01 0. -1.
         -5    1    4    4    0  503  0.36259470233E+02  0.10918824559E+03  0.28681735358E+03  0.30906812594E+03  0.47000000000E+01 0.  1.
<mgrwt>
<rscale>  0 0.14721069E+03</rscale>
<asrwt>0</asrwt>
<pdfrwt beam="1">  1        2 0.15519875E+00 0.14799664E+03</pdfrwt>
<pdfrwt beam="2">  1       -2 0.32976164E-02 0.14799664E+03</pdfrwt>
<totfact> 0.92496859E+03</totfact>
</mgrwt>
</event>
<event>
 8    1  0.6396648E-004  0.1100783E+03  0.7546771E-02  0.1260556E+00
         -1   -1    0    0    0  501 -0.00000000000E+00  0.00000000000E+00  0.11755670736E+03  0.11755670736E+03  0.00000000000E+00 0.  1.
          1   -1    0    0  501    0  0.00000000000E+00 -0.00000000000E+00 -0.10707373390E+03  0.10707373390E+03  0.00000000000E+00 0. -1.
         23    2    1    2    0    0 -0.44493348854E+02 -0.36812806257E+02 -0.17163484124E+02  0.11140833807E+03  0.93714416223E+02 0.  0.
         23    2    1    2    0    0  0.44493348854E+02  0.36812806257E+02  0.27646457588E+02  0.11322210319E+03  0.93381353795E+02 0.  0.
          5    1    3    3  502    0  0.18562839342E+02 -0.19926657374E+02  0.21836956826E+02  0.35222057889E+02  0.47000000000E+01 0.  1.
         -5    1    4    4    0  503  0.19166306775E+02  0.18198971872E+02  0.61308346893E+02  0.66927970920E+02  0.47000000000E+01 0.  1.
          5    1    4    4  503    0  0.25327042079E+02  0.18613834385E+02 -0.33661889305E+02  0.46294132269E+02  0.47000000000E+01 0. -1.
         -5    1    3    3    0  502 -0.63056188196E+02 -0.16886148883E+02 -0.39000440950E+02  0.76186280183E+02  0.47000000000E+01 0. -1.
<mgrwt>
<rscale>  0 0.11000738E+03</rscale>
<asrwt>0</asrwt>
<pdfrwt beam="1">  1        1 0.16472882E-01 0.11007830E+03</pdfrwt>
<pdfrwt beam="2">  1       -1 0.18085647E-01 0.11007830E+03</pdfrwt>
<totfact> 0.72871730E+03</totfact>
</mgrwt>
</event>
<event>
 8    1  0.6396648E-004  0.1508140E+03  0.7546771E-02  0.1200456E+00
         -1   -1    0    0    0  501 -0.00000000000E+00  0.00000000000E+00  0.21565124680E+02  0.21565124680E+02  0.00000000000E+00 0.  1.
          1   -1    0    0  501    0  0.00000000000E+00 -0.00000000000E+00 -0.11015936296E+04  0.11015936296E+04  0.00000000000E+00 0. -1.
         23    2    1    2    0    0 -0.36496610647E+02 -0.10947987424E+03 -0.67514423575E+03  0.69109840536E+03  0.92083773690E+02 0.  0.
         23    2    1    2    0    0  0.36496610647E+02  0.10947987424E+03 -0.40488426916E+03  0.43206034890E+03  0.97092884550E+02 0.  0.
          5    1    3    3  502    0 -0.58750935826E+02 -0.93179226986E+02 -0.61445555318E+03  0.62426897859E+03  0.47000000000E+01 0. -1.
         -5    1    4    4    0  503  0.63338020071E+02  0.43421427024E+02 -0.17116280775E+03  0.18765905752E+03  0.47000000000E+01 0.  1.
          5    1    4    4  503    0 -0.26841409424E+02  0.66058447221E+02 -0.23372146140E+03  0.24440129138E+03  0.47000000000E+01 0. -1.
         -5    1    3    3    0  502  0.22254325179E+02 -0.16300647258E+02 -0.60688682570E+02  0.66829426769E+02  0.47000000000E+01 0.  1.
<mgrwt>
<rscale>  0 0.15001393E+03</rscale>
<asrwt>0</asrwt>
<pdfrwt beam="1">  1        1 0.16947589E+00 0.15081404E+03</pdfrwt>
<pdfrwt beam="2">  1       -1 0.33177125E-02 0.15081404E+03</pdfrwt>
<totfact> 0.43013999E+03</totfact>
</mgrwt>
</event>
<event>
 8    1  0.6396648E-004  0.9558725E+02  0.7546771E-02  0.1293380E+00
         -1   -1    0    0    0  501 -0.00000000000E+00  0.00000000000E+00  0.23013728621E+02  0.23013728621E+02  0.00000000000E+00 0.  1.
          1   -1    0    0  501    0  0.00000000000E+00 -0.00000000000E+00 -0.37895486652E+03  0.37895486652E+03  0.00000000000E+00 0. -1.
         23    2    1    2    0    0  0.19555702347E+02  0.70911289595E+01 -0.14530479206E+03  0.17065799654E+03  0.87051476633E+02 0.  0.
         23    2    1    2    0    0 -0.19555702347E+02 -0.70911289595E+01 -0.21063634584E+03  0.23131059860E+03  0.93296373092E+02 0.  0.
          5    1    4    4  502    0  0.13236094062E+02  0.35263203328E+02 -0.12068107804E+03  0.12650968458E+03  0.47000000000E+01 0. -1.
         -5    1    3    3    0  503  0.13493010176E+02 -0.39600326032E+02 -0.64691834327E+02  0.77184004651E+02  0.47000000000E+01 0.  1.
          5    1    3    3  503    0  0.60626921707E+01  0.46691454991E+02 -0.80612957735E+02  0.93473991892E+02  0.47000000000E+01 0. -1.
         -5    1    4    4    0  502 -0.32791796408E+02 -0.42354332287E+02 -0.89955267801E+02  0.10480091402E+03  0.47000000000E+01 0.  1.
<mgrwt>
<rscale>  0 0.94028300E+02</rscale>
<asrwt>0</asrwt>
<pdfrwt beam="1">  1        1 0.58300749E-01 0.95587252E+02</pdfrwt>
<pdfrwt beam="2">  1       -1 0.35405736E-02 0.95587252E+02</pdfrwt>
<totfact> 0.17412791E+04</totfact>
</mgrwt>
</event>
<event>
 8    1  0.6396648E-004  0.1062523E+03  0.7546771E-02  0.1270172E+00
          1   -1    0    0  501    0  0.00000000000E+00  0.00000000000E+00  0.68139671736E+03  0.68139671736E+03  0.00000000000E+00 0. -1.
         -1   -1    0    0    0  501 -0.00000000000E+00 -0.00000000000E+00 -0.22582981465E+02  0.22582981465E+02  0.00000000000E+00 0.  1.
         23    2    1    2    0    0  0.40723736755E+02 -0.13799791194E+02  0.52793744602E+03  0.53852344530E+03  0.97163250562E+02 0.  0.
         23    2    1    2    0    0 -0.40723736755E+02  0.13799791194E+02  0.13087628988E+03  0.16545625353E+03  0.91642302491E+02 0.  0.
          5    1    3    3  502    0  0.94033431455E+01 -0.46792298755E+02  0.39581031448E+03  0.39870520079E+03  0.47000000000E+01 0. -1.
         -5    1    3    3    0  502  0.31320393609E+02  0.32992507561E+02  0.13212713153E+03  0.13981824451E+03  0.47000000000E+01 0.  1.
          5    1    4    4  503    0  0.41511165775E+01 -0.34538934711E+02  0.45307000568E+02  0.57314780644E+02  0.47000000000E+01 0. -1.
         -5    1    4    4    0  503 -0.44874853332E+02  0.48338725905E+02  0.85569289313E+02  0.10814147288E+03  0.47000000000E+01 0.  1.
<mgrwt>
<rscale>  0 0.10497340E+03</rscale>
<asrwt>0</asrwt>
<pdfrwt beam="1">  1        1 0.10483025E+00 0.10625231E+03</pdfrwt>
<pdfrwt beam="2">  1       -1 0.34743054E-02 0.10625231E+03</pdfrwt>
<totfact> 0.84080976E+03</totfact>
</mgrwt>
</event>
<event>
 8    1  0.6396648E-004  0.9811704E+02  0.7546771E-02  0.1285592E+00
          1   -1    0    0  501    0  0.00000000000E+00  0.00000000000E+00  0.64628286058E+03  0.64628286058E+03  0.00000000000E+00 0. -1.
         -1   -1    0    0    0  501 -0.00000000000E+00 -0.00000000000E+00 -0.29054864256E+02  0.29054864256E+02  0.00000000000E+00 0.  1.
         23    2    1    2    0    0 -0.22551467605E+02 -0.27260535536E+02  0.71839057243E+02  0.12160511704E+03  0.91516385723E+02 0.  0.
         23    2    1    2    0    0  0.22551467605E+02  0.27260535536E+02  0.54538893908E+03  0.55373260780E+03  0.88988766575E+02 0.  0.
          5    1    3    3  502    0 -0.22288462057E+02  0.14307503816E+02  0.74974634336E+02  0.79654039447E+02  0.47000000000E+01 0. -1.
         -5    1    3    3    0  502 -0.26300554756E+00 -0.41568039352E+02 -0.31355770929E+01  0.41951077593E+02  0.47000000000E+01 0.  1.
          5    1    4    4  503    0  0.46494891030E+02  0.43708291314E+02  0.42555369039E+03  0.43033733631E+03  0.47000000000E+01 0. -1.
         -5    1    4    4    0  503 -0.23943423425E+02 -0.16447755778E+02  0.11983524870E+03  0.12339527149E+03  0.47000000000E+01 0.  1.
<mgrwt>
<rscale>  0 0.97523367E+02</rscale>
<asrwt>0</asrwt>
<pdfrwt beam="1">  1        1 0.99428122E-01 0.98117044E+02</pdfrwt>
<pdfrwt beam="2">  1       -1 0.44699796E-02 0.98117044E+02</pdfrwt>
<totfact> 0.62368329E+03</totfact>
</mgrwt>
</event>
<event>
 8    1  0.6396648E-004  0.1344540E+03  0.7546771E-02  0.1234956E+00
          4   -1    0    0  501    0  0.00000000000E+00  0.00000000000E+00  0.43859907898E+02  0.43859907898E+02  0.00000000000E+00 0. -1.
         -4   -1    0    0    0  501 -0.00000000000E+00 -0.00000000000E+00 -0.38439458502E+03  0.38439458502E+03  0.00000000000E+00 0.  1.
         23    2    1    2    0    0  0.12699411657E+02 -0.42448254208E+02 -0.24033719372E+03  0.26057200687E+03  0.90402846936E+02 0.  0.
         23    2    1    2    0    0 -0.12699411657E+02  0.42448254208E+02 -0.10019748340E+03  0.16768248605E+03  0.12694388960E+03 0.  0.
          5    1    3    3  502    0  0.16292822618E+02  0.25026721497E+02 -0.48733726318E+02  0.57348573989E+02  0.47000000000E+01 0. -1.
         -5    1    3    3    0  502 -0.35934109614E+01 -0.67474975705E+02 -0.19160346741E+03  0.20322343288E+03  0.47000000000E+01 0.  1.
          5    1    4    4  503    0  0.14062115982E+01  0.69357485523E+02 -0.73982308324E+01  0.69923258280E+02  0.47000000000E+01 0. -1.
         -5    1    4    4    0  503 -0.14105623255E+02 -0.26909231315E+02 -0.92799252565E+02  0.97759227769E+02  0.47000000000E+01 0.  1.
<mgrwt>
<rscale>  0 0.12507272E+03</rscale>
<asrwt>0</asrwt>
<pdfrwt beam="1">  1        4 0.67476784E-02 0.13445401E+03</pdfrwt>
<pdfrwt beam="2">  1       -4 0.59137626E-01 0.13445401E+03</pdfrwt>
<totfact> 0.66246631E+02</totfact>
</mgrwt>
</event>
<event>
 7    1  0.6396648E-004  0.1669749E+03  0.7546771E-02  0.1198275E+00
         -3   -1    0    0    0  501 -0.00000000000E+00  0.00000000000E+00  0.48820832640E+03  0.48820832640E+03  0.00000000000E+00 0.  1.
          3   -1    0    0  501    0  0.00000000000E+00 -0.00000000000E+00 -0.16833282680E+03  0.16833282680E+03  0.00000000000E+00 0. -1.
         23    2    1    2    0    0  0.51300279747E+02 -0.16578063586E+02 -0.13220358821E+03  0.17461158586E+03  0.10052296398E+03 0.  0.
          5    1    1    2  502    0  0.33633329255E+02 -0.25237528917E+02  0.37131109729E+02  0.56293365615E+02  0.47000000000E+01 0. -1.
         -5    1    1    2    0  502 -0.84933609002E+02  0.41815592503E+02  0.41494797807E+03  0.42563620172E+03  0.47000000000E+01 0.  1.
          5    1    3    3  503    0  0.17383768433E+02  0.41329169669E+02 -0.68218851955E+02  0.81769171651E+02  0.47000000000E+01 0. -1.
         -5    1    3    3    0  503  0.33916511315E+02 -0.57907233255E+02 -0.63984736252E+02  0.92842414209E+02  0.47000000000E+01 0.  1.
<mgrwt>
<rscale>  0 0.15180249E+03</rscale>
<asrwt>0</asrwt>
<pdfrwt beam="1">  1        3 0.25897358E-01 0.16697487E+03</pdfrwt>
<pdfrwt beam="2">  1       -3 0.75108972E-01 0.16697487E+03</pdfrwt>
<totfact> 0.57980167E+01</totfact>
</mgrwt>
</event>
<event>
 8    1  0.6396648E-004  0.1063779E+03  0.7546771E-02  0.1272081E+00
          1   -1    0    0  501    0  0.00000000000E+00  0.00000000000E+00  0.42963510582E+03  0.42963510582E+03  0.00000000000E+00 0. -1.
         -1   -1    0    0    0  501 -0.00000000000E+00 -0.00000000000E+00 -0.24583560111E+02  0.24583560111E+02  0.00000000000E+00 0.  1.
         23    2    1    2    0    0 -0.15239821704E+01  0.48202768318E+02  0.24259993998E+03  0.26489806931E+03  0.94817861453E+02 0.  0.
         23    2    1    2    0    0  0.15239821704E+01 -0.48202768318E+02  0.16245160572E+03  0.18932059662E+03  0.84415251617E+02 0.  0.
          5    1    4    4  502    0 -0.26937164742E+02 -0.51978057292E+02  0.14226202843E+03  0.15390875225E+03  0.47000000000E+01 0. -1.
         -5    1    3    3    0  503 -0.12712001684E+02  0.75297284516E+02  0.18156150395E+03  0.19702270367E+03  0.47000000000E+01 0.  1.
          5    1    3    3  503    0  0.11188019513E+02 -0.27094516198E+02  0.61038436029E+02  0.67875365645E+02  0.47000000000E+01 0. -1.
         -5    1    4    4    0  502  0.28461146913E+02  0.37752889739E+01  0.20189577290E+02  0.35411844369E+02  0.47000000000E+01 0.  1.
<mgrwt>
<rscale>  0 0.10401061E+03</rscale>
<asrwt>0</asrwt>
<pdfrwt beam="1">  1        1 0.66097703E-01 0.10637789E+03</pdfrwt>
<pdfrwt beam="2">  1       -1 0.37820865E-02 0.10637789E+03</pdfrwt>
<totfact> 0.13661070E+04</totfact>
</mgrwt>
</event>
<event>
 7    1  0.6396648E-004  0.2332295E+03  0.7546771E-02  0.1154220E+00
          2   -1    0    0  501    0  0.00000000000E+00  0.00000000000E+00  0.86512465384E+02  0.86512465384E+02  0.00000000000E+00 0. -1.
         -2   -1    0    0    0  501 -0.00000000000E+00 -0.00000000000E+00 -0.51924257822E+03  0.51924257822E+03  0.00000000000E+00 0.  1.
         23    2    1    2    0    0  0.20245879650E+02  0.69831043102E+02 -0.33354244520E+03  0.35231042731E+03  0.87096522430E+02 0.  0.
          5    1    3    3  502    0 -0.52432062759E+01  0.46437068498E+02 -0.30079969643E+03  0.30444447755E+03  0.47000000000E+01 0. -1.
         -5    1    1    2    0  503 -0.39063625232E+01  0.71578163148E+02 -0.83508590897E+02  0.11015656068E+03  0.47000000000E+01 0.  1.
          5    1    1    2  503    0 -0.16339517127E+02 -0.14140920625E+03 -0.15679076737E+02  0.14328805561E+03  0.47000000000E+01 0. -1.
         -5    1    3    3    0  502  0.25489085926E+02  0.23393974603E+02 -0.32742748775E+02  0.47865949760E+02  0.47000000000E+01 0.  1.
<mgrwt>
<rscale>  0 0.19477967E+03</rscale>
<asrwt>0</asrwt>
<pdfrwt beam="1">  1        2 0.13309610E-01 0.23322946E+03</pdfrwt>
<pdfrwt beam="2">  1       -2 0.79883474E-01 0.23322946E+03</pdfrwt>
<totfact> 0.64192610E+02</totfact>
</mgrwt>
</event>
<event>
 8    1  0.6396648E-004  0.9379258E+02  0.7546771E-02  0.1295389E+00
          3   -1    0    0  501    0  0.00000000000E+00  0.00000000000E+00  0.24188398070E+03  0.24188398070E+03  0.00000000000E+00 0. -1.
         -3   -1    0    0    0  501 -0.00000000000E+00 -0.00000000000E+00 -0.79874713344E+02  0.79874713344E+02  0.00000000000E+00 0.  1.
         23    2    1    2    0    0 -0.22504927476E+00 -0.18912824933E+02  0.20154401898E+03  0.22229943491E+03  0.91865671414E+02 0.  0.
         23    2    1    2    0    0  0.22504927476E+00  0.18912824933E+02 -0.39534751622E+02  0.99459259128E+02  0.89282708552E+02 0.  0.
          5    1    3    3  502    0 -0.42310509616E+02  0.52394319505E+01  0.11823865422E+03  0.12577797988E+03  0.47000000000E+01 0. -1.
         -5    1    4    4    0  503 -0.42581610995E+01  0.44773675748E+02  0.70660433828E+01  0.45769345036E+02  0.47000000000E+01 0.  1.
          5    1    4    4  503    0  0.44832103743E+01 -0.25860850815E+02 -0.46600795004E+02  0.53689914092E+02  0.47000000000E+01 0. -1.
         -5    1    3    3    0  502  0.42085460341E+02 -0.24152256884E+02  0.83305364752E+02  0.96521455031E+02  0.47000000000E+01 0.  1.
<mgrwt>
<rscale>  0 0.93153980E+02</rscale>
<asrwt>0</asrwt>
<pdfrwt beam="1">  1        3 0.37212920E-01 0.93792575E+02</pdfrwt>
<pdfrwt beam="2">  1       -3 0.12288418E-01 0.93792575E+02</pdfrwt>
<totfact> 0.80948627E+02</totfact>
</mgrwt>
</event>
<event>
 8    1  0.6396648E-004  0.1210486E+03  0.7546771E-02  0.1248134E+00
          2   -1    0    0  501    0  0.00000000000E+00  0.00000000000E+00  0.39129876200E+03  0.39129876200E+03  0.00000000000E+00 0. -1.
         -2   -1    0    0    0  501 -0.00000000000E+00 -0.00000000000E+00 -0.96661050740E+02  0.96661050740E+02  0.00000000000E+00 0.  1.
         23    2    1    2    0    0 -0.83293455260E+02  0.74054092544E+01 -0.47386283638E+02  0.12999315758E+03  0.87522119294E+02 0.  0.
         23    2    1    2    0    0  0.83293455260E+02 -0.74054092544E+01  0.34202399490E+03  0.35796665516E+03  0.64552872470E+02 0.  0.
          5    1    3    3  502    0  0.73913970052E+01 -0.23520623625E+02 -0.10826835337E+02  0.27334279738E+02  0.47000000000E+01 0. -1.
         -5    1    3    3    0  502 -0.90684852265E+02  0.30926032879E+02 -0.36559448301E+02  0.10265887784E+03  0.47000000000E+01 0.  1.
          5    1    4    4  503    0  0.28002456490E+02 -0.22802843049E+02  0.60513097998E+02  0.70626002647E+02  0.47000000000E+01 0.  1.
         -5    1    4    4    0  503  0.55290998770E+02  0.15397433794E+02  0.28151089690E+03  0.28734065251E+03  0.47000000000E+01 0. -1.
<mgrwt>
<rscale>  0 0.11699746E+03</rscale>
<asrwt>0</asrwt>
<pdfrwt beam="1">  1        2 0.60199808E-01 0.12104859E+03</pdfrwt>
<pdfrwt beam="2">  1       -2 0.14870931E-01 0.12104859E+03</pdfrwt>
<totfact> 0.27497217E+03</totfact>
</mgrwt>
</event>
<event>
 8    1  0.6396648E-004  0.9796321E+02  0.7546771E-02  0.1285481E+00
         -1   -1    0    0    0  501 -0.00000000000E+00  0.00000000000E+00  0.45121367509E+02  0.45121367509E+02  0.00000000000E+00 0.  1.
          1   -1    0    0  501    0  0.00000000000E+00 -0.00000000000E+00 -0.46408365796E+03  0.46408365796E+03  0.00000000000E+00 0. -1.
         23    2    1    2    0    0 -0.31515623207E+02 -0.17330778332E+02 -0.20101486671E+02  0.98490121893E+02  0.89457498067E+02 0.  0.
         23    2    1    2    0    0  0.31515623207E+02  0.17330778332E+02 -0.39886080378E+03  0.41071490358E+03  0.91121901012E+02 0.  0.
          5    1    4    4  502    0  0.42318537763E+02 -0.22175165765E+02 -0.29655030512E+03  0.30041100194E+03  0.47000000000E+01 0. -1.
         -5    1    4    4    0  502 -0.10802914556E+02  0.39505944096E+02 -0.10231049866E+03  0.11030390164E+03  0.47000000000E+01 0. -1.
          5    1    3    3  503    0 -0.21057171269E+02  0.24887816538E+02  0.20506932805E+02  0.38799899059E+02  0.47000000000E+01 0. -1.
         -5    1    3    3    0  503 -0.10458451938E+02 -0.42218594870E+02 -0.40608419476E+02  0.59690222835E+02  0.47000000000E+01 0.  1.
<mgrwt>
<rscale>  0 0.97574346E+02</rscale>
<asrwt>0</asrwt>
<pdfrwt beam="1">  1        1 0.71397486E-01 0.97963214E+02</pdfrwt>
<pdfrwt beam="2">  1       -1 0.69417489E-02 0.97963214E+02</pdfrwt>
<totfact> 0.50437227E+03</totfact>
</mgrwt>
</event>
<event>
 8    1  0.6396648E-004  0.2125602E+03  0.7546771E-02  0.1140769E+00
          2   -1    0    0  501    0  0.00000000000E+00  0.00000000000E+00  0.15324526556E+04  0.15324526556E+04  0.00000000000E+00 0. -1.
         -2   -1    0    0    0  501 -0.00000000000E+00 -0.00000000000E+00 -0.37904429430E+02  0.37904429430E+02  0.00000000000E+00 0.  1.
         23    2    1    2    0    0  0.11277994078E+03  0.15522520808E+03  0.36736525235E+03  0.42442790604E+03  0.91474797197E+02 0.  0.
         23    2    1    2    0    0 -0.11277994078E+03 -0.15522520808E+03  0.11271829738E+04  0.11459291790E+04  0.76144904839E+02 0.  0.
          5    1    3    3  502    0  0.21676693635E+02 -0.72511685394E+01  0.22357955889E+02  0.32317590932E+02  0.47000000000E+01 0. -1.
         -5    1    3    3    0  502  0.91103247148E+02  0.16247637662E+03  0.34500729647E+03  0.39211031511E+03  0.47000000000E+01 0.  1.
          5    1    4    4  503    0 -0.10409293374E+03 -0.95740013411E+02  0.66947566703E+03  0.68426694189E+03  0.47000000000E+01 0. -1.
         -5    1    4    4    0  503 -0.86870070459E+01 -0.59485194668E+02  0.45770730677E+03  0.46166223708E+03  0.47000000000E+01 0.  1.
<mgrwt>
<rscale>  0 0.21101006E+03</rscale>
<asrwt>0</asrwt>
<pdfrwt beam="1">  1        2 0.23576190E+00 0.21256015E+03</pdfrwt>
<pdfrwt beam="2">  1       -2 0.58314519E-02 0.21256015E+03</pdfrwt>
<totfact> 0.20304769E+03</totfact>
</mgrwt>
</event>
<event>
 8    1  0.6396648E-004  0.1011296E+03  0.7546771E-02  0.1279552E+00
         -1   -1    0    0    0  501 -0.00000000000E+00  0.00000000000E+00  0.23789636628E+02  0.23789636628E+02  0.00000000000E+00 0.  1.
          1   -1    0    0  501    0  0.00000000000E+00 -0.00000000000E+00 -0.42332178664E+03  0.42332178664E+03  0.00000000000E+00 0. -1.
         23    2    1    2    0    0 -0.20482258567E+01 -0.42517877975E+02 -0.16935898998E+03  0.19570164720E+03  0.88344224791E+02 0.  0.
         23    2    1    2    0    0  0.20482258567E+01  0.42517877975E+02 -0.23017316003E+03  0.25140977607E+03  0.91734544887E+02 0.  0.
          5    1    3    3  502    0  0.92012289171E+01 -0.60298621952E+02 -0.65491801464E+02  0.89620602999E+02  0.47000000000E+01 0. -1.
         -5    1    4    4    0  503 -0.41989336152E+02  0.13416815891E+02 -0.71564296464E+02  0.84182265517E+02  0.47000000000E+01 0.  1.
          5    1    4    4  503    0  0.44037562009E+02  0.29101062084E+02 -0.15860886357E+03  0.16722751055E+03  0.47000000000E+01 0. -1.
         -5    1    3    3    0  502 -0.11249454774E+02  0.17780743977E+02 -0.10386718852E+03  0.10608104420E+03  0.47000000000E+01 0.  1.
<mgrwt>
<rscale>  0 0.10035447E+03</rscale>
<asrwt>0</asrwt>
<pdfrwt beam="1">  1        1 0.65126426E-01 0.10112958E+03</pdfrwt>
<pdfrwt beam="2">  1       -1 0.36599443E-02 0.10112958E+03</pdfrwt>
<totfact> 0.14532565E+04</totfact>
</mgrwt>
</event>
<event>
 8    1  0.6396648E-004  0.9902131E+02  0.7546771E-02  0.1282434E+00
         -2   -1    0    0    0  501 -0.00000000000E+00  0.00000000000E+00  0.39110974124E+03  0.39110974124E+03  0.00000000000E+00 0.  1.
          2   -1    0    0  501    0  0.00000000000E+00 -0.00000000000E+00 -0.25038803629E+02  0.25038803629E+02  0.00000000000E+00 0. -1.
         23    2    1    2    0    0  0.37437633982E+02 -0.54164533315E+01  0.18266844619E+03  0.20772183663E+03  0.91376615041E+02 0.  0.
         23    2    1    2    0    0 -0.37437633982E+02  0.54164533315E+01  0.18340249142E+03  0.20842670823E+03  0.91511225765E+02 0.  0.
          5    1    4    4  502    0 -0.30109608209E+02 -0.30730630246E+02  0.35659640370E+02  0.56077268953E+02  0.47000000000E+01 0. -1.
         -5    1    4    4    0  502 -0.73280257725E+01  0.36147083578E+02  0.14774285105E+03  0.15234943928E+03  0.47000000000E+01 0.  1.
          5    1    3    3  503    0 -0.30191210519E+02 -0.52110466759E+01  0.52872380975E+02  0.61288195193E+02  0.47000000000E+01 0. -1.
         -5    1    3    3    0  503  0.67628844500E+02 -0.20540665557E+00  0.12979606522E+03  0.14643364144E+03  0.47000000000E+01 0.  1.
<mgrwt>
<rscale>  0 0.98990193E+02</rscale>
<asrwt>0</asrwt>
<pdfrwt beam="1">  1        2 0.38521239E-02 0.99021305E+02</pdfrwt>
<pdfrwt beam="2">  1       -2 0.60170725E-01 0.99021305E+02</pdfrwt>
<totfact> 0.53924374E+03</totfact>
</mgrwt>
</event>
<event>
 8    1  0.6396648E-004  0.1596647E+03  0.7546771E-02  0.1189163E+00
          1   -1    0    0  501    0  0.00000000000E+00  0.00000000000E+00  0.13204482045E+03  0.13204482045E+03  0.00000000000E+00 0. -1.
         -1   -1    0    0    0  501 -0.00000000000E+00 -0.00000000000E+00 -0.54457377721E+03  0.54457377721E+03  0.00000000000E+00 0.  1.
         23    2    1    2    0    0  0.12175383690E+03  0.49184821367E+02  0.65612909268E+02  0.17262058129E+03  0.90827681736E+02 0.  0.
         23    2    1    2    0    0 -0.12175383690E+03 -0.49184821367E+02 -0.47814186602E+03  0.50399801637E+03  0.90284068424E+02 0.  0.
          5    1    3    3  502    0  0.54723206254E+02  0.64600011638E+02  0.12752322150E+02  0.85746734787E+02  0.47000000000E+01 0. -1.
         -5    1    3    3    0  502  0.67030630641E+02 -0.15415190271E+02  0.52860587119E+02  0.86873846500E+02  0.47000000000E+01 0.  1.
          5    1    4    4  503    0 -0.22289218327E+02 -0.40298448473E+02 -0.70967013996E+02  0.84730049442E+02  0.47000000000E+01 0. -1.
         -5    1    4    4    0  503 -0.99464618569E+02 -0.88863728943E+01 -0.40717485203E+03  0.41926796693E+03  0.47000000000E+01 0.  1.
<mgrwt>
<rscale>  0 0.15958747E+03</rscale>
<asrwt>0</asrwt>
<pdfrwt beam="1">  1        1 0.20314588E-01 0.15966468E+03</pdfrwt>
<pdfrwt beam="2">  1       -1 0.83780580E-01 0.15966468E+03</pdfrwt>
<totfact> 0.37323757E+02</totfact>
</mgrwt>
</event>
<event>
 8    1  0.6396648E-004  0.1313216E+03  0.7546771E-02  0.1230363E+00
         -1   -1    0    0    0  501 -0.00000000000E+00  0.00000000000E+00  0.10521494335E+04  0.10521494335E+04  0.00000000000E+00 0.  1.
          1   -1    0    0  501    0  0.00000000000E+00 -0.00000000000E+00 -0.18144147864E+02  0.18144147864E+02  0.00000000000E+00 0. -1.
         23    2    1    2    0    0  0.81550962444E+02  0.22994573229E+02  0.26826140598E+03  0.29337078031E+03  0.83204104043E+02 0.  0.
         23    2    1    2    0    0 -0.81550962444E+02 -0.22994573229E+02  0.76574387963E+03  0.77692280103E+03  0.10032965508E+03 0.  0.
          5    1    3    3  502    0  0.37051692483E+02  0.10961521653E+02  0.26214105092E+02  0.46928159761E+02  0.47000000000E+01 0. -1.
         -5    1    3    3    0  502  0.44499269961E+02  0.12033051575E+02  0.24204730088E+03  0.24644262055E+03  0.47000000000E+01 0.  1.
          5    1    4    4  503    0 -0.61744324191E+02  0.30555398716E+02  0.52141823911E+03  0.52597059237E+03  0.47000000000E+01 0. -1.
         -5    1    4    4    0  503 -0.19806638252E+02 -0.53549971945E+02  0.24432564052E+03  0.25095220866E+03  0.47000000000E+01 0.  1.
<mgrwt>
<rscale>  0 0.12805985E+03</rscale>
<asrwt>0</asrwt>
<pdfrwt beam="1">  1        1 0.27914082E-02 0.13132155E+03</pdfrwt>
<pdfrwt beam="2">  1       -1 0.16186910E+00 0.13132155E+03</pdfrwt>
<totfact> 0.11375228E+03</totfact>
</mgrwt>
</event>
<event>
 7    1  0.6821988E-004  0.1832772E+03  0.7546771E-02  0.1185589E+00
         -1   -1    0    0    0  501 -0.00000000000E+00  0.00000000000E+00  0.13100015658E+04  0.13100015658E+04  0.00000000000E+00 0.  1.
          1   -1    0    0  501    0  0.00000000000E+00 -0.00000000000E+00 -0.34575106775E+02  0.34575106775E+02  0.00000000000E+00 0. -1.
         23    2    1    2    0    0 -0.44098758561E+02 -0.53573623379E+02  0.90606963360E+02  0.14566559480E+03  0.90520771491E+02 0.  0.
          5    1    1    2  502    0 -0.64079426545E+02  0.35476505068E+02  0.49426033144E+03  0.49968001816E+03  0.47000000000E+01 0. -1.
         -5    1    1    2    0  502  0.10817818511E+03  0.18097118312E+02  0.69055916422E+03  0.69923105960E+03  0.47000000000E+01 0.  1.
          5    1    3    3  503    0 -0.55927065326E+02 -0.34771579258E+02  0.16352766261E+02  0.68017661856E+02  0.47000000000E+01 0. -1.
         -5    1    3    3    0  503  0.11828306764E+02 -0.18802044122E+02  0.74254197099E+02  0.77647932946E+02  0.47000000000E+01 0.  1.
<mgrwt>
<rscale>  0 0.16278380E+03</rscale>
<asrwt>0</asrwt>
<pdfrwt beam="1">  1        1 0.53192482E-02 0.18327721E+03</pdfrwt>
<pdfrwt beam="2">  1       -1 0.20153866E+00 0.18327721E+03</pdfrwt>
<totfact> 0.25014886E+02</totfact>
</mgrwt>
</event>
<event>
 8    1  0.6396648E-004  0.1063929E+03  0.7546771E-02  0.1269033E+00
         -1   -1    0    0    0  501 -0.00000000000E+00  0.00000000000E+00  0.73117110504E+02  0.73117110504E+02  0.00000000000E+00 0.  1.
          1   -1    0    0  501    0  0.00000000000E+00 -0.00000000000E+00 -0.15006399100E+03  0.15006399100E+03  0.00000000000E+00 0. -1.
         23    2    1    2    0    0 -0.44957080396E+02 -0.14312982036E+02 -0.37245880448E+02  0.11272399669E+03  0.95359547436E+02 0.  0.
         23    2    1    2    0    0  0.44957080396E+02  0.14312982036E+02 -0.39701000047E+02  0.11045710481E+03  0.91643887228E+02 0.  0.
          5    1    3    3  502    0  0.96748315796E+01 -0.22006212921E+02 -0.50200961128E+02  0.55857875644E+02  0.47000000000E+01 0. -1.
         -5    1    3    3    0  502 -0.54631911975E+02  0.76932308857E+01  0.12955080681E+02  0.56866121048E+02  0.47000000000E+01 0.  1.
          5    1    4    4  503    0  0.26751973422E+02  0.51637071114E+02 -0.10024589689E+02  0.59199979677E+02  0.47000000000E+01 0. -1.
         -5    1    4    4    0  503  0.18205106973E+02 -0.37324089079E+02 -0.29676410357E+02  0.51257125136E+02  0.47000000000E+01 0.  1.
<mgrwt>
<rscale>  0 0.10555371E+03</rscale>
<asrwt>0</asrwt>
<pdfrwt beam="1">  1        1 0.23086768E-01 0.10639287E+03</pdfrwt>
<pdfrwt beam="2">  1       -1 0.11248786E-01 0.10639287E+03</pdfrwt>
<totfact> 0.99116689E+03</totfact>
</mgrwt>
</event>
<event>
 8    1  0.6396648E-004  0.9772561E+02  0.7546771E-02  0.1286544E+00
          2   -1    0    0  501    0  0.00000000000E+00  0.00000000000E+00  0.17284863843E+03  0.17284863843E+03  0.00000000000E+00 0. -1.
         -2   -1    0    0    0  501 -0.00000000000E+00 -0.00000000000E+00 -0.11714424276E+03  0.11714424276E+03  0.00000000000E+00 0.  1.
         23    2    1    2    0    0 -0.13379040170E+02  0.31196845926E+02 -0.78907923409E+02  0.12364754351E+03  0.88938252336E+02 0.  0.
         23    2    1    2    0    0  0.13379040170E+02 -0.31196845926E+02  0.13461231907E+03  0.16634533768E+03  0.91640891582E+02 0.  0.
          5    1    3    3  502    0  0.23222815906E+02 -0.18525093031E+02 -0.11720632660E+02  0.32279118333E+02  0.47000000000E+01 0. -1.
         -5    1    3    3    0  502 -0.36601856076E+02  0.49721938956E+02 -0.67187290749E+02  0.91368425180E+02  0.47000000000E+01 0.  1.
          5    1    4    4  503    0  0.51396573215E+02 -0.27862094394E+02  0.71960554464E+02  0.92834882673E+02  0.47000000000E+01 0. -1.
         -5    1    4    4    0  503 -0.38017533045E+02 -0.33347515321E+01  0.62651764608E+02  0.73510455005E+02  0.47000000000E+01 0.  1.
<mgrwt>
<rscale>  0 0.97086943E+02</rscale>
<asrwt>0</asrwt>
<pdfrwt beam="1">  1        2 0.26592098E-01 0.97725610E+02</pdfrwt>
<pdfrwt beam="2">  1       -2 0.18022191E-01 0.97725610E+02</pdfrwt>
<totfact> 0.47180966E+03</totfact>
</mgrwt>
</event>
<event>
 8    1  0.6396648E-004  0.1262030E+03  0.7546771E-02  0.1233641E+00
          1   -1    0    0  501    0  0.00000000000E+00  0.00000000000E+00  0.34569334790E+03  0.34569334790E+03  0.00000000000E+00 0. -1.
         -1   -1    0    0    0  501 -0.00000000000E+00 -0.00000000000E+00 -0.55377802419E+02  0.55377802419E+02  0.00000000000E+00 0.  1.
         23    2    1    2    0    0 -0.28938873354E+02  0.81127151105E+02  0.22970344163E+03  0.26208942512E+03  0.92239485156E+02 0.  0.
         23    2    1    2    0    0  0.28938873354E+02 -0.81127151105E+02  0.60612103848E+02  0.13898172520E+03  0.90680867720E+02 0.  0.
          5    1    4    4  502    0 -0.53495540856E+00 -0.42355143241E+02  0.76472270859E+02  0.87546230910E+02  0.47000000000E+01 0. -1.
         -5    1    4    4    0  502  0.29473828762E+02 -0.38772007864E+02 -0.15860167011E+02  0.51435494294E+02  0.47000000000E+01 0.  1.
          5    1    3    3  503    0 -0.23372206406E+02  0.14572834100E+02  0.59952066318E+01  0.28577264189E+02  0.47000000000E+01 0. -1.
         -5    1    3    3    0  503 -0.55666669475E+01  0.66554317005E+02  0.22370823500E+03  0.23351216093E+03  0.47000000000E+01 0.  1.
<mgrwt>
<rscale>  0 0.12591837E+03</rscale>
<asrwt>0</asrwt>
<pdfrwt beam="1">  1        1 0.53183591E-01 0.12620299E+03</pdfrwt>
<pdfrwt beam="2">  1       -1 0.85196621E-02 0.12620299E+03</pdfrwt>
<totfact> 0.54523375E+03</totfact>
</mgrwt>
</event>
<event>
 8    1  0.6396648E-004  0.4140717E+03  0.7546771E-02  0.1039817E+00
          2   -1    0    0  501    0  0.00000000000E+00  0.00000000000E+00  0.26342997419E+04  0.26342997419E+04  0.00000000000E+00 0. -1.
         -2   -1    0    0    0  501 -0.00000000000E+00 -0.00000000000E+00 -0.65713772402E+02  0.65713772402E+02  0.00000000000E+00 0.  1.
         23    2    1    2    0    0  0.30844805238E+03 -0.24611298288E+03  0.10269453072E+04  0.11037330678E+04  0.88871928023E+02 0.  0.
         23    2    1    2    0    0 -0.30844805238E+03  0.24611298288E+03  0.15416406623E+04  0.15962804465E+04  0.12547322784E+03 0.  0.
          5    1    3    3  502    0  0.28659819139E+03 -0.24525417793E+03  0.99954412336E+03  0.10683626162E+04  0.47000000000E+01 0. -1.
         -5    1    4    4    0  503 -0.10456384861E+03  0.10503837010E+03  0.36848124687E+03  0.39719916531E+03  0.47000000000E+01 0.  1.
          5    1    4    4  503    0 -0.20388420377E+03  0.14107461278E+03  0.11731594154E+04  0.11990812812E+04  0.47000000000E+01 0.  1.
         -5    1    3    3    0  502  0.21849860990E+02 -0.85880495490E+00  0.27401183818E+02  0.35370451592E+02  0.47000000000E+01 0.  1.
<mgrwt>
<rscale>  0 0.41165449E+03</rscale>
<asrwt>0</asrwt>
<pdfrwt beam="1">  1        2 0.40527680E+00 0.41407165E+03</pdfrwt>
<pdfrwt beam="2">  1       -2 0.10109813E-01 0.41407165E+03</pdfrwt>
<totfact> 0.21376581E+02</totfact>
</mgrwt>
</event>
<event>
 8    1  0.6396648E-004  0.1453479E+03  0.7546771E-02  0.1207135E+00
          2   -1    0    0  501    0  0.00000000000E+00  0.00000000000E+00  0.47608809515E+03  0.47608809515E+03  0.00000000000E+00 0. -1.
         -2   -1    0    0    0  501 -0.00000000000E+00 -0.00000000000E+00 -0.62698738919E+02  0.62698738919E+02  0.00000000000E+00 0.  1.
         23    2    1    2    0    0  0.79281094757E+00  0.10971512179E+03  0.59280003394E+02  0.15697179417E+03  0.95330943894E+02 0.  0.
         23    2    1    2    0    0 -0.79281094757E+00 -0.10971512179E+03  0.35410935283E+03  0.38181503990E+03  0.91385198081E+02 0.  0.
          5    1    4    4  502    0  0.19531739007E+02 -0.11657152459E+03  0.26790047071E+03  0.29285348108E+03  0.47000000000E+01 0. -1.
         -5    1    3    3    0  503  0.37585974079E+01  0.84757084955E+02 -0.76595695032E+01  0.85315001667E+02  0.47000000000E+01 0.  1.
          5    1    3    3  503    0 -0.29657864603E+01  0.24958036835E+02  0.66939572897E+02  0.71656792501E+02  0.47000000000E+01 0. -1.
         -5    1    4    4    0  502 -0.20324549955E+02  0.68564027986E+01  0.86208882121E+02  0.88961558815E+02  0.47000000000E+01 0.  1.
<mgrwt>
<rscale>  0 0.14470447E+03</rscale>
<asrwt>0</asrwt>
<pdfrwt beam="1">  1        2 0.73244320E-01 0.14534795E+03</pdfrwt>
<pdfrwt beam="2">  1       -2 0.96459602E-02 0.14534795E+03</pdfrwt>
<totfact> 0.44809305E+03</totfact>
</mgrwt>
</event>
<event>
 8    1  0.6396648E-004  0.9412479E+02  0.7546771E-02  0.1294833E+00
         -1   -1    0    0    0  501 -0.00000000000E+00  0.00000000000E+00  0.16586286850E+02  0.16586286850E+02  0.00000000000E+00 0.  1.
          1   -1    0    0  501    0  0.00000000000E+00 -0.00000000000E+00 -0.65967123181E+03  0.65967123181E+03  0.00000000000E+00 0. -1.
         23    2    1    2    0    0 -0.93291087326E+01 -0.11253783528E+02 -0.16873113674E+03  0.19320888307E+03  0.92982773012E+02 0.  0.
         23    2    1    2    0    0  0.93291087326E+01  0.11253783528E+02 -0.47435380822E+03  0.48304863559E+03  0.90059808254E+02 0.  0.
          5    1    3    3  502    0  0.30045883745E+02 -0.32883927736E+02 -0.55624842716E+02  0.71416531423E+02  0.47000000000E+01 0.  1.
         -5    1    4    4    0  503  0.67528061073E+01 -0.35531857138E+02 -0.30819333809E+03  0.31034390102E+03  0.47000000000E+01 0.  1.
          5    1    4    4  503    0  0.25763026254E+01  0.46785640666E+02 -0.16616047013E+03  0.17270473457E+03  0.47000000000E+01 0. -1.
         -5    1    3    3    0  502 -0.39374992477E+02  0.21630144207E+02 -0.11310629403E+03  0.12179235165E+03  0.47000000000E+01 0. -1.
<mgrwt>
<rscale>  0 0.93394747E+02</rscale>
<asrwt>0</asrwt>
<pdfrwt beam="1">  1        1 0.10148786E+00 0.94124789E+02</pdfrwt>
<pdfrwt beam="2">  1       -1 0.25517370E-02 0.94124789E+02</pdfrwt>
<totfact> 0.13609334E+04</totfact>
</mgrwt>
</event>
<event>
 8    1  0.6396648E-004  0.1003785E+03  0.7546771E-02  0.1279824E+00
          1   -1    0    0  501    0  0.00000000000E+00  0.00000000000E+00  0.33044608271E+03  0.33044608271E+03  0.00000000000E+00 0. -1.
         -1   -1    0    0    0  501 -0.00000000000E+00 -0.00000000000E+00 -0.57918382591E+02  0.57918382591E+02  0.00000000000E+00 0.  1.
         23    2    1    2    0    0 -0.37506047435E+02 -0.10103681430E+01  0.24052872869E+01  0.10040731073E+03  0.93102729301E+02 0.  0.
         23    2    1    2    0    0  0.37506047435E+02  0.10103681430E+01  0.27012241283E+03  0.28795715457E+03  0.92441768245E+02 0.  0.
          5    1    4    4  502    0 -0.93792414723E+00  0.40493686737E+02  0.15445324995E+03  0.15974515576E+03  0.47000000000E+01 0. -1.
         -5    1    4    4    0  502  0.38443971582E+02 -0.39483318594E+02  0.11566916288E+03  0.12821199881E+03  0.47000000000E+01 0.  1.
          5    1    3    3  503    0  0.30329255908E+01  0.40134546131E+02 -0.85869723838E+01  0.41422295030E+02  0.47000000000E+01 0. -1.
         -5    1    3    3    0  503 -0.40538973025E+02 -0.41144914274E+02  0.10992259671E+02  0.58985015701E+02  0.47000000000E+01 0.  1.
<mgrwt>
<rscale>  0 0.10022496E+03</rscale>
<asrwt>0</asrwt>
<pdfrwt beam="1">  1        1 0.50837858E-01 0.10037850E+03</pdfrwt>
<pdfrwt beam="2">  1       -1 0.89105206E-02 0.10037850E+03</pdfrwt>
<totfact> 0.53111359E+03</totfact>
</mgrwt>
</event>
<event>
 8    1  0.6396648E-004  0.1075015E+03  0.7546771E-02  0.1268414E+00
          3   -1    0    0  501    0  0.00000000000E+00  0.00000000000E+00  0.92036269526E+02  0.92036269526E+02  0.00000000000E+00 0. -1.
         -3   -1    0    0    0  501 -0.00000000000E+00 -0.00000000000E+00 -0.11902678538E+03  0.11902678538E+03  0.00000000000E+00 0.  1.
         23    2    1    2    0    0 -0.17275664159E+02  0.50086573508E+02 -0.21735740111E+02  0.10343322988E+03  0.86132904442E+02 0.  0.
         23    2    1    2    0    0  0.17275664159E+02 -0.50086573508E+02 -0.52547757393E+01  0.10762982502E+03  0.93538511579E+02 0.  0.
          5    1    4    4  502    0 -0.14546194452E+02 -0.60873344422E+02 -0.25919068322E+02  0.67904668004E+02  0.47000000000E+01 0. -1.
         -5    1    3    3    0  503 -0.47447231387E+02  0.36920096813E+02  0.53573619862E+01  0.60540272897E+02  0.47000000000E+01 0.  1.
          5    1    3    3  503    0  0.30171567228E+02  0.13166476695E+02 -0.27093102097E+02  0.42892956984E+02  0.47000000000E+01 0. -1.
         -5    1    4    4    0  502  0.31821858611E+02  0.10786770913E+02  0.20664292582E+02  0.39725157018E+02  0.47000000000E+01 0.  1.
<mgrwt>
<rscale>  0 0.10587026E+03</rscale>
<asrwt>0</asrwt>
<pdfrwt beam="1">  1        3 0.14159426E-01 0.10750147E+03</pdfrwt>
<pdfrwt beam="2">  1       -3 0.18311813E-01 0.10750147E+03</pdfrwt>
<totfact> 0.23560607E+03</totfact>
</mgrwt>
</event>
<event>
 8    1  0.6396648E-004  0.1071794E+03  0.7546771E-02  0.1273201E+00
          2   -1    0    0  501    0  0.00000000000E+00  0.00000000000E+00  0.30502297382E+03  0.30502297382E+03  0.00000000000E+00 0. -1.
         -2   -1    0    0    0  501 -0.00000000000E+00 -0.00000000000E+00 -0.34274242439E+02  0.34274242439E+02  0.00000000000E+00 0.  1.
         23    2    1    2    0    0 -0.19040317817E+02  0.47393182898E+01  0.16067530138E+03  0.18566264141E+03  0.90934421989E+02 0.  0.
         23    2    1    2    0    0  0.19040317817E+02 -0.47393182898E+01  0.11007343000E+03  0.15363457485E+03  0.10536805852E+03 0.  0.
          5    1    4    4  502    0  0.29821746530E+02 -0.45587295056E+02  0.92885133818E+02  0.10778346868E+03  0.47000000000E+01 0. -1.
         -5    1    3    3    0  503  0.36621032760E-01  0.43968842378E+02  0.50790784589E+02  0.67342811349E+02  0.47000000000E+01 0.  1.
          5    1    3    3  503    0 -0.19076938850E+02 -0.39229524088E+02  0.10988451679E+03  0.11831983006E+03  0.47000000000E+01 0. -1.
         -5    1    4    4    0  502 -0.10781428713E+02  0.40847976766E+02  0.17188296185E+02  0.45851106167E+02  0.47000000000E+01 0.  1.
<mgrwt>
<rscale>  0 0.10345131E+03</rscale>
<asrwt>0</asrwt>
<pdfrwt beam="1">  1        2 0.46926609E-01 0.10717939E+03</pdfrwt>
<pdfrwt beam="2">  1       -2 0.52729606E-02 0.10717939E+03</pdfrwt>
<totfact> 0.17755358E+04</totfact>
</mgrwt>
</event>
<event>
 8    1  0.6396648E-004  0.1031276E+03  0.7546771E-02  0.1275096E+00
          2   -1    0    0  501    0  0.00000000000E+00  0.00000000000E+00  0.29406766634E+03  0.29406766634E+03  0.00000000000E+00 0. -1.
         -2   -1    0    0    0  501 -0.00000000000E+00 -0.00000000000E+00 -0.36879614624E+02  0.36879614624E+02  0.00000000000E+00 0.  1.
         23    2    1    2    0    0 -0.13483191126E+02 -0.40975860743E+02  0.16117036038E+03  0.19004061124E+03  0.90987533479E+02 0.  0.
         23    2    1    2    0    0  0.13483191126E+02  0.40975860743E+02  0.96017691333E+02  0.14090666972E+03  0.93672167245E+02 0.  0.
          5    1    3    3  502    0  0.29130638247E+02 -0.10465823104E+02  0.11768195658E+03  0.12177545090E+03  0.47000000000E+01 0. -1.
         -5    1    4    4    0  503  0.16794414262E+02  0.61157593715E+02  0.27570034915E+02  0.69314503854E+02  0.47000000000E+01 0.  1.
          5    1    4    4  503    0 -0.33112231357E+01 -0.20181732971E+02  0.68447656418E+02  0.71592165867E+02  0.47000000000E+01 0. -1.
         -5    1    3    3    0  502 -0.42613829373E+02 -0.30510037640E+02  0.43488403796E+02  0.68265160334E+02  0.47000000000E+01 0.  1.
<mgrwt>
<rscale>  0 0.10251404E+03</rscale>
<asrwt>0</asrwt>
<pdfrwt beam="1">  1        2 0.45241178E-01 0.10312755E+03</pdfrwt>
<pdfrwt beam="2">  1       -2 0.56737871E-02 0.10312755E+03</pdfrwt>
<totfact> 0.16470619E+04</totfact>
</mgrwt>
</event>
<event>
 8    1  0.6396648E-004  0.9580940E+02  0.7546771E-02  0.1290295E+00
         -1   -1    0    0    0  501 -0.00000000000E+00  0.00000000000E+00  0.21971701066E+03  0.21971701066E+03  0.00000000000E+00 0.  1.
          1   -1    0    0  501    0  0.00000000000E+00 -0.00000000000E+00 -0.47583548323E+02  0.47583548323E+02  0.00000000000E+00 0. -1.
         23    2    1    2    0    0 -0.31082617533E+02 -0.92652235373E+01  0.13620346407E+03  0.16652574568E+03  0.90152464588E+02 0.  0.
         23    2    1    2    0    0  0.31082617533E+02  0.92652235373E+01  0.35929998270E+02  0.10077481330E+03  0.88389053282E+02 0.  0.
          5    1    3    3  502    0 -0.28726585105E+01 -0.38517243835E+02  0.20872288022E+02  0.44153965244E+02  0.47000000000E+01 0. -1.
         -5    1    3    3    0  502 -0.28209959022E+02  0.29252020298E+02  0.11533117605E+03  0.12237178044E+03  0.47000000000E+01 0.  1.
          5    1    4    4  503    0 -0.22663170034E+02 -0.14517655231E+02  0.31426822049E+02  0.41642727258E+02  0.47000000000E+01 0. -1.
         -5    1    4    4    0  503  0.53745787567E+02  0.23782878768E+02  0.45031762212E+01  0.59132086042E+02  0.47000000000E+01 0.  1.
<mgrwt>
<rscale>  0 0.95392330E+02</rscale>
<asrwt>0</asrwt>
<pdfrwt beam="1">  1        1 0.73205460E-02 0.95809396E+02</pdfrwt>
<pdfrwt beam="2">  1       -1 0.33802616E-01 0.95809396E+02</pdfrwt>
<totfact> 0.74944696E+03</totfact>
</mgrwt>
</event>
<event>
 8    1  0.6396648E-004  0.2346790E+03  0.7546771E-02  0.1123402E+00
         -1   -1    0    0    0  501 -0.00000000000E+00  0.00000000000E+00  0.10821865344E+03  0.10821865344E+03  0.00000000000E+00 0.  1.
          1   -1    0    0  501    0  0.00000000000E+00 -0.00000000000E+00 -0.58685526884E+03  0.58685526884E+03  0.00000000000E+00 0. -1.
         23    2    1    2    0    0  0.17127945732E+03  0.13061030621E+03 -0.36606601482E+03  0.43479257799E+03  0.92976094134E+02 0.  0.
         23    2    1    2    0    0 -0.17127945732E+03 -0.13061030621E+03 -0.11257060057E+03  0.26028134429E+03  0.93158646874E+02 0.  0.
          5    1    3    3  502    0  0.17096822751E+03  0.90602406636E+02 -0.31556861826E+03  0.37019531836E+03  0.47000000000E+01 0. -1.
         -5    1    3    3    0  502  0.31122981055E+00  0.40007899570E+02 -0.50497396556E+02  0.64597259624E+02  0.47000000000E+01 0.  1.
          5    1    4    4  503    0 -0.13384116750E+03 -0.12490467011E+03 -0.12314292000E+03  0.22068281192E+03  0.47000000000E+01 0. -1.
         -5    1    4    4    0  503 -0.37438289824E+02 -0.57056360989E+01  0.10572319424E+02  0.39598532375E+02  0.47000000000E+01 0.  1.
<mgrwt>
<rscale>  0 0.23466091E+03</rscale>
<asrwt>0</asrwt>
<pdfrwt beam="1">  1        1 0.90285427E-01 0.23467901E+03</pdfrwt>
<pdfrwt beam="2">  1       -1 0.16649023E-01 0.23467901E+03</pdfrwt>
<totfact> 0.98770829E+02</totfact>
</mgrwt>
</event>
<event>
 8    1  0.6396648E-004  0.2002421E+03  0.7546771E-02  0.1149779E+00
          1   -1    0    0  501    0  0.00000000000E+00  0.00000000000E+00  0.75594206580E+03  0.75594206580E+03  0.00000000000E+00 0. -1.
         -1   -1    0    0    0  501 -0.00000000000E+00 -0.00000000000E+00 -0.53922474555E+02  0.53922474555E+02  0.00000000000E+00 0.  1.
         23    2    1    2    0    0 -0.90990035279E+02 -0.15949144044E+03  0.29196076492E+03  0.35403104089E+03  0.79876051270E+02 0.  0.
         23    2    1    2    0    0  0.90990035279E+02  0.15949144044E+03  0.41005882632E+03  0.45583349947E+03  0.76936545918E+02 0.  0.
          5    1    3    3  502    0  0.52299173456E+01 -0.64553244010E+02  0.98545373508E+02  0.11801590565E+03  0.47000000000E+01 0. -1.
         -5    1    4    4    0  503  0.36982174788E+02  0.86419928450E+02  0.12412675102E+03  0.15577427774E+03  0.47000000000E+01 0.  1.
          5    1    4    4  503    0  0.54007860491E+02  0.73071511986E+02  0.28593207530E+03  0.30005922173E+03  0.47000000000E+01 0. -1.
         -5    1    3    3    0  502 -0.96219952624E+02 -0.94938196426E+02  0.19341539141E+03  0.23601513523E+03  0.47000000000E+01 0.  1.
<mgrwt>
<rscale>  0 0.19995287E+03</rscale>
<asrwt>0</asrwt>
<pdfrwt beam="1">  1        1 0.11629877E+00 0.20024208E+03</pdfrwt>
<pdfrwt beam="2">  1       -1 0.82957658E-02 0.20024208E+03</pdfrwt>
<totfact> 0.20353220E+03</totfact>
</mgrwt>
</event>
<event>
 8    1  0.6396648E-004  0.1266201E+03  0.7546771E-02  0.1232715E+00
         -2   -1    0    0    0  501 -0.00000000000E+00  0.00000000000E+00  0.23773271142E+02  0.23773271142E+02  0.00000000000E+00 0.  1.
          2   -1    0    0  501    0  0.00000000000E+00 -0.00000000000E+00 -0.74657173973E+03  0.74657173973E+03  0.00000000000E+00 0. -1.
         23    2    1    2    0    0  0.81329822545E+02  0.32396405213E+02 -0.48345940525E+03  0.49976559052E+03  0.91479953216E+02 0.  0.
         23    2    1    2    0    0 -0.81329822545E+02 -0.32396405213E+02 -0.23933906334E+03  0.27057942035E+03  0.90917371114E+02 0.  0.
          5    1    3    3  502    0  0.49504367024E+02 -0.28042717051E+02 -0.25237274149E+03  0.25874923571E+03  0.47000000000E+01 0. -1.
         -5    1    3    3    0  502  0.31825455522E+02  0.60439122263E+02 -0.23108666377E+03  0.24101635482E+03  0.47000000000E+01 0.  1.
          5    1    4    4  503    0 -0.21445360833E+02 -0.22572665566E+02 -0.18896690150E+03  0.19157246303E+03  0.47000000000E+01 0. -1.
         -5    1    4    4    0  503 -0.59884461713E+02 -0.98237396464E+01 -0.50372161840E+02  0.79006957312E+02  0.47000000000E+01 0.  1.
<mgrwt>
<rscale>  0 0.12651851E+03</rscale>
<asrwt>0</asrwt>
<pdfrwt beam="1">  1        2 0.11485722E+00 0.12662010E+03</pdfrwt>
<pdfrwt beam="2">  1       -2 0.36574253E-02 0.12662010E+03</pdfrwt>
<totfact> 0.11595610E+04</totfact>
</mgrwt>
</event>
<event>
 8    1  0.6396648E-004  0.1706176E+03  0.7546771E-02  0.1177924E+00
         -3   -1    0    0    0  501 -0.00000000000E+00  0.00000000000E+00  0.30091906349E+03  0.30091906349E+03  0.00000000000E+00 0.  1.
          3   -1    0    0  501    0  0.00000000000E+00 -0.00000000000E+00 -0.96133178172E+02  0.96133178172E+02  0.00000000000E+00 0. -1.
         23    2    1    2    0    0  0.89701861437E+02  0.11352431640E+03  0.81892477210E+02  0.18678297900E+03  0.85131128624E+02 0.  0.
         23    2    1    2    0    0 -0.89701861437E+02 -0.11352431640E+03  0.12289340811E+03  0.21026926267E+03  0.90422224632E+02 0.  0.
          5    1    4    4  502    0 -0.13970714298E+02  0.14385507401E+02  0.71031260661E+01  0.21786878645E+02  0.47000000000E+01 0. -1.
         -5    1    3    3    0  503  0.23728114499E+02 -0.29619326679E+01  0.39259729126E+02  0.46208362813E+02  0.47000000000E+01 0.  1.
          5    1    3    3  503    0  0.65973746937E+02  0.11648624906E+03  0.42632748084E+02  0.14057461618E+03  0.47000000000E+01 0. -1.
         -5    1    4    4    0  502 -0.75731147139E+02 -0.12790982380E+03  0.11579028204E+03  0.18848238402E+03  0.47000000000E+01 0.  1.
<mgrwt>
<rscale>  0 0.16992741E+03</rscale>
<asrwt>0</asrwt>
<pdfrwt beam="1">  1        3 0.14789720E-01 0.17061762E+03</pdfrwt>
<pdfrwt beam="2">  1       -3 0.46295240E-01 0.17061762E+03</pdfrwt>
<totfact> 0.42440671E+02</totfact>
</mgrwt>
</event>
<event>
 8    1  0.6396648E-004  0.1193518E+03  0.7546771E-02  0.1245635E+00
         -1   -1    0    0    0  501 -0.00000000000E+00  0.00000000000E+00  0.60837795085E+03  0.60837795085E+03  0.00000000000E+00 0.  1.
          1   -1    0    0  501    0  0.00000000000E+00 -0.00000000000E+00 -0.10108483145E+03  0.10108483145E+03  0.00000000000E+00 0. -1.
         23    2    1    2    0    0  0.69418275765E+02  0.10304599314E+02  0.56509277582E+03  0.57685183428E+03  0.92212318324E+02 0.  0.
         23    2    1    2    0    0 -0.69418275765E+02 -0.10304599314E+02 -0.57799656412E+02  0.13261094802E+03  0.96539015304E+02 0.  0.
          5    1    3    3  502    0 -0.17303503443E+02 -0.14842914409E+02  0.16738379807E+03  0.16899452416E+03  0.47000000000E+01 0. -1.
         -5    1    4    4    0  503 -0.18616632455E+02  0.30308209346E+02  0.11284751499E+02  0.37611197457E+02  0.47000000000E+01 0.  1.
          5    1    4    4  503    0 -0.50801643310E+02 -0.40612808661E+02 -0.69084407912E+02  0.94999750562E+02  0.47000000000E+01 0. -1.
         -5    1    3    3    0  502  0.86721779208E+02  0.25147513723E+02  0.39770897775E+03  0.40785731012E+03  0.47000000000E+01 0.  1.
<mgrwt>
<rscale>  0 0.11847427E+03</rscale>
<asrwt>0</asrwt>
<pdfrwt beam="1">  1        1 0.15551513E-01 0.11935185E+03</pdfrwt>
<pdfrwt beam="2">  1       -1 0.93596606E-01 0.11935185E+03</pdfrwt>
<totfact> 0.41603331E+02</totfact>
</mgrwt>
</event>
<event>
 8    1  0.6396648E-004  0.9592075E+02  0.7546771E-02  0.1295672E+00
         -1   -1    0    0    0  501 -0.00000000000E+00  0.00000000000E+00  0.60995939783E+01  0.60995939783E+01  0.00000000000E+00 0.  1.
          1   -1    0    0  501    0  0.00000000000E+00 -0.00000000000E+00 -0.13452593552E+04  0.13452593552E+04  0.00000000000E+00 0. -1.
         23    2    1    2    0    0  0.10294077916E+02  0.12479035835E+02 -0.66706813248E+03  0.67392928751E+03  0.94546796922E+02 0.  0.
         23    2    1    2    0    0 -0.10294077916E+02 -0.12479035835E+02 -0.67209162875E+03  0.67742966169E+03  0.83319233781E+02 0.  0.
          5    1    4    4  502    0  0.31988982624E+02  0.12942374469E+02 -0.31378660475E+03  0.31571335636E+03  0.47000000000E+01 0. -1.
         -5    1    4    4    0  502 -0.42283060540E+02 -0.25421410304E+02 -0.35830502400E+03  0.36171630532E+03  0.47000000000E+01 0.  1.
          5    1    3    3  503    0 -0.12674156641E+02 -0.34432519448E+02 -0.16321889013E+03  0.16735808536E+03  0.47000000000E+01 0.  1.
         -5    1    3    3    0  503  0.22968234557E+02  0.46911555283E+02 -0.50384924235E+03  0.50657120214E+03  0.47000000000E+01 0. -1.
<mgrwt>
<rscale>  0 0.93031402E+02</rscale>
<asrwt>0</asrwt>
<pdfrwt beam="1">  1        1 0.20696310E+00 0.95920755E+02</pdfrwt>
<pdfrwt beam="2">  1       -1 0.93839854E-03 0.95920755E+02</pdfrwt>
<totfact> 0.17593864E+04</totfact>
</mgrwt>
</event>
<event>
 8    1  0.6396648E-004  0.9310924E+02  0.7546771E-02  0.1295649E+00
         -1   -1    0    0    0  501 -0.00000000000E+00  0.00000000000E+00  0.19079868264E+02  0.19079868264E+02  0.00000000000E+00 0.  1.
          1   -1    0    0  501    0  0.00000000000E+00 -0.00000000000E+00 -0.55820888057E+03  0.55820888057E+03  0.00000000000E+00 0. -1.
         23    2    1    2    0    0  0.17179629927E+02  0.44602946652E+01 -0.39452627033E+03  0.40530245877E+03  0.91126676629E+02 0.  0.
         23    2    1    2    0    0 -0.17179629927E+02 -0.44602946652E+01 -0.14460274198E+03  0.17198629006E+03  0.91401843905E+02 0.  0.
          5    1    3    3  502    0  0.77311828693E+01  0.46450021303E+02 -0.24963258597E+03  0.25407851866E+03  0.47000000000E+01 0. -1.
         -5    1    3    3    0  502  0.94484470577E+01 -0.41989726638E+02 -0.14489368436E+03  0.15122394011E+03  0.47000000000E+01 0.  1.
          5    1    4    4  503    0  0.35573255308E+02 -0.52816873464E+01 -0.84016136693E+02  0.91510403448E+02  0.47000000000E+01 0. -1.
         -5    1    4    4    0  503 -0.52752885235E+02  0.82139268123E+00 -0.60586605287E+02  0.80475886617E+02  0.47000000000E+01 0.  1.
<mgrwt>
<rscale>  0 0.93041642E+02</rscale>
<asrwt>0</asrwt>
<pdfrwt beam="1">  1        1 0.85878294E-01 0.93109242E+02</pdfrwt>
<pdfrwt beam="2">  1       -1 0.29353642E-02 0.93109242E+02</pdfrwt>
<totfact> 0.13920074E+04</totfact>
</mgrwt>
</event>
<event>
 8    1  0.6396648E-004  0.9400088E+02  0.7546771E-02  0.1293734E+00
          2   -1    0    0  501    0  0.00000000000E+00  0.00000000000E+00  0.64090669886E+03  0.64090669886E+03  0.00000000000E+00 0. -1.
         -2   -1    0    0    0  501 -0.00000000000E+00 -0.00000000000E+00 -0.15878483749E+02  0.15878483749E+02  0.00000000000E+00 0.  1.
         23    2    1    2    0    0  0.83768180101E+01  0.13292231838E+02  0.43307327470E+03  0.44304968026E+03  0.92161290193E+02 0.  0.
         23    2    1    2    0    0 -0.83768180101E+01 -0.13292231838E+02  0.19195494041E+03  0.21373550235E+03  0.92678537481E+02 0.  0.
          5    1    3    3  502    0  0.49399307347E+02  0.12501147331E+02  0.27160345528E+03  0.27638215784E+03  0.47000000000E+01 0. -1.
         -5    1    3    3    0  502 -0.41022489337E+02  0.79108450666E+00  0.16146981942E+03  0.16666752242E+03  0.47000000000E+01 0.  1.
          5    1    4    4  503    0  0.32388374241E+01 -0.29810940916E+02  0.19055230367E+03  0.19295453532E+03  0.47000000000E+01 0. -1.
         -5    1    4    4    0  503 -0.11615655434E+02  0.16518709078E+02  0.14026367367E+01  0.20780967027E+02  0.47000000000E+01 0.  1.
<mgrwt>
<rscale>  0 0.93873139E+02</rscale>
<asrwt>0</asrwt>
<pdfrwt beam="1">  1        2 0.98601011E-01 0.94000882E+02</pdfrwt>
<pdfrwt beam="2">  1       -2 0.24428441E-02 0.94000882E+02</pdfrwt>
<totfact> 0.24400199E+04</totfact>
</mgrwt>
</event>
<event>
 8    1  0.6396648E-004  0.1011569E+03  0.7546771E-02  0.1279510E+00
         -1   -1    0    0    0  501 -0.00000000000E+00  0.00000000000E+00  0.18144198153E+02  0.18144198153E+02  0.00000000000E+00 0.  1.
          1   -1    0    0  501    0  0.00000000000E+00 -0.00000000000E+00 -0.55003440744E+03  0.55003440744E+03  0.00000000000E+00 0. -1.
         23    2    1    2    0    0 -0.27251193723E+02  0.28126628265E+02 -0.28343526447E+03  0.29992018114E+03  0.89904566814E+02 0.  0.
         23    2    1    2    0    0  0.27251193723E+02 -0.28126628265E+02 -0.24845494482E+03  0.26825842446E+03  0.93268364990E+02 0.  0.
          5    1    4    4  502    0 -0.18543665600E+02 -0.46155466507E+02 -0.99987853685E+02  0.11177591649E+03  0.47000000000E+01 0. -1.
         -5    1    3    3    0  503  0.27007351342E+02  0.30017676178E+01 -0.36164703655E+02  0.45479483570E+02  0.47000000000E+01 0.  1.
          5    1    3    3  503    0 -0.54258545065E+02  0.25124860647E+02 -0.24727056081E+03  0.25444069757E+03  0.47000000000E+01 0. -1.
         -5    1    4    4    0  502  0.45794859323E+02  0.18028838243E+02 -0.14846709114E+03  0.15648250797E+03  0.47000000000E+01 0.  1.
<mgrwt>
<rscale>  0 0.10037469E+03</rscale>
<asrwt>0</asrwt>
<pdfrwt beam="1">  1        1 0.84620684E-01 0.10115692E+03</pdfrwt>
<pdfrwt beam="2">  1       -1 0.27914149E-02 0.10115692E+03</pdfrwt>
<totfact> 0.15371669E+04</totfact>
</mgrwt>
</event>
<event>
 8    1  0.6396648E-004  0.2809403E+03  0.7546771E-02  0.1096885E+00
          2   -1    0    0  501    0  0.00000000000E+00  0.00000000000E+00  0.16909152797E+04  0.16909152797E+04  0.00000000000E+00 0. -1.
         -2   -1    0    0    0  501 -0.00000000000E+00 -0.00000000000E+00 -0.49577376844E+02  0.49577376844E+02  0.00000000000E+00 0.  1.
         23    2    1    2    0    0  0.22970474559E+03 -0.10489557279E+03  0.53017040029E+03  0.59435973032E+03  0.91735949022E+02 0.  0.
         23    2    1    2    0    0 -0.22970474559E+03  0.10489557279E+03  0.11111675025E+04  0.11461329262E+04  0.12312641669E+03 0.  0.
          5    1    3    3  502    0  0.79477069275E+02 -0.83936474903E+02  0.25773824875E+03  0.28251200192E+03  0.47000000000E+01 0. -1.
         -5    1    3    3    0  502  0.15022767631E+03 -0.20959097884E+02  0.27243215155E+03  0.31184772840E+03  0.47000000000E+01 0.  1.
          5    1    4    4  503    0 -0.15113730270E+03  0.68320906215E+02  0.93655547949E+03  0.95114062401E+03  0.47000000000E+01 0. -1.
         -5    1    4    4    0  503 -0.78567442888E+02  0.36574666572E+02  0.17461202303E+03  0.19499230216E+03  0.47000000000E+01 0.  1.
<mgrwt>
<rscale>  0 0.27782083E+03</rscale>
<asrwt>0</asrwt>
<pdfrwt beam="1">  1        2 0.26014077E+00 0.28094032E+03</pdfrwt>
<pdfrwt beam="2">  1       -2 0.76272900E-02 0.28094032E+03</pdfrwt>
<totfact> 0.11007393E+03</totfact>
</mgrwt>
</event>
<event>
 8    1  0.6396648E-004  0.9400936E+02  0.7546771E-02  0.1294492E+00
          1   -1    0    0  501    0  0.00000000000E+00  0.00000000000E+00  0.48803663287E+02  0.48803663287E+02  0.00000000000E+00 0. -1.
         -1   -1    0    0    0  501 -0.00000000000E+00 -0.00000000000E+00 -0.18195887956E+03  0.18195887956E+03  0.00000000000E+00 0.  1.
         23    2    1    2    0    0  0.39393591545E+01 -0.21318575308E+02 -0.85209041541E+02  0.12687923427E+03  0.91475456405E+02 0.  0.
         23    2    1    2    0    0 -0.39393591545E+01  0.21318575308E+02 -0.47946174733E+02  0.10388330858E+03  0.89570675593E+02 0.  0.
          5    1    3    3  502    0 -0.35024628133E+02  0.69019761778E+01 -0.98159231500E+01  0.37320292045E+02  0.47000000000E+01 0. -1.
         -5    1    4    4    0  503  0.36544180257E+02 -0.10385149157E+02 -0.93176006218E+01  0.39398427824E+02  0.47000000000E+01 0.  1.
          5    1    4    4  503    0 -0.40483539411E+02  0.31703724465E+02 -0.38628574111E+02  0.64484880756E+02  0.47000000000E+01 0. -1.
         -5    1    3    3    0  502  0.38963987287E+02 -0.28220551486E+02 -0.75393118391E+02  0.89558942224E+02  0.47000000000E+01 0.  1.
<mgrwt>
<rscale>  0 0.93542798E+02</rscale>
<asrwt>0</asrwt>
<pdfrwt beam="1">  1        1 0.75082559E-02 0.94009358E+02</pdfrwt>
<pdfrwt beam="2">  1       -1 0.27993674E-01 0.94009358E+02</pdfrwt>
<totfact> 0.99104295E+03</totfact>
</mgrwt>
</event>
<event>
 8    1  0.6396648E-004  0.1049368E+03  0.7546771E-02  0.1271736E+00
          3   -1    0    0  501    0  0.00000000000E+00  0.00000000000E+00  0.17423641328E+03  0.17423641328E+03  0.00000000000E+00 0. -1.
         -3   -1    0    0    0  501 -0.00000000000E+00 -0.00000000000E+00 -0.69251284778E+02  0.69251284778E+02  0.00000000000E+00 0.  1.
         23    2    1    2    0    0 -0.45824554373E+02 -0.44213327745E+01  0.12222517566E+02  0.10564624777E+03  0.94299001935E+02 0.  0.
         23    2    1    2    0    0  0.45824554373E+02  0.44213327745E+01  0.92762610935E+02  0.13784145028E+03  0.90972113648E+02 0.  0.
          5    1    4    4  502    0  0.65894119806E+02 -0.11401722100E+02  0.89244954087E+02  0.11161893263E+03  0.47000000000E+01 0. -1.
         -5    1    4    4    0  502 -0.20069565434E+02  0.15823054875E+02  0.35176568484E+01  0.26222517651E+02  0.47000000000E+01 0.  1.
          5    1    3    3  503    0  0.27507345647E+02 -0.98791023929E+01  0.12049171111E+02  0.31961277401E+02  0.47000000000E+01 0. -1.
         -5    1    3    3    0  503 -0.73331900020E+02  0.54577696184E+01  0.17334645552E+00  0.73684970372E+02  0.47000000000E+01 0.  1.
<mgrwt>
<rscale>  0 0.10418398E+03</rscale>
<asrwt>0</asrwt>
<pdfrwt beam="1">  1        3 0.26805602E-01 0.10493684E+03</pdfrwt>
<pdfrwt beam="2">  1       -3 0.10654044E-01 0.10493684E+03</pdfrwt>
<totfact> 0.19202137E+03</totfact>
</mgrwt>
</event>
<event>
 8    1  0.6396648E-004  0.9425578E+02  0.7546771E-02  0.1293535E+00
          1   -1    0    0  501    0  0.00000000000E+00  0.00000000000E+00  0.11100901741E+03  0.11100901741E+03  0.00000000000E+00 0. -1.
         -1   -1    0    0    0  501 -0.00000000000E+00 -0.00000000000E+00 -0.86855171685E+02  0.86855171685E+02  0.00000000000E+00 0.  1.
         23    2    1    2    0    0  0.86082463116E+01  0.63238149477E+01 -0.17539606618E+02  0.95873818212E+02  0.93648591438E+02 0.  0.
         23    2    1    2    0    0 -0.86082463116E+01 -0.63238149477E+01  0.41693452340E+02  0.10199037088E+03  0.92464042981E+02 0.  0.
          5    1    3    3  502    0  0.34764786739E+02  0.81832634421E+01  0.26280951827E+02  0.44590745974E+02  0.47000000000E+01 0. -1.
         -5    1    4    4    0  503  0.15716014153E+02 -0.39649390361E+02  0.42587548183E+02  0.60455409328E+02  0.47000000000E+01 0.  1.
          5    1    4    4  503    0 -0.24324260465E+02  0.33325575413E+02 -0.89409584272E+00  0.41534961552E+02  0.47000000000E+01 0. -1.
         -5    1    3    3    0  502 -0.26156540427E+02 -0.18594484945E+01 -0.43820558445E+02  0.51283072239E+02  0.47000000000E+01 0.  1.
<mgrwt>
<rscale>  0 0.93960183E+02</rscale>
<asrwt>0</asrwt>
<pdfrwt beam="1">  1        1 0.17078310E-01 0.94255776E+02</pdfrwt>
<pdfrwt beam="2">  1       -1 0.13362334E-01 0.94255776E+02</pdfrwt>
<totfact> 0.11008893E+04</totfact>
</mgrwt>
</event>
<event>
 8    1  0.6396648E-004  0.1086512E+03  0.7546771E-02  0.1267402E+00
          1   -1    0    0  501    0  0.00000000000E+00  0.00000000000E+00  0.32331144070E+03  0.32331144070E+03  0.00000000000E+00 0. -1.
         -1   -1    0    0    0  501 -0.00000000000E+00 -0.00000000000E+00 -0.33736307408E+02  0.33736307408E+02  0.00000000000E+00 0.  1.
         23    2    1    2    0    0 -0.37065662026E+02 -0.12497195014E+02  0.14076996144E+03  0.17782366960E+03  0.10136583370E+03 0.  0.
         23    2    1    2    0    0  0.37065662026E+02  0.12497195014E+02  0.14880517185E+03  0.17922407851E+03  0.91914351233E+02 0.  0.
          5    1    3    3  502    0  0.13574212088E+01 -0.37107253613E+02  0.12310582458E+03  0.12866982905E+03  0.47000000000E+01 0. -1.
         -5    1    3    3    0  502 -0.38423083235E+02  0.24610058599E+02  0.17664136861E+02  0.49153840547E+02  0.47000000000E+01 0.  1.
          5    1    4    4  503    0  0.32572789243E+01  0.43311855511E+02  0.33393898211E+02  0.54988809148E+02  0.47000000000E+01 0. -1.
         -5    1    4    4    0  503  0.33808383102E+02 -0.30814660497E+02  0.11541127364E+03  0.12423526936E+03  0.47000000000E+01 0.  1.
<mgrwt>
<rscale>  0 0.10639171E+03</rscale>
<asrwt>0</asrwt>
<pdfrwt beam="1">  1        1 0.49740220E-01 0.10865116E+03</pdfrwt>
<pdfrwt beam="2">  1       -1 0.51902014E-02 0.10865116E+03</pdfrwt>
<totfact> 0.12264440E+04</totfact>
</mgrwt>
</event>
<event>
 8    1  0.6396648E-004  0.4693244E+03  0.7546771E-02  0.1022132E+00
         -1   -1    0    0    0  501 -0.00000000000E+00  0.00000000000E+00  0.80281331569E+03  0.80281331569E+03  0.00000000000E+00 0.  1.
          1   -1    0    0  501    0  0.00000000000E+00 -0.00000000000E+00 -0.27683922766E+03  0.27683922766E+03  0.00000000000E+00 0. -1.
         23    2    1    2    0    0  0.25535665618E+03  0.38291798250E+03  0.31580714750E+03  0.56568506037E+03  0.91827174283E+02 0.  0.
         23    2    1    2    0    0 -0.25535665618E+03 -0.38291798250E+03  0.21016694052E+03  0.51396748298E+03  0.90328442363E+02 0.  0.
          5    1    3    3  502    0  0.17798766665E+03  0.30220351153E+03  0.19623776230E+03  0.40191780405E+03  0.47000000000E+01 0. -1.
         -5    1    3    3    0  502  0.77368989528E+02  0.80714470964E+02  0.11956938520E+03  0.16376725631E+03  0.47000000000E+01 0.  1.
          5    1    4    4  503    0 -0.21981748482E+03 -0.37057573950E+03  0.19745281405E+03  0.47397870112E+03  0.47000000000E+01 0. -1.
         -5    1    4    4    0  503 -0.35539171353E+02 -0.12342242997E+02  0.12714126473E+02  0.39988781860E+02  0.47000000000E+01 0. -1.
<mgrwt>
<rscale>  0 0.46925169E+03</rscale>
<asrwt>0</asrwt>
<pdfrwt beam="1">  1        1 0.42590651E-01 0.46932444E+03</pdfrwt>
<pdfrwt beam="2">  1       -1 0.12350974E+00 0.46932444E+03</pdfrwt>
<totfact> 0.58714367E+01</totfact>
</mgrwt>
</event>
<event>
 8    1  0.6396648E-004  0.2383346E+03  0.7546771E-02  0.1121052E+00
         -2   -1    0    0    0  501 -0.00000000000E+00  0.00000000000E+00  0.13450731237E+03  0.13450731237E+03  0.00000000000E+00 0.  1.
          2   -1    0    0  501    0  0.00000000000E+00 -0.00000000000E+00 -0.66806511106E+03  0.66806511106E+03  0.00000000000E+00 0. -1.
         23    2    1    2    0    0  0.15575670919E+03  0.15533169433E+03 -0.22943274037E+02  0.23943636388E+03  0.91734894142E+02 0.  0.
         23    2    1    2    0    0 -0.15575670919E+03 -0.15533169433E+03 -0.51061452465E+03  0.56313605955E+03  0.89481512369E+02 0.  0.
          5    1    4    4  502    0 -0.16522500322E+03 -0.13672876154E+03 -0.44276673767E+03  0.49199444093E+03  0.47000000000E+01 0. -1.
         -5    1    3    3    0  503  0.21233966929E+02  0.13245169403E+02  0.27336985614E+02  0.37359291301E+02  0.47000000000E+01 0.  1.
          5    1    3    3  503    0  0.13452274226E+03  0.14208652493E+03 -0.50280259651E+02  0.20207707258E+03  0.47000000000E+01 0. -1.
         -5    1    4    4    0  502  0.94682940391E+01 -0.18602932797E+02 -0.67847786988E+02  0.71141618620E+02  0.47000000000E+01 0.  1.
<mgrwt>
<rscale>  0 0.23811975E+03</rscale>
<asrwt>0</asrwt>
<pdfrwt beam="1">  1        2 0.10277925E+00 0.23833459E+03</pdfrwt>
<pdfrwt beam="2">  1       -2 0.20693433E-01 0.23833459E+03</pdfrwt>
<totfact> 0.88228753E+02</totfact>
</mgrwt>
</event>
<event>
 7    1  0.6396648E-004  0.1693199E+03  0.7546771E-02  0.1205146E+00
         -1   -1    0    0    0  501 -0.00000000000E+00  0.00000000000E+00  0.91640327551E+02  0.91640327551E+02  0.00000000000E+00 0.  1.
          1   -1    0    0  501    0  0.00000000000E+00 -0.00000000000E+00 -0.29714806693E+03  0.29714806693E+03  0.00000000000E+00 0. -1.
         23    2    1    2    0    0  0.17692403156E+02  0.19045858129E+02 -0.19800679279E+03  0.21930244563E+03  0.90615157831E+02 0.  0.
          5    1    1    2  502    0 -0.16168942231E+02  0.74071551659E+02 -0.64085746221E+01  0.76231156929E+02  0.47000000000E+01 0. -1.
         -5    1    3    3    0  503 -0.35812897977E+02 -0.25071996721E+01 -0.69540435456E+02  0.78401606330E+02  0.47000000000E+01 0.  1.
          5    1    3    3  503    0  0.53505301133E+02  0.21553057802E+02 -0.12846635733E+03  0.14090083930E+03  0.47000000000E+01 0. -1.
         -5    1    1    2    0  502 -0.15234609252E+01 -0.93117409789E+02 -0.10923719671E+01  0.93254791917E+02  0.47000000000E+01 0.  1.
<mgrwt>
<rscale>  0 0.14625967E+03</rscale>
<asrwt>0</asrwt>
<pdfrwt beam="1">  1        1 0.45715088E-01 0.16931988E+03</pdfrwt>
<pdfrwt beam="2">  1       -1 0.14098512E-01 0.16931988E+03</pdfrwt>
<totfact> 0.30785269E+03</totfact>
</mgrwt>
</event>
<event>
 8    1  0.6396648E-004  0.1077002E+03  0.7546771E-02  0.1264907E+00
         -1   -1    0    0    0  501 -0.00000000000E+00  0.00000000000E+00  0.60095621428E+02  0.60095621428E+02  0.00000000000E+00 0.  1.
          1   -1    0    0  501    0  0.00000000000E+00 -0.00000000000E+00 -0.61420114224E+03  0.61420114224E+03  0.00000000000E+00 0. -1.
         23    2    1    2    0    0  0.53001672767E+02 -0.78753226172E+01  0.21463433878E+01  0.10772160705E+03  0.93424513978E+02 0.  0.
         23    2    1    2    0    0 -0.53001672767E+02  0.78753226172E+01 -0.55625186419E+03  0.56657515662E+03  0.93381334613E+02 0.  0.
          5    1    3    3  502    0  0.36289332790E+02 -0.44547897023E+02 -0.20583573484E+02  0.61214412526E+02  0.47000000000E+01 0. -1.
         -5    1    3    3    0  502  0.16712339977E+02  0.36672574406E+02  0.22729916872E+02  0.46507194519E+02  0.47000000000E+01 0.  1.
          5    1    4    4  503    0 -0.40437393108E+02 -0.32349275730E+02 -0.43553145737E+03  0.43862443931E+03  0.47000000000E+01 0. -1.
         -5    1    4    4    0  503 -0.12564279658E+02  0.40224598347E+02 -0.12072040682E+03  0.12795071731E+03  0.47000000000E+01 0.  1.
<mgrwt>
<rscale>  0 0.10769086E+03</rscale>
<asrwt>0</asrwt>
<pdfrwt beam="1">  1        1 0.94492481E-01 0.10770022E+03</pdfrwt>
<pdfrwt beam="2">  1       -1 0.92454805E-02 0.10770022E+03</pdfrwt>
<totfact> 0.22846051E+03</totfact>
</mgrwt>
</event>
<event>
 8    1  0.6396648E-004  0.9325672E+02  0.7546771E-02  0.1297127E+00
         -2   -1    0    0    0  501 -0.00000000000E+00  0.00000000000E+00  0.21145726318E+03  0.21145726318E+03  0.00000000000E+00 0.  1.
          2   -1    0    0  501    0  0.00000000000E+00 -0.00000000000E+00 -0.41437690368E+02  0.41437690368E+02  0.00000000000E+00 0. -1.
         23    2    1    2    0    0  0.18811136220E+01 -0.93782705974E+01  0.11267844694E+03  0.14626431142E+03  0.92764895524E+02 0.  0.
         23    2    1    2    0    0 -0.18811136220E+01  0.93782705974E+01  0.57341125869E+02  0.10663064213E+03  0.89390148100E+02 0.  0.
          5    1    4    4  502    0  0.35296942313E+02 -0.72016944833E+01  0.54572802714E+02  0.65559281083E+02  0.47000000000E+01 0. -1.
         -5    1    3    3    0  503  0.17291729616E+02 -0.47412853805E+02  0.73870219659E+02  0.89587286885E+02  0.47000000000E+01 0.  1.
          5    1    3    3  503    0 -0.15410615994E+02  0.38034583207E+02  0.38808227285E+02  0.56677024534E+02  0.47000000000E+01 0. -1.
         -5    1    4    4    0  502 -0.37178055935E+02  0.16579965081E+02  0.27683231547E+01  0.41071361047E+02  0.47000000000E+01 0.  1.
<mgrwt>
<rscale>  0 0.92406084E+02</rscale>
<asrwt>0</asrwt>
<pdfrwt beam="1">  1        2 0.63750294E-02 0.93256723E+02</pdfrwt>
<pdfrwt beam="2">  1       -2 0.32531886E-01 0.93256723E+02</pdfrwt>
<totfact> 0.91036462E+03</totfact>
</mgrwt>
</event>
<event>
 8    1  0.6396648E-004  0.2029145E+03  0.7546771E-02  0.1147468E+00
         -1   -1    0    0    0  501 -0.00000000000E+00  0.00000000000E+00  0.11534887899E+03  0.11534887899E+03  0.00000000000E+00 0.  1.
          1   -1    0    0  501    0  0.00000000000E+00 -0.00000000000E+00 -0.83750777088E+03  0.83750777088E+03  0.00000000000E+00 0. -1.
         23    2    1    2    0    0 -0.18078653855E+03 -0.41046524282E+01  0.63684930082E+00  0.20211835129E+03  0.90281790302E+02 0.  0.
         23    2    1    2    0    0  0.18078653855E+03  0.41046524282E+01 -0.72279574119E+03  0.75073829859E+03  0.92052641393E+02 0.  0.
          5    1    4    4  502    0  0.50013067102E+02  0.31629055202E+02 -0.34277432787E+03  0.34787646351E+03  0.47000000000E+01 0. -1.
         -5    1    3    3    0  503 -0.12063088619E+03 -0.17945206729E+02 -0.39567852544E+02  0.12830255688E+03  0.47000000000E+01 0. -1.
          5    1    3    3  503    0 -0.60155652359E+02  0.13840554301E+02  0.40204701844E+02  0.73815794411E+02  0.47000000000E+01 0.  1.
         -5    1    4    4    0  502  0.13077347144E+03 -0.27524402774E+02 -0.38002141332E+03  0.40286183508E+03  0.47000000000E+01 0.  1.
<mgrwt>
<rscale>  0 0.20271495E+03</rscale>
<asrwt>0</asrwt>
<pdfrwt beam="1">  1        1 0.12884735E+00 0.20291454E+03</pdfrwt>
<pdfrwt beam="2">  1       -1 0.17745981E-01 0.20291454E+03</pdfrwt>
<totfact> 0.53110102E+02</totfact>
</mgrwt>
</event>
<event>
 8    1  0.6396648E-004  0.1067769E+03  0.7546771E-02  0.1267138E+00
         -1   -1    0    0    0  501 -0.00000000000E+00  0.00000000000E+00  0.11696874777E+03  0.11696874777E+03  0.00000000000E+00 0.  1.
          1   -1    0    0  501    0  0.00000000000E+00 -0.00000000000E+00 -0.16503473981E+03  0.16503473981E+03  0.00000000000E+00 0. -1.
         23    2    1    2    0    0  0.22316926766E+02  0.47803583793E+02  0.66719340324E+02  0.12590784242E+03  0.92833649960E+02 0.  0.
         23    2    1    2    0    0 -0.22316926766E+02 -0.47803583793E+02 -0.11478533236E+03  0.15609564516E+03  0.91689421802E+02 0.  0.
          5    1    3    3  502    0  0.32889745647E+02 -0.19472033230E+02  0.23537588195E+02  0.45133175213E+02  0.47000000000E+01 0. -1.
         -5    1    3    3    0  502 -0.10572818880E+02  0.67275617022E+02  0.43181752129E+02  0.80774667203E+02  0.47000000000E+01 0.  1.
          5    1    4    4  503    0  0.10448195644E+01 -0.56683634856E+02 -0.11747389337E+03  0.13052329958E+03  0.47000000000E+01 0. -1.
         -5    1    4    4    0  503 -0.23361746331E+02  0.88800510631E+01  0.26885610123E+01  0.25572345587E+02  0.47000000000E+01 0.  1.
<mgrwt>
<rscale>  0 0.10652774E+03</rscale>
<asrwt>0</asrwt>
<pdfrwt beam="1">  1        1 0.25389960E-01 0.10677694E+03</pdfrwt>
<pdfrwt beam="2">  1       -1 0.17995192E-01 0.10677694E+03</pdfrwt>
<totfact> 0.42469233E+03</totfact>
</mgrwt>
</event>
<event>
 8    1  0.6396648E-004  0.9700063E+02  0.7546771E-02  0.1288904E+00
          3   -1    0    0  501    0  0.00000000000E+00  0.00000000000E+00  0.22417737251E+02  0.22417737251E+02  0.00000000000E+00 0. -1.
         -3   -1    0    0    0  501 -0.00000000000E+00 -0.00000000000E+00 -0.51751405880E+03  0.51751405880E+03  0.00000000000E+00 0.  1.
         23    2    1    2    0    0 -0.23247359198E+02  0.54491183474E+01 -0.11669654301E+03  0.14929703867E+03  0.90007721915E+02 0.  0.
         23    2    1    2    0    0  0.23247359198E+02 -0.54491183474E+01 -0.37839977854E+03  0.39063475739E+03  0.94015895869E+02 0.  0.
          5    1    3    3  502    0  0.20662592993E+02 -0.17757855888E+02 -0.65984102154E+01  0.28423814176E+02  0.47000000000E+01 0. -1.
         -5    1    4    4    0  503 -0.30951396684E+02 -0.12942465983E+02 -0.74871083352E+02  0.82178254451E+02  0.47000000000E+01 0.  1.
          5    1    4    4  503    0  0.54198755883E+02  0.74933476358E+01 -0.30352869519E+03  0.30845650293E+03  0.47000000000E+01 0. -1.
         -5    1    3    3    0  502 -0.43909952191E+02  0.23206974235E+02 -0.11009813279E+03  0.12087322449E+03  0.47000000000E+01 0.  1.
<mgrwt>
<rscale>  0 0.96015825E+02</rscale>
<asrwt>0</asrwt>
<pdfrwt beam="1">  1        3 0.34488828E-02 0.97000625E+02</pdfrwt>
<pdfrwt beam="2">  1       -3 0.79617544E-01 0.97000625E+02</pdfrwt>
<totfact> 0.13388326E+03</totfact>
</mgrwt>
</event>
<event>
 8    1  0.6396648E-004  0.1044548E+03  0.7546771E-02  0.1273571E+00
         -1   -1    0    0    0  501 -0.00000000000E+00  0.00000000000E+00  0.11654702085E+03  0.11654702085E+03  0.00000000000E+00 0.  1.
          1   -1    0    0  501    0  0.00000000000E+00 -0.00000000000E+00 -0.92587269363E+02  0.92587269363E+02  0.00000000000E+00 0. -1.
         23    2    1    2    0    0  0.41886617043E+02  0.89952964895E+01  0.30868162651E+02  0.10445128068E+03  0.90121154700E+02 0.  0.
         23    2    1    2    0    0 -0.41886617043E+02 -0.89952964895E+01 -0.69084111649E+01  0.10468300953E+03  0.95264905883E+02 0.  0.
          5    1    4    4  502    0  0.15270726003E+02 -0.25715942805E+02 -0.28091451313E+02  0.41300416752E+02  0.47000000000E+01 0. -1.
         -5    1    4    4    0  502 -0.57157343046E+02  0.16720646315E+02  0.21183040148E+02  0.63382592777E+02  0.47000000000E+01 0.  1.
          5    1    3    3  503    0  0.42562374319E+02 -0.27975595808E+02 -0.66315006085E+01  0.51577674131E+02  0.47000000000E+01 0. -1.
         -5    1    3    3    0  503 -0.67575727603E+00  0.36970892297E+02  0.37499663259E+02  0.52873606551E+02  0.47000000000E+01 0.  1.
<mgrwt>
<rscale>  0 0.10326749E+03</rscale>
<asrwt>0</asrwt>
<pdfrwt beam="1">  1        1 0.14244195E-01 0.10445481E+03</pdfrwt>
<pdfrwt beam="2">  1       -1 0.17930311E-01 0.10445481E+03</pdfrwt>
<totfact> 0.88632965E+03</totfact>
</mgrwt>
</event>
<event>
 8    1  0.6396648E-004  0.9682331E+02  0.7546771E-02  0.1291414E+00
          1   -1    0    0  501    0  0.00000000000E+00  0.00000000000E+00  0.25799177274E+03  0.25799177274E+03  0.00000000000E+00 0. -1.
         -1   -1    0    0    0  501 -0.00000000000E+00 -0.00000000000E+00 -0.46055335845E+02  0.46055335845E+02  0.00000000000E+00 0.  1.
         23    2    1    2    0    0 -0.10764341760E+02 -0.14666260316E+00  0.23789571938E+02  0.92448440849E+02  0.88684146943E+02 0.  0.
         23    2    1    2    0    0  0.10764341760E+02  0.14666260316E+00  0.18814686496E+03  0.21159866774E+03  0.96222974549E+02 0.  0.
          5    1    3    3  502    0 -0.43083797730E+02  0.57847297267E+01  0.36448074930E+02  0.56923008450E+02  0.47000000000E+01 0. -1.
         -5    1    4    4    0  503  0.25153957895E+02 -0.34628480901E+02  0.40335942567E+02  0.58999419913E+02  0.47000000000E+01 0.  1.
          5    1    4    4  503    0 -0.14389616135E+02  0.34775143504E+02  0.14781092239E+03  0.15259924782E+03  0.47000000000E+01 0. -1.
         -5    1    3    3    0  502  0.32319455970E+02 -0.59313923299E+01 -0.12658502992E+02  0.35525432400E+02  0.47000000000E+01 0.  1.
<mgrwt>
<rscale>  0 0.94894392E+02</rscale>
<asrwt>0</asrwt>
<pdfrwt beam="1">  1        1 0.39691041E-01 0.96823310E+02</pdfrwt>
<pdfrwt beam="2">  1       -1 0.70854364E-02 0.96823310E+02</pdfrwt>
<totfact> 0.10103122E+04</totfact>
</mgrwt>
</event>
<event>
 8    1  0.6396648E-004  0.9469878E+02  0.7546771E-02  0.1292935E+00
          4   -1    0    0  501    0  0.00000000000E+00  0.00000000000E+00  0.12602018968E+03  0.12602018968E+03  0.00000000000E+00 0. -1.
         -4   -1    0    0    0  501 -0.00000000000E+00 -0.00000000000E+00 -0.70474316464E+02  0.70474316464E+02  0.00000000000E+00 0.  1.
         23    2    1    2    0    0  0.16792413862E+02  0.11802743535E+01  0.37454275362E+02  0.10008306897E+03  0.91271133113E+02 0.  0.
         23    2    1    2    0    0 -0.16792413862E+02 -0.11802743535E+01  0.18091597857E+02  0.96411437182E+02  0.93190563339E+02 0.  0.
          5    1    4    4  502    0 -0.19092792542E+01 -0.44942078902E+02  0.20986926976E+02  0.49859571872E+02  0.47000000000E+01 0. -1.
         -5    1    3    3    0  503  0.13189149773E+02  0.40470611832E+02  0.42131252978E+02  0.60074591728E+02  0.47000000000E+01 0.  1.
          5    1    3    3  503    0  0.36032640896E+01 -0.39290337478E+02 -0.46769776160E+01  0.40008477238E+02  0.47000000000E+01 0. -1.
         -5    1    4    4    0  502 -0.14883134608E+02  0.43761804549E+02 -0.28953291183E+01  0.46551865310E+02  0.47000000000E+01 0.  1.
<mgrwt>
<rscale>  0 0.94223152E+02</rscale>
<asrwt>0</asrwt>
<pdfrwt beam="1">  1        4 0.19387722E-01 0.94698782E+02</pdfrwt>
<pdfrwt beam="2">  1       -4 0.10842202E-01 0.94698782E+02</pdfrwt>
<totfact> 0.23696710E+03</totfact>
</mgrwt>
</event>
<event>
 8    1  0.6396648E-004  0.1389057E+03  0.7546771E-02  0.1224738E+00
          3   -1    0    0  501    0  0.00000000000E+00  0.00000000000E+00  0.51083055419E+02  0.51083055419E+02  0.00000000000E+00 0. -1.
         -3   -1    0    0    0  501 -0.00000000000E+00 -0.00000000000E+00 -0.33106271470E+03  0.33106271470E+03  0.00000000000E+00 0.  1.
         23    2    1    2    0    0  0.58417344062E+02 -0.45410664932E+02 -0.20160970863E+03  0.24482906203E+03  0.11755883813E+03 0.  0.
         23    2    1    2    0    0 -0.58417344062E+02  0.45410664932E+02 -0.78369950656E+02  0.13731670809E+03  0.85084161741E+02 0.  0.
          5    1    4    4  502    0 -0.62953159512E+02  0.47274551330E+01 -0.21028589358E+02  0.66706376719E+02  0.47000000000E+01 0. -1.
         -5    1    3    3    0  503  0.74633431108E+02 -0.73996379387E+02 -0.16177206904E+03  0.19297125569E+03  0.47000000000E+01 0.  1.
          5    1    3    3  503    0 -0.16216087047E+02  0.28585714456E+02 -0.39837639584E+02  0.51857806333E+02  0.47000000000E+01 0. -1.
         -5    1    4    4    0  502  0.45358154503E+01  0.40683209799E+02 -0.57341361298E+02  0.70610331375E+02  0.47000000000E+01 0.  1.
<mgrwt>
<rscale>  0 0.13184858E+03</rscale>
<asrwt>0</asrwt>
<pdfrwt beam="1">  1        3 0.78589314E-02 0.13890571E+03</pdfrwt>
<pdfrwt beam="2">  1       -3 0.50932727E-01 0.13890571E+03</pdfrwt>
<totfact> 0.97874984E+02</totfact>
</mgrwt>
</event>
<event>
 8    1  0.6396648E-004  0.1141424E+03  0.7546771E-02  0.1256214E+00
         -3   -1    0    0    0  501 -0.00000000000E+00  0.00000000000E+00  0.19919429064E+03  0.19919429064E+03  0.00000000000E+00 0.  1.
          3   -1    0    0  501    0  0.00000000000E+00 -0.00000000000E+00 -0.64076599289E+02  0.64076599289E+02  0.00000000000E+00 0. -1.
         23    2    1    2    0    0  0.49612019281E+02  0.21702666229E+02  0.39327611739E+02  0.11426007232E+03  0.92608557399E+02 0.  0.
         23    2    1    2    0    0 -0.49612019281E+02 -0.21702666229E+02  0.95790079613E+02  0.14901081761E+03  0.10047948165E+03 0.  0.
          5    1    4    4  502    0 -0.62283120419E+02 -0.51593338924E+02  0.62972443611E+02  0.10260934833E+03  0.47000000000E+01 0. -1.
         -5    1    4    4    0  502  0.12671101137E+02  0.29890672695E+02  0.32817636002E+02  0.46401469276E+02  0.47000000000E+01 0.  1.
          5    1    3    3  503    0  0.27330958677E+02  0.35905896463E+02 -0.19666911746E+02  0.49447872762E+02  0.47000000000E+01 0. -1.
         -5    1    3    3    0  503  0.22281060604E+02 -0.14203230234E+02  0.58994523485E+02  0.64812199561E+02  0.47000000000E+01 0.  1.
<mgrwt>
<rscale>  0 0.11238634E+03</rscale>
<asrwt>0</asrwt>
<pdfrwt beam="1">  1        3 0.98579385E-02 0.11414239E+03</pdfrwt>
<pdfrwt beam="2">  1       -3 0.30645275E-01 0.11414239E+03</pdfrwt>
<totfact> 0.17350760E+03</totfact>
</mgrwt>
</event>
<event>
 8    1  0.6396648E-004  0.1172807E+03  0.7546771E-02  0.1247686E+00
          2   -1    0    0  501    0  0.00000000000E+00  0.00000000000E+00  0.38474214981E+03  0.38474214981E+03  0.00000000000E+00 0. -1.
         -2   -1    0    0    0  501 -0.00000000000E+00 -0.00000000000E+00 -0.58018985714E+02  0.58018985714E+02  0.00000000000E+00 0.  1.
         23    2    1    2    0    0  0.45737843716E+02 -0.56725833982E+02  0.26170021072E+02  0.12016501384E+03  0.91896626481E+02 0.  0.
         23    2    1    2    0    0 -0.45737843716E+02  0.56725833982E+02  0.30055314302E+03  0.32259612169E+03  0.91794854749E+02 0.  0.
          5    1    3    3  502    0 -0.26086431940E+02 -0.89918008645E+01  0.18295892749E+02  0.33439259944E+02  0.47000000000E+01 0. -1.
         -5    1    3    3    0  502  0.71824275657E+02 -0.47734033117E+02  0.78741283236E+01  0.86725753892E+02  0.47000000000E+01 0.  1.
          5    1    4    4  503    0 -0.17888454216E+02  0.35917231573E+02  0.27793486445E+03  0.28085569817E+03  0.47000000000E+01 0. -1.
         -5    1    4    4    0  503 -0.27849389500E+02  0.20808602408E+02  0.22618278571E+02  0.41740423515E+02  0.47000000000E+01 0.  1.
<mgrwt>
<rscale>  0 0.11726075E+03</rscale>
<asrwt>0</asrwt>
<pdfrwt beam="1">  1        2 0.59191098E-01 0.11728069E+03</pdfrwt>
<pdfrwt beam="2">  1       -2 0.89259981E-02 0.11728069E+03</pdfrwt>
<totfact> 0.62828159E+03</totfact>
</mgrwt>
</event>
<event>
 8    1  0.6396648E-004  0.9486102E+02  0.7546771E-02  0.1300612E+00
         -1   -1    0    0    0  501 -0.00000000000E+00  0.00000000000E+00  0.27583608229E+02  0.27583608229E+02  0.00000000000E+00 0.  1.
          1   -1    0    0  501    0  0.00000000000E+00 -0.00000000000E+00 -0.55431057925E+03  0.55431057925E+03  0.00000000000E+00 0. -1.
         23    2    1    2    0    0 -0.11140252354E+02  0.25339611605E+02 -0.46969012022E+02  0.92847858393E+02  0.75156074798E+02 0.  0.
         23    2    1    2    0    0  0.11140252354E+02 -0.25339611605E+02 -0.47975795900E+03  0.48904632909E+03  0.90732638174E+02 0.  0.
          5    1    3    3  502    0 -0.17704621077E+02 -0.18704036337E+02 -0.39594857367E+02  0.47467223562E+02  0.47000000000E+01 0. -1.
         -5    1    3    3    0  502  0.65643687223E+01  0.44043647943E+02 -0.73741546555E+01  0.45380634831E+02  0.47000000000E+01 0.  1.
          5    1    4    4  503    0  0.24502079127E+02 -0.42825307008E+02 -0.44426453102E+03  0.44702060615E+03  0.47000000000E+01 0. -1.
         -5    1    4    4    0  503 -0.13361826772E+02  0.17485695403E+02 -0.35493427981E+02  0.42025722935E+02  0.47000000000E+01 0.  1.
<mgrwt>
<rscale>  0 0.90931079E+02</rscale>
<asrwt>0</asrwt>
<pdfrwt beam="1">  1        1 0.85278535E-01 0.94861018E+02</pdfrwt>
<pdfrwt beam="2">  1       -1 0.42436328E-02 0.94861018E+02</pdfrwt>
<totfact> 0.82498692E+03</totfact>
</mgrwt>
</event>
<event>
 8    1  0.6396648E-004  0.9201227E+02  0.7546771E-02  0.1299331E+00
         -3   -1    0    0    0  501 -0.00000000000E+00  0.00000000000E+00  0.10570652710E+03  0.10570652710E+03  0.00000000000E+00 0.  1.
          3   -1    0    0  501    0  0.00000000000E+00 -0.00000000000E+00 -0.90625144367E+02  0.90625144367E+02  0.00000000000E+00 0. -1.
         23    2    1    2    0    0  0.96884103579E+01  0.20079974699E+02  0.43919596883E+02  0.10195679866E+03  0.89270303700E+02 0.  0.
         23    2    1    2    0    0 -0.96884103579E+01 -0.20079974699E+02 -0.28838214149E+02  0.94374872813E+02  0.87051153605E+02 0.  0.
          5    1    4    4  502    0 -0.44754859632E+02 -0.13816986925E+02 -0.34009633061E+02  0.58074535981E+02  0.47000000000E+01 0. -1.
         -5    1    3    3    0  503  0.37684382706E+02 -0.43819394123E+01  0.51084536745E+02  0.63804654904E+02  0.47000000000E+01 0.  1.
          5    1    3    3  503    0 -0.27995972348E+02  0.24461914111E+02 -0.71649398619E+01  0.38152143753E+02  0.47000000000E+01 0. -1.
         -5    1    4    4    0  502  0.35066449274E+02 -0.62629877735E+01  0.51714189123E+01  0.36300336832E+02  0.47000000000E+01 0.  1.
<mgrwt>
<rscale>  0 0.91469636E+02</rscale>
<asrwt>0</asrwt>
<pdfrwt beam="1">  1        3 0.13942330E-01 0.92012270E+02</pdfrwt>
<pdfrwt beam="2">  1       -3 0.16262543E-01 0.92012270E+02</pdfrwt>
<totfact> 0.28749783E+03</totfact>
</mgrwt>
</event>
<event>
 8    1  0.6396648E-004  0.1490546E+03  0.7546771E-02  0.1202147E+00
         -1   -1    0    0    0  501 -0.00000000000E+00  0.00000000000E+00  0.79239868444E+02  0.79239868444E+02  0.00000000000E+00 0.  1.
          1   -1    0    0  501    0  0.00000000000E+00 -0.00000000000E+00 -0.44306898683E+03  0.44306898683E+03  0.00000000000E+00 0. -1.
         23    2    1    2    0    0  0.76034902652E+02  0.88389233663E+02 -0.22813962905E+02  0.15079045513E+03  0.92861840424E+02 0.  0.
         23    2    1    2    0    0 -0.76034902652E+02 -0.88389233663E+02 -0.34101515548E+03  0.37151840014E+03  0.90225397351E+02 0.  0.
          5    1    3    3  502    0  0.41735425323E+02  0.35864074590E+01 -0.39405524250E+02  0.57702628941E+02  0.47000000000E+01 0. -1.
         -5    1    3    3    0  502  0.34299477329E+02  0.84802826204E+02  0.16591561345E+02  0.93087826192E+02  0.47000000000E+01 0.  1.
          5    1    4    4  503    0 -0.38306685774E+02 -0.95503566930E+02 -0.19582434634E+03  0.22126363933E+03  0.47000000000E+01 0. -1.
         -5    1    4    4    0  503 -0.37728216877E+02  0.71143332675E+01 -0.14519080914E+03  0.15025476081E+03  0.47000000000E+01 0.  1.
<mgrwt>
<rscale>  0 0.14864593E+03</rscale>
<asrwt>0</asrwt>
<pdfrwt beam="1">  1        1 0.68164459E-01 0.14905464E+03</pdfrwt>
<pdfrwt beam="2">  1       -1 0.12190749E-01 0.14905464E+03</pdfrwt>
<totfact> 0.23241729E+03</totfact>
</mgrwt>
</event>
<event>
 8    1  0.6396648E-004  0.1427581E+03  0.7546771E-02  0.1215343E+00
         -1   -1    0    0    0  501 -0.00000000000E+00  0.00000000000E+00  0.60890071976E+03  0.60890071976E+03  0.00000000000E+00 0.  1.
          1   -1    0    0  501    0  0.00000000000E+00 -0.00000000000E+00 -0.29894851743E+02  0.29894851743E+02  0.00000000000E+00 0. -1.
         23    2    1    2    0    0 -0.17791561935E+02  0.87076016307E+02  0.28642354193E+03  0.32002860272E+03  0.11171879382E+03 0.  0.
         23    2    1    2    0    0  0.17791561935E+02 -0.87076016307E+02  0.29258232609E+03  0.31876696879E+03  0.90051044181E+02 0.  0.
          5    1    3    3  502    0  0.29383169495E+02  0.79929460933E+02  0.23364497643E+03  0.24872505782E+03  0.47000000000E+01 0. -1.
         -5    1    4    4    0  503 -0.28504543937E+02 -0.42088550387E+02  0.19573250087E+03  0.20228014484E+03  0.47000000000E+01 0.  1.
          5    1    4    4  503    0  0.46296105871E+02 -0.44987465920E+02  0.96849825216E+02  0.11648682395E+03  0.47000000000E+01 0. -1.
         -5    1    3    3    0  502 -0.47174731429E+02  0.71465553747E+01  0.52778565496E+02  0.71303544897E+02  0.47000000000E+01 0.  1.
<mgrwt>
<rscale>  0 0.13851362E+03</rscale>
<asrwt>0</asrwt>
<pdfrwt beam="1">  1        1 0.45992084E-02 0.14275805E+03</pdfrwt>
<pdfrwt beam="2">  1       -1 0.93677025E-01 0.14275805E+03</pdfrwt>
<totfact> 0.21179911E+03</totfact>
</mgrwt>
</event>
<event>
 8    1  0.6396648E-004  0.9512956E+02  0.7546771E-02  0.1291805E+00
          2   -1    0    0  501    0  0.00000000000E+00  0.00000000000E+00  0.10498688958E+04  0.10498688958E+04  0.00000000000E+00 0. -1.
         -2   -1    0    0    0  501 -0.00000000000E+00 -0.00000000000E+00 -0.15261273193E+02  0.15261273193E+02  0.00000000000E+00 0.  1.
         23    2    1    2    0    0 -0.14801569526E+02 -0.26053164524E+02  0.15966534877E+03  0.18503152896E+03  0.88576460011E+02 0.  0.
         23    2    1    2    0    0  0.14801569526E+02  0.26053164524E+02  0.87494227384E+03  0.88009864004E+03  0.90287207311E+02 0.  0.
          5    1    4    4  502    0 -0.37890300131E+02  0.15317762240E+02  0.38518506039E+03  0.38737569545E+03  0.47000000000E+01 0. -1.
         -5    1    4    4    0  502  0.52691869657E+02  0.10735402285E+02  0.48975721345E+03  0.49272294458E+03  0.47000000000E+01 0.  1.
          5    1    3    3  503    0 -0.43575829605E+02 -0.73822125453E+01  0.37808108498E+02  0.58351461473E+02  0.47000000000E+01 0. -1.
         -5    1    3    3    0  503  0.28774260079E+02 -0.18670951979E+02  0.12185724027E+03  0.12668006749E+03  0.47000000000E+01 0.  1.
<mgrwt>
<rscale>  0 0.94721415E+02</rscale>
<asrwt>0</asrwt>
<pdfrwt beam="1">  1        2 0.16151824E+00 0.95129562E+02</pdfrwt>
<pdfrwt beam="2">  1       -2 0.23478890E-02 0.95129562E+02</pdfrwt>
<totfact> 0.13990991E+04</totfact>
</mgrwt>
</event>
<event>
 8    1  0.6396648E-004  0.1270609E+03  0.7546771E-02  0.1232314E+00
          2   -1    0    0  501    0  0.00000000000E+00  0.00000000000E+00  0.70227684415E+03  0.70227684415E+03  0.00000000000E+00 0. -1.
         -2   -1    0    0    0  501 -0.00000000000E+00 -0.00000000000E+00 -0.18602345162E+03  0.18602345162E+03  0.00000000000E+00 0.  1.
         23    2    1    2    0    0  0.72285807031E+02 -0.50554730314E+02 -0.15779228617E+03  0.20259044235E+03  0.91451971568E+02 0.  0.
         23    2    1    2    0    0 -0.72285807031E+02  0.50554730314E+02  0.67404567870E+03  0.68570985341E+03  0.89885524049E+02 0.  0.
          5    1    3    3  502    0  0.45912490941E+02 -0.67006288096E+02 -0.63540756749E+02  0.10323428324E+03  0.47000000000E+01 0. -1.
         -5    1    4    4    0  503 -0.73686704771E+02  0.13672517594E+01  0.33225329266E+03  0.34036148478E+03  0.47000000000E+01 0.  1.
          5    1    4    4  503    0  0.14008977403E+01  0.49187478555E+02  0.34179238604E+03  0.34534836863E+03  0.47000000000E+01 0. -1.
         -5    1    3    3    0  502  0.26373316090E+02  0.16451557782E+02 -0.94251529421E+02  0.99356159110E+02  0.47000000000E+01 0.  1.
<mgrwt>
<rscale>  0 0.12677931E+03</rscale>
<asrwt>0</asrwt>
<pdfrwt beam="1">  1        2 0.10804259E+00 0.12706094E+03</pdfrwt>
<pdfrwt beam="2">  1       -2 0.28618993E-01 0.12706094E+03</pdfrwt>
<totfact> 0.47302373E+02</totfact>
</mgrwt>
</event>
<event>
 8    1  0.6396648E-004  0.1412630E+03  0.7546771E-02  0.1212206E+00
         -2   -1    0    0    0  501 -0.00000000000E+00  0.00000000000E+00  0.25553646834E+03  0.25553646834E+03  0.00000000000E+00 0.  1.
          2   -1    0    0  501    0  0.00000000000E+00 -0.00000000000E+00 -0.88723909696E+02  0.88723909696E+02  0.00000000000E+00 0. -1.
         23    2    1    2    0    0 -0.10463224837E+03 -0.16013081343E+02  0.14599130632E+03  0.20314701737E+03  0.93546368049E+02 0.  0.
         23    2    1    2    0    0  0.10463224837E+03  0.16013081343E+02  0.20821252328E+02  0.14111336066E+03  0.90967740639E+02 0.  0.
          5    1    3    3  502    0 -0.21070790950E+02  0.36456981107E+02  0.40155786721E+02  0.58375225138E+02  0.47000000000E+01 0. -1.
         -5    1    3    3    0  502 -0.83561457416E+02 -0.52470062449E+02  0.10583551960E+03  0.14477179224E+03  0.47000000000E+01 0.  1.
          5    1    4    4  503    0  0.81989919637E+02 -0.14090713909E+02  0.46367953064E+02  0.95357077408E+02  0.47000000000E+01 0. -1.
         -5    1    4    4    0  503  0.22642328729E+02  0.30103795252E+02 -0.25546700736E+02  0.45756283255E+02  0.47000000000E+01 0.  1.
<mgrwt>
<rscale>  0 0.14083757E+03</rscale>
<asrwt>0</asrwt>
<pdfrwt beam="1">  1        2 0.13649832E-01 0.14126305E+03</pdfrwt>
<pdfrwt beam="2">  1       -2 0.39313303E-01 0.14126305E+03</pdfrwt>
<totfact> 0.25982028E+03</totfact>
</mgrwt>
</event>
<event>
 8    1  0.6396648E-004  0.1420995E+03  0.7546771E-02  0.1211302E+00
         -1   -1    0    0    0  501 -0.00000000000E+00  0.00000000000E+00  0.37021327224E+02  0.37021327224E+02  0.00000000000E+00 0.  1.
          1   -1    0    0  501    0  0.00000000000E+00 -0.00000000000E+00 -0.62218859531E+03  0.62218859531E+03  0.00000000000E+00 0. -1.
         23    2    1    2    0    0 -0.29211644032E+02 -0.10390105847E+03 -0.41277692583E+03  0.43580289729E+03  0.88829188281E+02 0.  0.
         23    2    1    2    0    0  0.29211644032E+02  0.10390105847E+03 -0.17239034225E+03  0.22340702524E+03  0.92431156684E+02 0.  0.
          5    1    4    4  502    0 -0.43149551873E+01  0.84413285271E+02 -0.58227311512E+02  0.10274595551E+03  0.47000000000E+01 0. -1.
         -5    1    3    3    0  503 -0.41204087964E+02 -0.72253599012E+01 -0.11514497100E+03  0.12259868285E+03  0.47000000000E+01 0.  1.
          5    1    3    3  503    0  0.11992443932E+02 -0.96675698572E+02 -0.29763195484E+03  0.31320421444E+03  0.47000000000E+01 0. -1.
         -5    1    4    4    0  502  0.33526599219E+02  0.19487773201E+02 -0.11416303074E+03  0.12066106973E+03  0.47000000000E+01 0.  1.
<mgrwt>
<rscale>  0 0.14151688E+03</rscale>
<asrwt>0</asrwt>
<pdfrwt beam="1">  1        1 0.95721325E-01 0.14209950E+03</pdfrwt>
<pdfrwt beam="2">  1       -1 0.56955886E-02 0.14209950E+03</pdfrwt>
<totfact> 0.46899514E+03</totfact>
</mgrwt>
</event>
<event>
 8    1  0.6396648E-004  0.1132957E+03  0.7546771E-02  0.1255495E+00
          1   -1    0    0  501    0  0.00000000000E+00  0.00000000000E+00  0.14611239207E+02  0.14611239207E+02  0.00000000000E+00 0. -1.
         -1   -1    0    0    0  501 -0.00000000000E+00 -0.00000000000E+00 -0.88140149477E+03  0.88140149477E+03  0.00000000000E+00 0.  1.
         23    2    1    2    0    0 -0.12821197943E+02 -0.67660278144E+02 -0.37227844567E+03  0.38913641046E+03  0.89964484555E+02 0.  0.
         23    2    1    2    0    0  0.12821197943E+02  0.67660278144E+02 -0.49451180990E+03  0.50687632352E+03  0.87403551771E+02 0.  0.
          5    1    4    4  502    0  0.15751447310E+02 -0.17663876535E+02 -0.76724156666E+02  0.80428893084E+02  0.47000000000E+01 0. -1.
         -5    1    4    4    0  502 -0.29302493666E+01  0.85324154679E+02 -0.41778765323E+03  0.42644743043E+03  0.47000000000E+01 0.  1.
          5    1    3    3  503    0 -0.36482107613E+02 -0.65724619304E+02 -0.34289712403E+03  0.35107149902E+03  0.47000000000E+01 0. -1.
         -5    1    3    3    0  503  0.23660909670E+02 -0.19356588404E+01 -0.29381321644E+02  0.38064911442E+02  0.47000000000E+01 0.  1.
<mgrwt>
<rscale>  0 0.11278656E+03</rscale>
<asrwt>0</asrwt>
<pdfrwt beam="1">  1        1 0.22478827E-02 0.11329565E+03</pdfrwt>
<pdfrwt beam="2">  1       -1 0.13560025E+00 0.11329565E+03</pdfrwt>
<totfact> 0.24030864E+03</totfact>
</mgrwt>
</event>
<event>
 8    1  0.6396648E-004  0.1074093E+03  0.7546771E-02  0.1268730E+00
         -2   -1    0    0    0  501 -0.00000000000E+00  0.00000000000E+00  0.13581548266E+04  0.13581548266E+04  0.00000000000E+00 0.  1.
          2   -1    0    0  501    0  0.00000000000E+00 -0.00000000000E+00 -0.88364112276E+01  0.88364112276E+01  0.00000000000E+00 0. -1.
         23    2    1    2    0    0 -0.33425020096E+02 -0.21491744733E+02  0.48106207664E+03  0.49290716309E+03  0.99787888928E+02 0.  0.
         23    2    1    2    0    0  0.33425020096E+02  0.21491744733E+02  0.86825633872E+03  0.87408407473E+03  0.92600069730E+02 0.  0.
          5    1    4    4  502    0 -0.19689560201E+02 -0.23481714728E+02  0.27235016063E+03  0.27410904710E+03  0.47000000000E+01 0. -1.
         -5    1    3    3    0  503  0.34287163696E+02  0.15971050015E+01  0.12581779097E+03  0.13050044775E+03  0.47000000000E+01 0.  1.
          5    1    3    3  503    0 -0.67712183792E+02 -0.23088849734E+02  0.35524428568E+03  0.36240671534E+03  0.47000000000E+01 0. -1.
         -5    1    4    4    0  502  0.53114580297E+02  0.44973459460E+02  0.59590617809E+03  0.59997502763E+03  0.47000000000E+01 0.  1.
<mgrwt>
<rscale>  0 0.10570862E+03</rscale>
<asrwt>0</asrwt>
<pdfrwt beam="1">  1        2 0.13594490E-02 0.10740926E+03</pdfrwt>
<pdfrwt beam="2">  1       -2 0.20894673E+00 0.10740926E+03</pdfrwt>
<totfact> 0.11311463E+03</totfact>
</mgrwt>
</event>
<event>
 8    1  0.6396648E-004  0.9975741E+02  0.7546771E-02  0.1280863E+00
         -2   -1    0    0    0  501 -0.00000000000E+00  0.00000000000E+00  0.51295199294E+02  0.51295199294E+02  0.00000000000E+00 0.  1.
          2   -1    0    0  501    0  0.00000000000E+00 -0.00000000000E+00 -0.48717321439E+03  0.48717321439E+03  0.00000000000E+00 0. -1.
         23    2    1    2    0    0  0.36108097155E+02 -0.18038475963E+02 -0.90558286822E+01  0.10016760598E+03  0.91226969475E+02 0.  0.
         23    2    1    2    0    0 -0.36108097155E+02  0.18038475963E+02 -0.42682218642E+03  0.43830080770E+03  0.91111129521E+02 0.  0.
          5    1    3    3  502    0  0.27016470003E+02  0.33926306189E+02  0.83553541666E+01  0.44416053926E+02  0.47000000000E+01 0. -1.
         -5    1    4    4    0  503  0.20132352423E+02 -0.22180234866E+02 -0.13486517187E+03  0.13823161366E+03  0.47000000000E+01 0.  1.
          5    1    4    4  503    0 -0.56240449578E+02  0.40218710829E+02 -0.29195701455E+03  0.30006919404E+03  0.47000000000E+01 0. -1.
         -5    1    3    3    0  502  0.90916271518E+01 -0.51964782152E+02 -0.17411182849E+02  0.55751552055E+02  0.47000000000E+01 0.  1.
<mgrwt>
<rscale>  0 0.99730921E+02</rscale>
<asrwt>0</asrwt>
<pdfrwt beam="1">  1        2 0.74949724E-01 0.99757412E+02</pdfrwt>
<pdfrwt beam="2">  1       -2 0.78915692E-02 0.99757412E+02</pdfrwt>
<totfact> 0.58417744E+03</totfact>
</mgrwt>
</event>
<event>
 8    1  0.6396648E-004  0.1468854E+03  0.7546771E-02  0.1205397E+00
         -1   -1    0    0    0  501 -0.00000000000E+00  0.00000000000E+00  0.88415895412E+02  0.88415895412E+02  0.00000000000E+00 0.  1.
          1   -1    0    0  501    0  0.00000000000E+00 -0.00000000000E+00 -0.24838541723E+03  0.24838541723E+03  0.00000000000E+00 0. -1.
         23    2    1    2    0    0 -0.59002349520E+02  0.93907120709E+02 -0.47466997011E+02  0.15436460165E+03  0.96309344658E+02 0.  0.
         23    2    1    2    0    0  0.59002349520E+02 -0.93907120709E+02 -0.11250252480E+03  0.18243671099E+03  0.91249717043E+02 0.  0.
          5    1    3    3  502    0  0.10532518709E+02  0.73118712029E+02 -0.27247348851E+02  0.78878311459E+02  0.47000000000E+01 0. -1.
         -5    1    3    3    0  502 -0.69534868230E+02  0.20788408680E+02 -0.20219648160E+02  0.75486290192E+02  0.47000000000E+01 0.  1.
          5    1    4    4  503    0  0.34240481499E+02 -0.10790900469E+03 -0.78442003945E+02  0.13781147212E+03  0.47000000000E+01 0. -1.
         -5    1    4    4    0  503  0.24761868021E+02  0.14001883976E+02 -0.34060520859E+02  0.44625238867E+02  0.47000000000E+01 0.  1.
<mgrwt>
<rscale>  0 0.14606181E+03</rscale>
<asrwt>0</asrwt>
<pdfrwt beam="1">  1        1 0.38213141E-01 0.14688538E+03</pdfrwt>
<pdfrwt beam="2">  1       -1 0.13602445E-01 0.14688538E+03</pdfrwt>
<totfact> 0.40410149E+03</totfact>
</mgrwt>
</event>
<event>
 8    1  0.6396648E-004  0.1048072E+03  0.7546771E-02  0.1275701E+00
          1   -1    0    0  501    0  0.00000000000E+00  0.00000000000E+00  0.25892789219E+03  0.25892789219E+03  0.00000000000E+00 0. -1.
         -1   -1    0    0    0  501 -0.00000000000E+00 -0.00000000000E+00 -0.69187620208E+02  0.69187620208E+02  0.00000000000E+00 0.  1.
         23    2    1    2    0    0 -0.73359428659E+01 -0.52139393514E+02  0.20673058868E+03  0.23178022999E+03  0.90621224378E+02 0.  0.
         23    2    1    2    0    0  0.73359428659E+01  0.52139393514E+02 -0.16990316691E+02  0.96335282408E+02  0.78863701166E+02 0.  0.
          5    1    4    4  502    0  0.23956999936E+02  0.46072051953E+01 -0.34764350869E+02  0.42729548055E+02  0.47000000000E+01 0. -1.
         -5    1    4    4    0  502 -0.16621057070E+02  0.47532188319E+02  0.17774034178E+02  0.53605734352E+02  0.47000000000E+01 0.  1.
          5    1    3    3  503    0 -0.15768515201E+02 -0.13348052169E+02  0.18513853952E+03  0.18634694895E+03  0.47000000000E+01 0. -1.
         -5    1    3    3    0  503  0.84325723354E+01 -0.38791341345E+02  0.21592049160E+02  0.45433281045E+02  0.47000000000E+01 0.  1.
<mgrwt>
<rscale>  0 0.10221723E+03</rscale>
<asrwt>0</asrwt>
<pdfrwt beam="1">  1        1 0.39835060E-01 0.10480715E+03</pdfrwt>
<pdfrwt beam="2">  1       -1 0.10644249E-01 0.10480715E+03</pdfrwt>
<totfact> 0.54892980E+03</totfact>
</mgrwt>
</event>
<event>
 8    1  0.6396648E-004  0.9525250E+02  0.7546771E-02  0.1291492E+00
          2   -1    0    0  501    0  0.00000000000E+00  0.00000000000E+00  0.80120856791E+03  0.80120856791E+03  0.00000000000E+00 0. -1.
         -2   -1    0    0    0  501 -0.00000000000E+00 -0.00000000000E+00 -0.14278415338E+02  0.14278415338E+02  0.00000000000E+00 0.  1.
         23    2    1    2    0    0 -0.25996214657E+02  0.64002603828E+01  0.58717529107E+03  0.59485112472E+03  0.91412644789E+02 0.  0.
         23    2    1    2    0    0  0.25996214657E+02 -0.64002603828E+01  0.19975486151E+03  0.22063585854E+03  0.89785359975E+02 0.  0.
          5    1    4    4  502    0 -0.52232041565E+01  0.36941575198E+02  0.10802862990E+03  0.11438634848E+03  0.47000000000E+01 0. -1.
         -5    1    3    3    0  503  0.11286966336E+01 -0.38674425165E+02  0.33107657560E+03  0.33336282640E+03  0.47000000000E+01 0.  1.
          5    1    3    3  503    0 -0.27124911290E+02  0.45074685548E+02  0.25609871547E+03  0.26148829831E+03  0.47000000000E+01 0. -1.
         -5    1    4    4    0  502  0.31219418813E+02 -0.43341835581E+02  0.91726231606E+02  0.10624951006E+03  0.47000000000E+01 0.  1.
<mgrwt>
<rscale>  0 0.94859934E+02</rscale>
<asrwt>0</asrwt>
<pdfrwt beam="1">  1        2 0.12326282E+00 0.95252497E+02</pdfrwt>
<pdfrwt beam="2">  1       -2 0.21966799E-02 0.95252497E+02</pdfrwt>
<totfact> 0.21889516E+04</totfact>
</mgrwt>
</event>
<event>
 8    1  0.6396648E-004  0.1004873E+03  0.7546771E-02  0.1280784E+00
         -2   -1    0    0    0  501 -0.00000000000E+00  0.00000000000E+00  0.18286268868E+03  0.18286268868E+03  0.00000000000E+00 0.  1.
          2   -1    0    0  501    0  0.00000000000E+00 -0.00000000000E+00 -0.79041424668E+02  0.79041424668E+02  0.00000000000E+00 0. -1.
         23    2    1    2    0    0  0.58860531355E+01 -0.38620620795E+02  0.12559491195E+03  0.15908485878E+03  0.89485822416E+02 0.  0.
         23    2    1    2    0    0 -0.58860531355E+01  0.38620620795E+02 -0.21773647937E+02  0.10281925457E+03  0.92582446465E+02 0.  0.
          5    1    4    4  502    0  0.17908519830E+02 -0.11175587546E+02 -0.39186244515E+02  0.44757799305E+02  0.47000000000E+01 0. -1.
         -5    1    4    4    0  502 -0.23794572965E+02  0.49796208340E+02  0.17412596578E+02  0.58061455263E+02  0.47000000000E+01 0.  1.
          5    1    3    3  503    0 -0.36979024428E+02 -0.18001477414E+02  0.91331198535E+02  0.10027451951E+03  0.47000000000E+01 0. -1.
         -5    1    3    3    0  503  0.42865077563E+02 -0.20619143381E+02  0.34263713410E+02  0.58810339269E+02  0.47000000000E+01 0.  1.
<mgrwt>
<rscale>  0 0.99768266E+02</rscale>
<asrwt>0</asrwt>
<pdfrwt beam="1">  1        2 0.12160219E-01 0.10048735E+03</pdfrwt>
<pdfrwt beam="2">  1       -2 0.28132721E-01 0.10048735E+03</pdfrwt>
<totfact> 0.53696213E+03</totfact>
</mgrwt>
</event>
<event>
 8    1  0.6396648E-004  0.1254538E+03  0.7546771E-02  0.1234573E+00
          1   -1    0    0  501    0  0.00000000000E+00  0.00000000000E+00  0.38045075209E+03  0.38045075209E+03  0.00000000000E+00 0. -1.
         -1   -1    0    0    0  501 -0.00000000000E+00 -0.00000000000E+00 -0.43334160034E+02  0.43334160034E+02  0.00000000000E+00 0.  1.
         23    2    1    2    0    0 -0.84434775381E+02  0.90881290152E+01  0.12176831651E+03  0.17483188125E+03  0.92340881603E+02 0.  0.
         23    2    1    2    0    0  0.84434775381E+02 -0.90881290152E+01  0.21534827555E+03  0.24895303087E+03  0.91601890893E+02 0.  0.
          5    1    4    4  502    0  0.68644961682E+02 -0.45523288211E+02  0.12067404852E+03  0.14618076658E+03  0.47000000000E+01 0. -1.
         -5    1    4    4    0  502  0.15789813699E+02  0.36435159196E+02  0.94674227036E+02  0.10277226429E+03  0.47000000000E+01 0.  1.
          5    1    3    3  503    0 -0.12046982939E+02  0.43255839538E+02  0.47600507183E+02  0.65605607506E+02  0.47000000000E+01 0. -1.
         -5    1    3    3    0  503 -0.72387792442E+02 -0.34167710523E+02  0.74167809322E+02  0.10922627375E+03  0.47000000000E+01 0.  1.
<mgrwt>
<rscale>  0 0.12531788E+03</rscale>
<asrwt>0</asrwt>
<pdfrwt beam="1">  1        1 0.58530883E-01 0.12545383E+03</pdfrwt>
<pdfrwt beam="2">  1       -1 0.66667941E-02 0.12545383E+03</pdfrwt>
<totfact> 0.69892977E+03</totfact>
</mgrwt>
</event>
<event>
 8    1  0.6396648E-004  0.9551634E+02  0.7546771E-02  0.1290031E+00
          1   -1    0    0  501    0  0.00000000000E+00  0.00000000000E+00  0.71302955820E+03  0.71302955820E+03  0.00000000000E+00 0. -1.
         -1   -1    0    0    0  501 -0.00000000000E+00 -0.00000000000E+00 -0.13120773945E+02  0.13120773945E+02  0.00000000000E+00 0.  1.
         23    2    1    2    0    0  0.30285582905E+02  0.13071109693E+02  0.29244297838E+03  0.30763897698E+03  0.89614586485E+02 0.  0.
         23    2    1    2    0    0 -0.30285582905E+02 -0.13071109693E+02  0.40746580588E+03  0.41851135517E+03  0.89639840517E+02 0.  0.
          5    1    3    3  502    0 -0.63843793448E+01 -0.30045676611E+02  0.51984502367E+02  0.60563862732E+02  0.47000000000E+01 0. -1.
         -5    1    3    3    0  502  0.36669962250E+02  0.43116786304E+02  0.24045847602E+03  0.24707511425E+03  0.47000000000E+01 0.  1.
          5    1    4    4  503    0 -0.29643926440E+02  0.28293899638E+02  0.99014378821E+02  0.10726250204E+03  0.47000000000E+01 0.  1.
         -5    1    4    4    0  503 -0.64165646538E+00 -0.41365009331E+02  0.30845142705E+03  0.31124885313E+03  0.47000000000E+01 0. -1.
<mgrwt>
<rscale>  0 0.95510416E+02</rscale>
<asrwt>0</asrwt>
<pdfrwt beam="1">  1        1 0.10969683E+00 0.95516341E+02</pdfrwt>
<pdfrwt beam="2">  1       -1 0.20185812E-02 0.95516341E+02</pdfrwt>
<totfact> 0.17097314E+04</totfact>
</mgrwt>
</event>
<event>
 8    1  0.6396648E-004  0.1610661E+03  0.7546771E-02  0.1193187E+00
          3   -1    0    0  501    0  0.00000000000E+00  0.00000000000E+00  0.15553596268E+03  0.15553596268E+03  0.00000000000E+00 0. -1.
         -3   -1    0    0    0  501 -0.00000000000E+00 -0.00000000000E+00 -0.31845542642E+03  0.31845542642E+03  0.00000000000E+00 0.  1.
         23    2    1    2    0    0 -0.79322565493E+02  0.74489495922E+02 -0.25722065382E+03  0.30348764050E+03  0.11874985805E+03 0.  0.
         23    2    1    2    0    0  0.79322565493E+02 -0.74489495922E+02  0.94301190088E+02  0.17050374859E+03  0.91312975164E+02 0.  0.
          5    1    4    4  502    0 -0.59258433517E+01 -0.30435181996E+02  0.61412593443E+02  0.68956599075E+02  0.47000000000E+01 0. -1.
         -5    1    4    4    0  502  0.85248408845E+02 -0.44054313926E+02  0.32888596644E+02  0.10154714952E+03  0.47000000000E+01 0.  1.
          5    1    3    3  503    0  0.28349427202E+02  0.26855775349E+02 -0.38457618672E+02  0.55009100394E+02  0.47000000000E+01 0. -1.
         -5    1    3    3    0  503 -0.10767199269E+03  0.47633720573E+02 -0.21876303515E+03  0.24847854011E+03  0.47000000000E+01 0.  1.
<mgrwt>
<rscale>  0 0.15608639E+03</rscale>
<asrwt>0</asrwt>
<pdfrwt beam="1">  1        3 0.23928610E-01 0.16106608E+03</pdfrwt>
<pdfrwt beam="2">  1       -3 0.48993142E-01 0.16106608E+03</pdfrwt>
<totfact> 0.16168313E+02</totfact>
</mgrwt>
</event>
<event>
 8    1  0.6396648E-004  0.1107740E+03  0.7546771E-02  0.1259158E+00
          3   -1    0    0  501    0  0.00000000000E+00  0.00000000000E+00  0.53819498431E+03  0.53819498431E+03  0.00000000000E+00 0. -1.
         -3   -1    0    0    0  501 -0.00000000000E+00 -0.00000000000E+00 -0.24222829148E+02  0.24222829148E+02  0.00000000000E+00 0.  1.
         23    2    1    2    0    0  0.31944837430E+02  0.45077417029E+02  0.18863472744E+03  0.21873871663E+03  0.95974577860E+02 0.  0.
         23    2    1    2    0    0 -0.31944837430E+02 -0.45077417029E+02  0.32533742773E+03  0.34367909683E+03  0.96012673902E+02 0.  0.
          5    1    4    4  502    0 -0.18507276173E+02  0.23607945776E+02  0.17708904522E+03  0.17967324318E+03  0.47000000000E+01 0. -1.
         -5    1    3    3    0  503  0.38832721381E+02  0.45165944374E+01  0.18259786864E+02  0.43403798122E+02  0.47000000000E+01 0.  1.
          5    1    3    3  503    0 -0.68878839505E+01  0.40560822592E+02  0.17037494057E+03  0.17533491851E+03  0.47000000000E+01 0. -1.
         -5    1    4    4    0  502 -0.13437561258E+02 -0.68685362805E+02  0.14824838251E+03  0.16400585365E+03  0.47000000000E+01 0.  1.
<mgrwt>
<rscale>  0 0.11076575E+03</rscale>
<asrwt>0</asrwt>
<pdfrwt beam="1">  1        3 0.82799219E-01 0.11077400E+03</pdfrwt>
<pdfrwt beam="2">  1       -3 0.37265895E-02 0.11077400E+03</pdfrwt>
<totfact> 0.11194687E+03</totfact>
</mgrwt>
</event>
<event>
 8    1  0.6396648E-004  0.9133557E+02  0.7546771E-02  0.1302276E+00
          1   -1    0    0  501    0  0.00000000000E+00  0.00000000000E+00  0.27799607895E+02  0.27799607895E+02  0.00000000000E+00 0. -1.
         -1   -1    0    0    0  501 -0.00000000000E+00 -0.00000000000E+00 -0.56616512110E+03  0.56616512110E+03  0.00000000000E+00 0.  1.
         23    2    1    2    0    0 -0.15727652337E+02 -0.74552939059E+01 -0.48132110812E+03  0.48991039507E+03  0.89661840392E+02 0.  0.
         23    2    1    2    0    0  0.15727652337E+02  0.74552939059E+01 -0.57044405085E+02  0.10405433392E+03  0.85266053043E+02 0.  0.
          5    1    4    4  502    0  0.48078997411E+02  0.12019760144E+02 -0.49484317495E+02  0.70191540116E+02  0.47000000000E+01 0. -1.
         -5    1    4    4    0  502 -0.32351345074E+02 -0.45644662380E+01 -0.75600875902E+01  0.33862793808E+02  0.47000000000E+01 0.  1.
          5    1    3    3  503    0  0.35795624942E+02  0.52436167631E+01 -0.15257689138E+03  0.15687772329E+03  0.47000000000E+01 0. -1.
         -5    1    3    3    0  503 -0.51523277279E+02 -0.12698910669E+02 -0.32874421674E+03  0.33303267178E+03  0.47000000000E+01 0.  1.
<mgrwt>
<rscale>  0 0.90238147E+02</rscale>
<asrwt>0</asrwt>
<pdfrwt beam="1">  1        1 0.42768625E-02 0.91335569E+02</pdfrwt>
<pdfrwt beam="2">  1       -1 0.87102331E-01 0.91335569E+02</pdfrwt>
<totfact> 0.26610437E+03</totfact>
</mgrwt>
</event>
<event>
 8    1  0.6396648E-004  0.9479141E+02  0.7546771E-02  0.1291713E+00
          2   -1    0    0  501    0  0.00000000000E+00  0.00000000000E+00  0.59270872284E+03  0.59270872284E+03  0.00000000000E+00 0. -1.
         -2   -1    0    0    0  501 -0.00000000000E+00 -0.00000000000E+00 -0.16789203591E+02  0.16789203591E+02  0.00000000000E+00 0.  1.
         23    2    1    2    0    0 -0.14697865972E+02 -0.20288800368E+02  0.19263775865E+03  0.21469680250E+03  0.91420721200E+02 0.  0.
         23    2    1    2    0    0  0.14697865972E+02  0.20288800368E+02  0.38328176060E+03  0.39480112393E+03  0.91298175002E+02 0.  0.
          5    1    4    4  502    0  0.49580045856E+02  0.55607495966E+01  0.28501887791E+03  0.28939065923E+03  0.47000000000E+01 0. -1.
         -5    1    3    3    0  503 -0.35866533222E+02 -0.46757105292E+02  0.13933120765E+03  0.15135359436E+03  0.47000000000E+01 0.  1.
          5    1    3    3  503    0  0.21168667251E+02  0.26468304924E+02  0.53306550991E+02  0.63343208139E+02  0.47000000000E+01 0. -1.
         -5    1    4    4    0  502 -0.34882179884E+02  0.14728050771E+02  0.98262882692E+02  0.10541046470E+03  0.47000000000E+01 0.  1.
<mgrwt>
<rscale>  0 0.94761848E+02</rscale>
<asrwt>0</asrwt>
<pdfrwt beam="1">  1        2 0.91185941E-01 0.94791408E+02</pdfrwt>
<pdfrwt beam="2">  1       -2 0.25829549E-02 0.94791408E+02</pdfrwt>
<totfact> 0.24604321E+04</totfact>
</mgrwt>
</event>
<event>
 8    1  0.6396648E-004  0.1041513E+03  0.7546771E-02  0.1272063E+00
         -2   -1    0    0    0  501 -0.00000000000E+00  0.00000000000E+00  0.77070075343E+02  0.77070075343E+02  0.00000000000E+00 0.  1.
          2   -1    0    0  501    0  0.00000000000E+00 -0.00000000000E+00 -0.16316181608E+03  0.16316181608E+03  0.00000000000E+00 0. -1.
         23    2    1    2    0    0 -0.51024864864E+02  0.93060505059E+01  0.20774388036E+01  0.10417197312E+03  0.90318020466E+02 0.  0.
         23    2    1    2    0    0  0.51024864864E+02 -0.93060505059E+01 -0.88169179542E+02  0.13605991831E+03  0.89712639791E+02 0.  0.
          5    1    4    4  502    0  0.72042083803E+02 -0.25396412041E+02 -0.61349589467E+02  0.98086195313E+02  0.47000000000E+01 0. -1.
         -5    1    4    4    0  502 -0.21017218938E+02  0.16090361535E+02 -0.26819590075E+02  0.37973722994E+02  0.47000000000E+01 0.  1.
          5    1    3    3  503    0  0.26008312696E+02  0.32026612657E+01 -0.15657278478E+01  0.26668912092E+02  0.47000000000E+01 0. -1.
         -5    1    3    3    0  503 -0.77033177560E+02  0.61033892402E+01  0.36431666514E+01  0.77503061026E+02  0.47000000000E+01 0.  1.
<mgrwt>
<rscale>  0 0.10401987E+03</rscale>
<asrwt>0</asrwt>
<pdfrwt beam="1">  1        2 0.25101818E-01 0.10415126E+03</pdfrwt>
<pdfrwt beam="2">  1       -2 0.11856935E-01 0.10415126E+03</pdfrwt>
<totfact> 0.99422893E+03</totfact>
</mgrwt>
</event>
<event>
 8    1  0.6396648E-004  0.9169316E+02  0.7546771E-02  0.1299964E+00
          3   -1    0    0  501    0  0.00000000000E+00  0.00000000000E+00  0.17552695638E+02  0.17552695638E+02  0.00000000000E+00 0. -1.
         -3   -1    0    0    0  501 -0.00000000000E+00 -0.00000000000E+00 -0.50626878937E+03  0.50626878937E+03  0.00000000000E+00 0.  1.
         23    2    1    2    0    0 -0.40732023932E+01 -0.13441440974E+02 -0.31309594378E+03  0.32570517504E+03  0.88642696960E+02 0.  0.
         23    2    1    2    0    0  0.40732023932E+01  0.13441440974E+02 -0.17562014995E+03  0.19811630997E+03  0.90611102477E+02 0.  0.
          5    1    4    4  502    0 -0.14518687808E+02 -0.35519296063E+02 -0.84251824978E+02  0.92697749167E+02  0.47000000000E+01 0. -1.
         -5    1    4    4    0  502  0.18591890201E+02  0.48960737037E+02 -0.91368324975E+02  0.10541856080E+03  0.47000000000E+01 0.  1.
          5    1    3    3  503    0  0.12835937103E+02 -0.48464980440E+02 -0.16474839002E+03  0.17227227758E+03  0.47000000000E+01 0. -1.
         -5    1    3    3    0  503 -0.16909139496E+02  0.35023539466E+02 -0.14834755376E+03  0.15343289746E+03  0.47000000000E+01 0.  1.
<mgrwt>
<rscale>  0 0.91203075E+02</rscale>
<asrwt>0</asrwt>
<pdfrwt beam="1">  1        3 0.27004149E-02 0.91693158E+02</pdfrwt>
<pdfrwt beam="2">  1       -3 0.77887500E-01 0.91693158E+02</pdfrwt>
<totfact> 0.20205851E+03</totfact>
</mgrwt>
</event>
<event>
 8    1  0.6396648E-004  0.1393274E+03  0.7546771E-02  0.1217938E+00
         -1   -1    0    0    0  501 -0.00000000000E+00  0.00000000000E+00  0.21693487510E+02  0.21693487510E+02  0.00000000000E+00 0.  1.
          1   -1    0    0  501    0  0.00000000000E+00 -0.00000000000E+00 -0.10235127673E+04  0.10235127673E+04  0.00000000000E+00 0. -1.
         23    2    1    2    0    0  0.74172725024E+02 -0.47805786295E+02 -0.25723954746E+03  0.28770304565E+03  0.93882220691E+02 0.  0.
         23    2    1    2    0    0 -0.74172725024E+02  0.47805786295E+02 -0.74457973230E+03  0.75750320912E+03  0.10781997839E+03 0.  0.
          5    1    4    4  502    0 -0.26613531162E+02 -0.33973857531E+02 -0.28239989800E+03  0.28571715984E+03  0.47000000000E+01 0. -1.
         -5    1    3    3    0  503  0.57297077310E+02 -0.37792012201E+01 -0.53831669176E+02  0.78849071246E+02  0.47000000000E+01 0.  1.
          5    1    3    3  503    0  0.16875647714E+02 -0.44026585075E+02 -0.20340787828E+03  0.20885397441E+03  0.47000000000E+01 0. -1.
         -5    1    4    4    0  502 -0.47559193863E+02  0.81779643826E+02 -0.46217983429E+03  0.47178604928E+03  0.47000000000E+01 0.  1.
<mgrwt>
<rscale>  0 0.13662929E+03</rscale>
<asrwt>0</asrwt>
<pdfrwt beam="1">  1        1 0.15746352E+00 0.13932743E+03</pdfrwt>
<pdfrwt beam="2">  1       -1 0.33374592E-02 0.13932743E+03</pdfrwt>
<totfact> 0.48366864E+03</totfact>
</mgrwt>
</event>
<event>
 8    1  0.6396648E-004  0.1466060E+03  0.7546771E-02  0.1204837E+00
          1   -1    0    0  501    0  0.00000000000E+00  0.00000000000E+00  0.10067893399E+04  0.10067893399E+04  0.00000000000E+00 0. -1.
         -1   -1    0    0    0  501 -0.00000000000E+00 -0.00000000000E+00 -0.23401602371E+02  0.23401602371E+02  0.00000000000E+00 0.  1.
         23    2    1    2    0    0 -0.96174570114E+02  0.62388485864E+02  0.33628308266E+03  0.36668680576E+03  0.90725028138E+02 0.  0.
         23    2    1    2    0    0  0.96174570114E+02 -0.62388485864E+02  0.64710465489E+03  0.66350413653E+03  0.91386178974E+02 0.  0.
          5    1    3    3  502    0 -0.44090259546E+02  0.77154916014E+02  0.17211487277E+03  0.19375874556E+03  0.47000000000E+01 0. -1.
         -5    1    3    3    0  502 -0.52084310568E+02 -0.14766430150E+02  0.16416820988E+03  0.17292806020E+03  0.47000000000E+01 0.  1.
          5    1    4    4  503    0  0.74506748707E+02 -0.69448460840E+02  0.61744032031E+03  0.62580267134E+03  0.47000000000E+01 0. -1.
         -5    1    4    4    0  503  0.21667821407E+02  0.70599749764E+01  0.29664334582E+02  0.37701465189E+02  0.47000000000E+01 0.  1.
<mgrwt>
<rscale>  0 0.14650304E+03</rscale>
<asrwt>0</asrwt>
<pdfrwt beam="1">  1        1 0.15489063E+00 0.14660595E+03</pdfrwt>
<pdfrwt beam="2">  1       -1 0.36002473E-02 0.14660595E+03</pdfrwt>
<totfact> 0.44601613E+03</totfact>
</mgrwt>
</event>
<event>
 8    1  0.6396648E-004  0.1045812E+03  0.7546771E-02  0.1271757E+00
         -1   -1    0    0    0  501 -0.00000000000E+00  0.00000000000E+00  0.22881132938E+02  0.22881132938E+02  0.00000000000E+00 0.  1.
          1   -1    0    0  501    0  0.00000000000E+00 -0.00000000000E+00 -0.47159674324E+03  0.47159674324E+03  0.00000000000E+00 0. -1.
         23    2    1    2    0    0 -0.38108244111E+02 -0.28988560436E+02 -0.21483439570E+03  0.23893732613E+03  0.92976627923E+02 0.  0.
         23    2    1    2    0    0  0.38108244111E+02  0.28988560436E+02 -0.23388121460E+03  0.25554055004E+03  0.91148095242E+02 0.  0.
          5    1    3    3  502    0 -0.24173310869E+02 -0.51482288806E+02 -0.20053093840E+03  0.20849345859E+03  0.47000000000E+01 0. -1.
         -5    1    3    3    0  502 -0.13934933241E+02  0.22493728370E+02 -0.14303457298E+02  0.30443867545E+02  0.47000000000E+01 0.  1.
          5    1    4    4  503    0  0.67770566437E+02  0.26150238989E+02 -0.16519887985E+03  0.18052546795E+03  0.47000000000E+01 0. -1.
         -5    1    4    4    0  503 -0.29662322326E+02  0.28383214478E+01 -0.68682334750E+02  0.75015082091E+02  0.47000000000E+01 0.  1.
<mgrwt>
<rscale>  0 0.10417327E+03</rscale>
<asrwt>0</asrwt>
<pdfrwt beam="1">  1        1 0.72553347E-01 0.10458120E+03</pdfrwt>
<pdfrwt beam="2">  1       -1 0.35201742E-02 0.10458120E+03</pdfrwt>
<totfact> 0.13452594E+04</totfact>
</mgrwt>
</event>
<event>
 8    1  0.6396648E-004  0.2244199E+03  0.7546771E-02  0.1130853E+00
          1   -1    0    0  501    0  0.00000000000E+00  0.00000000000E+00  0.13630334901E+03  0.13630334901E+03  0.00000000000E+00 0. -1.
         -1   -1    0    0    0  501 -0.00000000000E+00 -0.00000000000E+00 -0.37152903165E+03  0.37152903165E+03  0.00000000000E+00 0.  1.
         23    2    1    2    0    0 -0.73629793800E+02  0.18914199918E+03 -0.14376669825E+03  0.26549166725E+03  0.92848906637E+02 0.  0.
         23    2    1    2    0    0  0.73629793800E+02 -0.18914199918E+03 -0.91458984384E+02  0.24234071341E+03  0.95750891182E+02 0.  0.
          5    1    3    3  502    0 -0.74569484717E+02  0.16228191892E+03 -0.15447687929E+03  0.23618049347E+03  0.47000000000E+01 0. -1.
         -5    1    4    4    0  503  0.86846416412E+02 -0.93723567061E+02 -0.48294039737E+02  0.13667776462E+03  0.47000000000E+01 0.  1.
          5    1    4    4  503    0 -0.13216622612E+02 -0.95418432120E+02 -0.43164944647E+02  0.10566294879E+03  0.47000000000E+01 0. -1.
         -5    1    3    3    0  502  0.93969091639E+00  0.26860080264E+02  0.10710181037E+02  0.29311173785E+02  0.47000000000E+01 0.  1.
<mgrwt>
<rscale>  0 0.22411356E+03</rscale>
<asrwt>0</asrwt>
<pdfrwt beam="1">  1        1 0.20969747E-01 0.22441986E+03</pdfrwt>
<pdfrwt beam="2">  1       -1 0.57158311E-01 0.22441986E+03</pdfrwt>
<totfact> 0.76627565E+02</totfact>
</mgrwt>
</event>
<event>
 8    1  0.6396648E-004  0.9834515E+02  0.7546771E-02  0.1285659E+00
         -1   -1    0    0    0  501 -0.00000000000E+00  0.00000000000E+00  0.49925819727E+02  0.49925819727E+02  0.00000000000E+00 0.  1.
          1   -1    0    0  501    0  0.00000000000E+00 -0.00000000000E+00 -0.18915620975E+03  0.18915620975E+03  0.00000000000E+00 0. -1.
         23    2    1    2    0    0 -0.24352493674E+02 -0.21460966999E+02 -0.80734424962E+02  0.12465499025E+03  0.89259185338E+02 0.  0.
         23    2    1    2    0    0  0.24352493674E+02  0.21460966999E+02 -0.58495965060E+02  0.11442703923E+03  0.92834004144E+02 0.  0.
          5    1    3    3  502    0  0.31820659634E+02 -0.18571050117E+02 -0.42695921133E+02  0.56590369882E+02  0.47000000000E+01 0. -1.
         -5    1    3    3    0  502 -0.56173153308E+02 -0.28899168814E+01 -0.38038503829E+02  0.68064620367E+02  0.47000000000E+01 0.  1.
          5    1    4    4  503    0  0.22216277608E+02  0.48191161650E+02 -0.67283059880E+02  0.85819876478E+02  0.47000000000E+01 0. -1.
         -5    1    4    4    0  503  0.21362160663E+01 -0.26730194651E+02  0.87870948197E+01  0.28607162749E+02  0.47000000000E+01 0.  1.
<mgrwt>
<rscale>  0 0.97492335E+02</rscale>
<asrwt>0</asrwt>
<pdfrwt beam="1">  1        1 0.29100955E-01 0.98345154E+02</pdfrwt>
<pdfrwt beam="2">  1       -1 0.76808953E-02 0.98345154E+02</pdfrwt>
<totfact> 0.13128128E+04</totfact>
</mgrwt>
</event>
<event>
 8    1  0.6396648E-004  0.1189022E+03  0.7546771E-02  0.1248674E+00
          1   -1    0    0  501    0  0.00000000000E+00  0.00000000000E+00  0.47359836880E+02  0.47359836880E+02  0.00000000000E+00 0. -1.
         -1   -1    0    0    0  501 -0.00000000000E+00 -0.00000000000E+00 -0.50006438246E+03  0.50006438246E+03  0.00000000000E+00 0.  1.
         23    2    1    2    0    0  0.55243612671E+02 -0.30068363773E+02 -0.40426653981E+03  0.41903427629E+03  0.90566695103E+02 0.  0.
         23    2    1    2    0    0 -0.55243612671E+02  0.30068363773E+02 -0.48438005773E+02  0.12838994304E+03  0.10090477606E+03 0.  0.
          5    1    3    3  502    0 -0.83981808179E+01 -0.36598021606E+02 -0.23485850307E+03  0.23788768587E+03  0.47000000000E+01 0. -1.
         -5    1    3    3    0  502  0.63641793489E+02  0.65296578332E+01 -0.16940803674E+03  0.18114659042E+03  0.47000000000E+01 0.  1.
          5    1    4    4  503    0  0.26902991226E+01 -0.31779245538E+02 -0.37056406303E+01  0.32449652215E+02  0.47000000000E+01 0. -1.
         -5    1    4    4    0  503 -0.57933911794E+02  0.61847609312E+02 -0.44732365142E+02  0.95940290830E+02  0.47000000000E+01 0.  1.
<mgrwt>
<rscale>  0 0.11668137E+03</rscale>
<asrwt>0</asrwt>
<pdfrwt beam="1">  1        1 0.72861284E-02 0.11890222E+03</pdfrwt>
<pdfrwt beam="2">  1       -1 0.76932986E-01 0.11890222E+03</pdfrwt>
<totfact> 0.16947446E+03</totfact>
</mgrwt>
</event>
<event>
 8    1  0.6396648E-004  0.1107395E+03  0.7546771E-02  0.1267265E+00
          1   -1    0    0  501    0  0.00000000000E+00  0.00000000000E+00  0.66940467712E+03  0.66940467712E+03  0.00000000000E+00 0. -1.
         -1   -1    0    0    0  501 -0.00000000000E+00 -0.00000000000E+00 -0.30476145365E+02  0.30476145365E+02  0.00000000000E+00 0.  1.
         23    2    1    2    0    0 -0.10907177275E+02 -0.33915302200E+02  0.89546521885E+02  0.14241421242E+03  0.10485234417E+03 0.  0.
         23    2    1    2    0    0  0.10907177275E+02  0.33915302200E+02  0.54938200987E+03  0.55746661007E+03  0.87631126475E+02 0.  0.
          5    1    3    3  502    0 -0.12718834978E+02 -0.68122304852E+02  0.81181698626E+02  0.10684088812E+03  0.47000000000E+01 0. -1.
         -5    1    3    3    0  502  0.18116577027E+01  0.34207002652E+02  0.83648232593E+01  0.35573324307E+02  0.47000000000E+01 0.  1.
          5    1    4    4  503    0  0.12680036066E+02  0.62828151374E+02  0.41229230257E+03  0.41727112610E+03  0.47000000000E+01 0. -1.
         -5    1    4    4    0  503 -0.17728587906E+01 -0.28912849174E+02  0.13708970730E+03  0.14019548396E+03  0.47000000000E+01 0.  1.
<mgrwt>
<rscale>  0 0.10646213E+03</rscale>
<asrwt>0</asrwt>
<pdfrwt beam="1">  1        1 0.10298532E+00 0.11073946E+03</pdfrwt>
<pdfrwt beam="2">  1       -1 0.46886382E-02 0.11073946E+03</pdfrwt>
<totfact> 0.55787298E+03</totfact>
</mgrwt>
</event>
<event>
 8    1  0.6396648E-004  0.1119992E+03  0.7546771E-02  0.1260816E+00
          1   -1    0    0  501    0  0.00000000000E+00  0.00000000000E+00  0.38810046156E+02  0.38810046156E+02  0.00000000000E+00 0. -1.
         -1   -1    0    0    0  501 -0.00000000000E+00 -0.00000000000E+00 -0.75663191357E+03  0.75663191357E+03  0.00000000000E+00 0.  1.
         23    2    1    2    0    0  0.20414273270E+02 -0.62777127663E+02 -0.66241903569E+03  0.67048883104E+03  0.79991145714E+02 0.  0.
         23    2    1    2    0    0 -0.20414273270E+02  0.62777127663E+02 -0.55402831723E+02  0.12495312869E+03  0.90477070547E+02 0.  0.
          5    1    3    3  502    0  0.28173560009E+02  0.90297998846E+01 -0.24724967999E+03  0.24905778652E+03  0.47000000000E+01 0. -1.
         -5    1    4    4    0  503 -0.43636499980E+02  0.31082783720E+02 -0.64870630719E+02  0.84264893664E+02  0.47000000000E+01 0.  1.
          5    1    4    4  503    0  0.23222226711E+02  0.31694343943E+02  0.94677989960E+01  0.40688235022E+02  0.47000000000E+01 0. -1.
         -5    1    3    3    0  502 -0.77592867397E+01 -0.71806927548E+02 -0.41516935570E+03  0.42143104453E+03  0.47000000000E+01 0.  1.
<mgrwt>
<rscale>  0 0.10986741E+03</rscale>
<asrwt>0</asrwt>
<pdfrwt beam="1">  1        1 0.59707761E-02 0.11199915E+03</pdfrwt>
<pdfrwt beam="2">  1       -1 0.11640491E+00 0.11199915E+03</pdfrwt>
<totfact> 0.90612673E+02</totfact>
</mgrwt>
</event>
<event>
 8    1  0.6396648E-004  0.1309538E+03  0.7546771E-02  0.1226585E+00
         -1   -1    0    0    0  501 -0.00000000000E+00  0.00000000000E+00  0.41380749934E+03  0.41380749934E+03  0.00000000000E+00 0.  1.
          1   -1    0    0  501    0  0.00000000000E+00 -0.00000000000E+00 -0.47319401897E+02  0.47319401897E+02  0.00000000000E+00 0. -1.
         23    2    1    2    0    0 -0.26858742589E+01 -0.93162042418E+02  0.97987208997E+02  0.16239353234E+03  0.89909877930E+02 0.  0.
         23    2    1    2    0    0  0.26858742589E+01  0.93162042418E+02  0.26850088845E+03  0.29873336890E+03  0.91991948183E+02 0.  0.
          5    1    3    3  502    0 -0.26166263753E+02 -0.45171111816E+02  0.20158590124E+01  0.52452420241E+02  0.47000000000E+01 0. -1.
         -5    1    3    3    0  502  0.23480389494E+02 -0.47990930602E+02  0.95971349985E+02  0.10994111210E+03  0.47000000000E+01 0.  1.
          5    1    4    4  503    0  0.20656032438E+02  0.72614606856E+02  0.25841086001E+03  0.26925418358E+03  0.47000000000E+01 0. -1.
         -5    1    4    4    0  503 -0.17970158180E+02  0.20547435562E+02  0.10090028433E+02  0.29479185317E+02  0.47000000000E+01 0.  1.
<mgrwt>
<rscale>  0 0.13058875E+03</rscale>
<asrwt>0</asrwt>
<pdfrwt beam="1">  1        1 0.72799083E-02 0.13095380E+03</pdfrwt>
<pdfrwt beam="2">  1       -1 0.63662690E-01 0.13095380E+03</pdfrwt>
<totfact> 0.24747445E+03</totfact>
</mgrwt>
</event>
<event>
 8    1  0.6396648E-004  0.1123495E+03  0.7546771E-02  0.1257341E+00
         -2   -1    0    0    0  501 -0.00000000000E+00  0.00000000000E+00  0.25369400146E+03  0.25369400146E+03  0.00000000000E+00 0.  1.
          2   -1    0    0  501    0  0.00000000000E+00 -0.00000000000E+00 -0.60156927848E+02  0.60156927848E+02  0.00000000000E+00 0. -1.
         23    2    1    2    0    0 -0.63841208077E+02  0.44223412229E+01  0.16434438492E+03  0.19777070967E+03  0.89492568400E+02 0.  0.
         23    2    1    2    0    0  0.63841208077E+02 -0.44223412229E+01  0.29192688693E+02  0.11608021964E+03  0.92342554477E+02 0.  0.
          5    1    4    4  502    0  0.34026228183E+01 -0.39301418608E+02 -0.13790501857E+01  0.39751366342E+02  0.47000000000E+01 0. -1.
         -5    1    4    4    0  502  0.60438585259E+02  0.34879077385E+02  0.30571738879E+02  0.76328853296E+02  0.47000000000E+01 0.  1.
          5    1    3    3  503    0 -0.55856708783E+02 -0.32892126602E+02  0.68123880969E+02  0.94153157497E+02  0.47000000000E+01 0. -1.
         -5    1    3    3    0  503 -0.79844992944E+01  0.37314467825E+02  0.96220503954E+02  0.10361755218E+03  0.47000000000E+01 0.  1.
<mgrwt>
<rscale>  0 0.11176226E+03</rscale>
<asrwt>0</asrwt>
<pdfrwt beam="1">  1        2 0.92549121E-02 0.11234947E+03</pdfrwt>
<pdfrwt beam="2">  1       -2 0.39029846E-01 0.11234947E+03</pdfrwt>
<totfact> 0.41523564E+03</totfact>
</mgrwt>
</event>
<event>
 8    1  0.6396648E-004  0.9896189E+02  0.7546771E-02  0.1283626E+00
         -4   -1    0    0    0  501 -0.00000000000E+00  0.00000000000E+00  0.79028336897E+02  0.79028336897E+02  0.00000000000E+00 0.  1.
          4   -1    0    0  501    0  0.00000000000E+00 -0.00000000000E+00 -0.17821111365E+03  0.17821111365E+03  0.00000000000E+00 0. -1.
         23    2    1    2    0    0 -0.28724227855E+02  0.14528966727E+02  0.22722180570E+02  0.10153694998E+03  0.93580353607E+02 0.  0.
         23    2    1    2    0    0  0.28724227855E+02 -0.14528966727E+02 -0.12190495732E+03  0.15570250057E+03  0.91357965844E+02 0.  0.
          5    1    4    4  502    0  0.42161421012E+02 -0.44237501261E+02 -0.61082157361E+02  0.86531276931E+02  0.47000000000E+01 0. -1.
         -5    1    4    4    0  502 -0.13437193157E+02  0.29708534534E+02 -0.60822799964E+02  0.69171223638E+02  0.47000000000E+01 0.  1.
          5    1    3    3  503    0 -0.57971320855E+02  0.30064376620E+02  0.16411503133E+02  0.67497912696E+02  0.47000000000E+01 0.  1.
         -5    1    3    3    0  503  0.29247093000E+02 -0.15535409893E+02  0.63106774363E+01  0.34039037284E+02  0.47000000000E+01 0. -1.
<mgrwt>
<rscale>  0 0.98432950E+02</rscale>
<asrwt>0</asrwt>
<pdfrwt beam="1">  1        4 0.27417094E-01 0.98961885E+02</pdfrwt>
<pdfrwt beam="2">  1       -4 0.12158206E-01 0.98961885E+02</pdfrwt>
<totfact> 0.10521148E+03</totfact>
</mgrwt>
</event>
<event>
 8    1  0.6396648E-004  0.9712389E+02  0.7546771E-02  0.1288498E+00
          2   -1    0    0  501    0  0.00000000000E+00  0.00000000000E+00  0.16817808380E+03  0.16817808380E+03  0.00000000000E+00 0. -1.
         -2   -1    0    0    0  501 -0.00000000000E+00 -0.00000000000E+00 -0.88918544327E+02  0.88918544327E+02  0.00000000000E+00 0.  1.
         23    2    1    2    0    0 -0.21916642817E+02 -0.20418069678E+02 -0.40452662543E+02  0.10521153432E+03  0.92389459601E+02 0.  0.
         23    2    1    2    0    0  0.21916642817E+02  0.20418069678E+02  0.11971220201E+03  0.15188509380E+03  0.88548481678E+02 0.  0.
          5    1    4    4  502    0 -0.20186268846E+02 -0.42644089167E+01  0.94330206934E+02  0.96674446332E+02  0.47000000000E+01 0. -1.
         -5    1    4    4    0  502  0.42102911663E+02  0.24682478595E+02  0.25381995077E+02  0.55210647472E+02  0.47000000000E+01 0.  1.
          5    1    3    3  503    0 -0.46316139028E+02  0.16405505817E+02 -0.34880192636E+02  0.60440410272E+02  0.47000000000E+01 0. -1.
         -5    1    3    3    0  503  0.24399496211E+02 -0.36823575495E+02 -0.55724699064E+01  0.44771124047E+02  0.47000000000E+01 0.  1.
<mgrwt>
<rscale>  0 0.96199204E+02</rscale>
<asrwt>0</asrwt>
<pdfrwt beam="1">  1        2 0.25873551E-01 0.97123885E+02</pdfrwt>
<pdfrwt beam="2">  1       -2 0.13679776E-01 0.97123885E+02</pdfrwt>
<totfact> 0.76133601E+03</totfact>
</mgrwt>
</event>
<event>
 8    1  0.6396648E-004  0.9633482E+02  0.7546771E-02  0.1295278E+00
          2   -1    0    0  501    0  0.00000000000E+00  0.00000000000E+00  0.23235837801E+03  0.23235837801E+03  0.00000000000E+00 0. -1.
         -2   -1    0    0    0  501 -0.00000000000E+00 -0.00000000000E+00 -0.79722021691E+02  0.79722021691E+02  0.00000000000E+00 0.  1.
         23    2    1    2    0    0  0.18308917108E+02  0.21940116160E+02 -0.38028825393E+02  0.10356924657E+03  0.91998978965E+02 0.  0.
         23    2    1    2    0    0 -0.18308917108E+02 -0.21940116160E+02  0.19066518172E+03  0.20851115314E+03  0.79417279742E+02 0.  0.
          5    1    4    4  502    0 -0.33695721903E+01 -0.49879796601E+02  0.13822282336E+03  0.14706116762E+03  0.47000000000E+01 0. -1.
         -5    1    3    3    0  503  0.34146787298E+02 -0.20296907087E+01 -0.58535360102E+02  0.67960290681E+02  0.47000000000E+01 0.  1.
          5    1    3    3  503    0 -0.15837870190E+02  0.23969806868E+02  0.20506534709E+02  0.35608955885E+02  0.47000000000E+01 0. -1.
         -5    1    4    4    0  502 -0.14939344918E+02  0.27939680441E+02  0.52442358361E+02  0.61449985519E+02  0.47000000000E+01 0.  1.
<mgrwt>
<rscale>  0 0.93202076E+02</rscale>
<asrwt>0</asrwt>
<pdfrwt beam="1">  1        2 0.35747442E-01 0.96334819E+02</pdfrwt>
<pdfrwt beam="2">  1       -2 0.12264927E-01 0.96334819E+02</pdfrwt>
<totfact> 0.64058677E+03</totfact>
</mgrwt>
</event>
<event>
 8    1  0.6396648E-004  0.1363182E+03  0.7546771E-02  0.1219250E+00
          2   -1    0    0  501    0  0.00000000000E+00  0.00000000000E+00  0.44664567403E+03  0.44664567403E+03  0.00000000000E+00 0. -1.
         -2   -1    0    0    0  501 -0.00000000000E+00 -0.00000000000E+00 -0.97042698623E+02  0.97042698623E+02  0.00000000000E+00 0.  1.
         23    2    1    2    0    0 -0.71985546368E+02  0.67441292057E+02 -0.31382627950E+02  0.13988396196E+03  0.94087229302E+02 0.  0.
         23    2    1    2    0    0  0.71985546368E+02 -0.67441292057E+02  0.38098560336E+03  0.40380441069E+03  0.90430776648E+02 0.  0.
          5    1    3    3  502    0 -0.49508515823E+02  0.11215050000E+02  0.25207033981E+02  0.56871390414E+02  0.47000000000E+01 0. -1.
         -5    1    4    4    0  503 -0.60664844184E+01 -0.53900842979E+02  0.15839001967E+03  0.16748609327E+03  0.47000000000E+01 0.  1.
          5    1    4    4  503    0  0.78052030787E+02 -0.13540449078E+02  0.22259558368E+03  0.23631831742E+03  0.47000000000E+01 0. -1.
         -5    1    3    3    0  502 -0.22477030546E+02  0.56226242057E+02 -0.56589661931E+02  0.83012571551E+02  0.47000000000E+01 0.  1.
<mgrwt>
<rscale>  0 0.13568949E+03</rscale>
<asrwt>0</asrwt>
<pdfrwt beam="1">  1        2 0.68714718E-01 0.13631821E+03</pdfrwt>
<pdfrwt beam="2">  1       -2 0.14929646E-01 0.13631821E+03</pdfrwt>
<totfact> 0.23821741E+03</totfact>
</mgrwt>
</event>
<event>
 8    1  0.6396648E-004  0.1150216E+03  0.7546771E-02  0.1251633E+00
          4   -1    0    0  501    0  0.00000000000E+00  0.00000000000E+00  0.63387954876E+03  0.63387954876E+03  0.00000000000E+00 0. -1.
         -4   -1    0    0    0  501 -0.00000000000E+00 -0.00000000000E+00 -0.23774953781E+02  0.23774953781E+02  0.00000000000E+00 0.  1.
         23    2    1    2    0    0  0.68542027544E+02 -0.81204915025E+01  0.18964098050E+03  0.22179646734E+03  0.92010974984E+02 0.  0.
         23    2    1    2    0    0 -0.68542027544E+02  0.81204915025E+01  0.42046361448E+03  0.43585803520E+03  0.91753058948E+02 0.  0.
          5    1    3    3  502    0  0.59363270812E+02 -0.29773979180E+02  0.18597667581E+03  0.19753455825E+03  0.47000000000E+01 0. -1.
         -5    1    4    4    0  503 -0.85774155907E+02 -0.13294982223E+02  0.31975051208E+03  0.33135546223E+03  0.47000000000E+01 0.  1.
          5    1    4    4  503    0  0.17232128363E+02  0.21415473725E+02  0.10071310240E+03  0.10450257297E+03  0.47000000000E+01 0. -1.
         -5    1    3    3    0  502  0.91787567320E+01  0.21653487677E+02  0.36643046874E+01  0.24261909088E+02  0.47000000000E+01 0.  1.
<mgrwt>
<rscale>  0 0.11497002E+03</rscale>
<asrwt>0</asrwt>
<pdfrwt beam="1">  1        4 0.97519918E-01 0.11502161E+03</pdfrwt>
<pdfrwt beam="2">  1       -4 0.36576857E-02 0.11502161E+03</pdfrwt>
<totfact> 0.57396338E+02</totfact>
</mgrwt>
</event>
<event>
 8    1  0.6396648E-004  0.9519822E+02  0.7546771E-02  0.1292508E+00
          1   -1    0    0  501    0  0.00000000000E+00  0.00000000000E+00  0.22363012771E+03  0.22363012771E+03  0.00000000000E+00 0. -1.
         -1   -1    0    0    0  501 -0.00000000000E+00 -0.00000000000E+00 -0.40978859830E+02  0.40978859830E+02  0.00000000000E+00 0.  1.
         23    2    1    2    0    0 -0.20889593199E+02  0.36233053164E+00  0.65312060785E+02  0.11544854180E+03  0.92877306879E+02 0.  0.
         23    2    1    2    0    0  0.20889593199E+02 -0.36233053164E+00  0.11733920709E+03  0.14916044573E+03  0.89687472162E+02 0.  0.
          5    1    4    4  502    0  0.21359075254E+02 -0.42358101462E+02  0.78056817803E+02  0.91462427590E+02  0.47000000000E+01 0. -1.
         -5    1    3    3    0  503 -0.55234481842E+02  0.92587468955E+01  0.24909632588E+02  0.61474809264E+02  0.47000000000E+01 0.  1.
          5    1    3    3  503    0  0.34344888642E+02 -0.88964163639E+01  0.40402428197E+02  0.53973732539E+02  0.47000000000E+01 0. -1.
         -5    1    4    4    0  502 -0.46948205446E+00  0.41995770930E+02  0.39282389289E+02  0.57698018143E+02  0.47000000000E+01 0.  1.
<mgrwt>
<rscale>  0 0.94411159E+02</rscale>
<asrwt>0</asrwt>
<pdfrwt beam="1">  1        1 0.34404634E-01 0.95198217E+02</pdfrwt>
<pdfrwt beam="2">  1       -1 0.63044401E-02 0.95198217E+02</pdfrwt>
<totfact> 0.14286724E+04</totfact>
</mgrwt>
</event>
<event>
 8    1  0.6396648E-004  0.9409590E+02  0.7546771E-02  0.1296524E+00
          4   -1    0    0  501    0  0.00000000000E+00  0.00000000000E+00  0.22117083198E+02  0.22117083198E+02  0.00000000000E+00 0. -1.
         -4   -1    0    0    0  501 -0.00000000000E+00 -0.00000000000E+00 -0.51211453729E+03  0.51211453729E+03  0.00000000000E+00 0.  1.
         23    2    1    2    0    0  0.18993563764E+01  0.19871247775E+02 -0.37669474614E+03  0.38695113297E+03  0.86219333659E+02 0.  0.
         23    2    1    2    0    0 -0.18993563764E+01 -0.19871247775E+02 -0.11330270795E+03  0.14728048752E+03  0.91954142543E+02 0.  0.
          5    1    4    4  502    0  0.37599276594E+02 -0.28439917245E+02 -0.34550365974E+02  0.58637464834E+02  0.47000000000E+01 0. -1.
         -5    1    4    4    0  502 -0.39498632970E+02  0.85686694701E+01 -0.78752341978E+02  0.88643022681E+02  0.47000000000E+01 0.  1.
          5    1    3    3  503    0 -0.11593212401E+02 -0.21686758608E+02 -0.38573906931E+02  0.45986458535E+02  0.47000000000E+01 0. -1.
         -5    1    3    3    0  503  0.13492568777E+02  0.41558006383E+02 -0.33812083921E+03  0.34096467444E+03  0.47000000000E+01 0.  1.
<mgrwt>
<rscale>  0 0.92664594E+02</rscale>
<asrwt>0</asrwt>
<pdfrwt beam="1">  1        4 0.34026282E-02 0.94095900E+02</pdfrwt>
<pdfrwt beam="2">  1       -4 0.78786852E-01 0.94095900E+02</pdfrwt>
<totfact> 0.98965475E+02</totfact>
</mgrwt>
</event>
<event>
 8    1  0.6396648E-004  0.9530660E+02  0.7546771E-02  0.1291114E+00
          2   -1    0    0  501    0  0.00000000000E+00  0.00000000000E+00  0.14772272907E+03  0.14772272907E+03  0.00000000000E+00 0. -1.
         -2   -1    0    0    0  501 -0.00000000000E+00 -0.00000000000E+00 -0.61072351154E+02  0.61072351154E+02  0.00000000000E+00 0.  1.
         23    2    1    2    0    0  0.17667629261E+02 -0.29014383128E+02  0.50871311103E+02  0.10803350444E+03  0.89047000148E+02 0.  0.
         23    2    1    2    0    0 -0.17667629261E+02  0.29014383128E+02  0.35779066814E+02  0.10076157579E+03  0.87856553436E+02 0.  0.
          5    1    3    3  502    0  0.44197801673E+02  0.12177647947E+02  0.24443971779E+02  0.52166450316E+02  0.47000000000E+01 0. -1.
         -5    1    3    3    0  502 -0.26530172412E+02 -0.41192031075E+02  0.26427339323E+02  0.55867054119E+02  0.47000000000E+01 0.  1.
          5    1    4    4  503    0 -0.44177347445E+02  0.23283237127E+02  0.49092334784E+02  0.70184716947E+02  0.47000000000E+01 0. -1.
         -5    1    4    4    0  503  0.26509718184E+02  0.57311460008E+01 -0.13313267970E+02  0.30576858843E+02  0.47000000000E+01 0.  1.
<mgrwt>
<rscale>  0 0.95027550E+02</rscale>
<asrwt>0</asrwt>
<pdfrwt beam="1">  1        2 0.22726574E-01 0.95306599E+02</pdfrwt>
<pdfrwt beam="2">  1       -2 0.93957464E-02 0.95306599E+02</pdfrwt>
<totfact> 0.15831397E+04</totfact>
</mgrwt>
</event>
<event>
 8    1  0.6396648E-004  0.1356364E+03  0.7546771E-02  0.1221032E+00
          1   -1    0    0  501    0  0.00000000000E+00  0.00000000000E+00  0.33292879894E+03  0.33292879894E+03  0.00000000000E+00 0. -1.
         -1   -1    0    0    0  501 -0.00000000000E+00 -0.00000000000E+00 -0.13848747800E+03  0.13848747800E+03  0.00000000000E+00 0.  1.
         23    2    1    2    0    0 -0.76740419404E+02 -0.59171476063E+02 -0.88273072150E+02  0.15784863668E+03  0.87941465115E+02 0.  0.
         23    2    1    2    0    0  0.76740419404E+02  0.59171476063E+02  0.28271439309E+03  0.31356764025E+03  0.94904591050E+02 0.  0.
          5    1    3    3  502    0 -0.21831749600E+02 -0.52951275309E+02 -0.48488048558E+01  0.57672036170E+02  0.47000000000E+01 0. -1.
         -5    1    3    3    0  502 -0.54908669804E+02 -0.62202007542E+01 -0.83424267294E+02  0.10017660051E+03  0.47000000000E+01 0.  1.
          5    1    4    4  503    0  0.32561399303E+02  0.80035191204E+02  0.17778808961E+03  0.19772852946E+03  0.47000000000E+01 0. -1.
         -5    1    4    4    0  503  0.44179020101E+02 -0.20863715141E+02  0.10492630349E+03  0.11583911080E+03  0.47000000000E+01 0.  1.
<mgrwt>
<rscale>  0 0.13442593E+03</rscale>
<asrwt>0</asrwt>
<pdfrwt beam="1">  1        1 0.51219815E-01 0.13563641E+03</pdfrwt>
<pdfrwt beam="2">  1       -1 0.21305766E-01 0.13563641E+03</pdfrwt>
<totfact> 0.13759776E+03</totfact>
</mgrwt>
</event>
<event>
 8    1  0.6396648E-004  0.1083185E+03  0.7546771E-02  0.1268010E+00
         -1   -1    0    0    0  501 -0.00000000000E+00  0.00000000000E+00  0.78836216390E+02  0.78836216390E+02  0.00000000000E+00 0.  1.
          1   -1    0    0  501    0  0.00000000000E+00 -0.00000000000E+00 -0.29113445006E+03  0.29113445006E+03  0.00000000000E+00 0. -1.
         23    2    1    2    0    0  0.25133608806E+02  0.31685475994E+02  0.26248934131E+02  0.11145363945E+03  0.10048502138E+03 0.  0.
         23    2    1    2    0    0 -0.25133608806E+02 -0.31685475994E+02 -0.23854716780E+03  0.25851702700E+03  0.91052920348E+02 0.  0.
          5    1    3    3  502    0  0.42004518935E+02 -0.20209438926E+02  0.31465225839E+02  0.56435374277E+02  0.47000000000E+01 0. -1.
         -5    1    3    3    0  502 -0.16870910129E+02  0.51894914920E+02 -0.52162917085E+01  0.55018265170E+02  0.47000000000E+01 0.  1.
          5    1    4    4  503    0  0.26515577403E+02 -0.14978500819E+02 -0.15988280554E+03  0.16282516034E+03  0.47000000000E+01 0. -1.
         -5    1    4    4    0  503 -0.51649186210E+02 -0.16706975175E+02 -0.78664362252E+02  0.95691866656E+02  0.47000000000E+01 0.  1.
<mgrwt>
<rscale>  0 0.10607806E+03</rscale>
<asrwt>0</asrwt>
<pdfrwt beam="1">  1        1 0.44789916E-01 0.10831855E+03</pdfrwt>
<pdfrwt beam="2">  1       -1 0.12128649E-01 0.10831855E+03</pdfrwt>
<totfact> 0.39028487E+03</totfact>
</mgrwt>
</event>
<event>
 8    1  0.6396648E-004  0.1083993E+03  0.7546771E-02  0.1270241E+00
         -2   -1    0    0    0  501 -0.00000000000E+00  0.00000000000E+00  0.41188339149E+02  0.41188339149E+02  0.00000000000E+00 0.  1.
          2   -1    0    0  501    0  0.00000000000E+00 -0.00000000000E+00 -0.28062712842E+03  0.28062712842E+03  0.00000000000E+00 0. -1.
         23    2    1    2    0    0 -0.33672488465E+02  0.28566069247E+01 -0.17831493306E+03  0.20867828648E+03  0.10299716119E+03 0.  0.
         23    2    1    2    0    0  0.33672488465E+02 -0.28566069247E+01 -0.61123856212E+02  0.11313718109E+03  0.89005051903E+02 0.  0.
          5    1    3    3  502    0  0.73255165777E+01  0.46108124802E+02 -0.97009001366E+02  0.10776111874E+03  0.47000000000E+01 0. -1.
         -5    1    4    4    0  503  0.53385795050E+02 -0.27910671073E+02 -0.51805926589E+02  0.79592667392E+02  0.47000000000E+01 0.  1.
          5    1    4    4  503    0 -0.19713306584E+02  0.25054064148E+02 -0.93179296235E+01  0.33544513699E+02  0.47000000000E+01 0. -1.
         -5    1    3    3    0  502 -0.40998005043E+02 -0.43251517877E+02 -0.81305931694E+02  0.10091716774E+03  0.47000000000E+01 0.  1.
<mgrwt>
<rscale>  0 0.10493836E+03</rscale>
<asrwt>0</asrwt>
<pdfrwt beam="1">  1        2 0.43173404E-01 0.10839932E+03</pdfrwt>
<pdfrwt beam="2">  1       -2 0.63366675E-02 0.10839932E+03</pdfrwt>
<totfact> 0.14717116E+04</totfact>
</mgrwt>
</event>
<event>
 8    1  0.6396648E-004  0.1073005E+03  0.7546771E-02  0.1267618E+00
         -2   -1    0    0    0  501 -0.00000000000E+00  0.00000000000E+00  0.10984923450E+03  0.10984923450E+03  0.00000000000E+00 0.  1.
          2   -1    0    0  501    0  0.00000000000E+00 -0.00000000000E+00 -0.18524831040E+03  0.18524831040E+03  0.00000000000E+00 0. -1.
         23    2    1    2    0    0  0.38038575759E+02  0.31343666295E+02  0.62235880470E+02  0.12057881540E+03  0.90755645797E+02 0.  0.
         23    2    1    2    0    0 -0.38038575759E+02 -0.31343666295E+02 -0.13763495637E+03  0.17451872949E+03  0.95310267364E+02 0.  0.
          5    1    3    3  502    0  0.17308510384E+02  0.38574672249E+02 -0.11032321094E+02  0.43947604936E+02  0.47000000000E+01 0. -1.
         -5    1    3    3    0  502  0.20730065375E+02 -0.72310059536E+01  0.73268201564E+02  0.76631210469E+02  0.47000000000E+01 0.  1.
          5    1    4    4  503    0 -0.64371747035E+02 -0.10893422037E+02 -0.11955486310E+03  0.13630056401E+03  0.47000000000E+01 0. -1.
         -5    1    4    4    0  503  0.26333171276E+02 -0.20450244259E+02 -0.18080093275E+02  0.38218165478E+02  0.47000000000E+01 0.  1.
<mgrwt>
<rscale>  0 0.10627995E+03</rscale>
<asrwt>0</asrwt>
<pdfrwt beam="1">  1        2 0.28499740E-01 0.10730054E+03</pdfrwt>
<pdfrwt beam="2">  1       -2 0.16899882E-01 0.10730054E+03</pdfrwt>
<totfact> 0.48989116E+03</totfact>
</mgrwt>
</event>
<event>
 8    1  0.6396648E-004  0.9503082E+02  0.7546771E-02  0.1291773E+00
          2   -1    0    0  501    0  0.00000000000E+00  0.00000000000E+00  0.20942247978E+03  0.20942247978E+03  0.00000000000E+00 0. -1.
         -2   -1    0    0    0  501 -0.00000000000E+00 -0.00000000000E+00 -0.59424750824E+02  0.59424750824E+02  0.00000000000E+00 0.  1.
         23    2    1    2    0    0 -0.63476920204E+01 -0.23398446293E+02  0.37878791504E+01  0.95106284416E+02  0.91886216725E+02 0.  0.
         23    2    1    2    0    0  0.63476920204E+01  0.23398446293E+02  0.14620984981E+03  0.17374094619E+03  0.90668714117E+02 0.  0.
          5    1    4    4  502    0  0.27715269195E+02  0.46077771023E+02  0.12385335370E+03  0.13510381324E+03  0.47000000000E+01 0. -1.
         -5    1    3    3    0  503  0.31522826213E+02 -0.35139431147E+02 -0.16619332081E+02  0.50266891614E+02  0.47000000000E+01 0.  1.
          5    1    3    3  503    0 -0.37870518233E+02  0.11740984854E+02  0.20407211231E+02  0.44839392801E+02  0.47000000000E+01 0. -1.
         -5    1    4    4    0  502 -0.21367577175E+02 -0.22679324730E+02  0.22356496108E+02  0.38637132952E+02  0.47000000000E+01 0.  1.
<mgrwt>
<rscale>  0 0.94735272E+02</rscale>
<asrwt>0</asrwt>
<pdfrwt beam="1">  1        2 0.32218843E-01 0.95030823E+02</pdfrwt>
<pdfrwt beam="2">  1       -2 0.91422695E-02 0.95030823E+02</pdfrwt>
<totfact> 0.11317068E+04</totfact>
</mgrwt>
</event>
<event>
 8    1  0.7179396E-004  0.9373208E+02  0.7546771E-02  0.1295582E+00
         -1   -1    0    0    0  501 -0.00000000000E+00  0.00000000000E+00  0.20942741418E+03  0.20942741418E+03  0.00000000000E+00 0.  1.
          1   -1    0    0  501    0  0.00000000000E+00 -0.00000000000E+00 -0.87556804321E+02  0.87556804321E+02  0.00000000000E+00 0. -1.
         23    2    1    2    0    0 -0.13894186432E+02  0.14817251188E+02 -0.47184974315E+02  0.10493867226E+03  0.91504665374E+02 0.  0.
         23    2    1    2    0    0  0.13894186432E+02 -0.14817251188E+02  0.16905558417E+03  0.19204554624E+03  0.88820616642E+02 0.  0.
          5    1    3    3  502    0 -0.18217688091E+01  0.51696850011E+02 -0.39121876636E+02  0.65026874246E+02  0.47000000000E+01 0. -1.
         -5    1    3    3    0  502 -0.12072417622E+02 -0.36879598823E+02 -0.80630976795E+01  0.39911798015E+02  0.47000000000E+01 0.  1.
          5    1    4    4  503    0 -0.14291820222E+02  0.32352237462E+02  0.73928825295E+02  0.82088273240E+02  0.47000000000E+01 0. -1.
         -5    1    4    4    0  503  0.28186006654E+02 -0.47169488650E+02  0.95126758877E+02  0.10995727300E+03  0.47000000000E+01 0.  1.
<mgrwt>
<rscale>  0 0.93070508E+02</rscale>
<asrwt>0</asrwt>
<pdfrwt beam="1">  1        1 0.13470278E-01 0.93732082E+02</pdfrwt>
<pdfrwt beam="2">  1       -1 0.32219602E-01 0.93732082E+02</pdfrwt>
<totfact> 0.36458924E+03</totfact>
</mgrwt>
</event>
<event>
 8    1  0.6396648E-004  0.1003114E+03  0.7546771E-02  0.1281186E+00
          1   -1    0    0  501    0  0.00000000000E+00  0.00000000000E+00  0.70092839619E+02  0.70092839619E+02  0.00000000000E+00 0. -1.
         -1   -1    0    0    0  501 -0.00000000000E+00 -0.00000000000E+00 -0.16278441873E+03  0.16278441873E+03  0.00000000000E+00 0.  1.
         23    2    1    2    0    0 -0.30209332158E+02 -0.18075861678E+02 -0.91022023198E+02  0.13545251466E+03  0.93931009234E+02 0.  0.
         23    2    1    2    0    0  0.30209332158E+02  0.18075861678E+02 -0.16695559114E+01  0.97424743688E+02  0.90826498011E+02 0.  0.
          5    1    4    4  502    0 -0.26463826770E+02 -0.20156295377E+01 -0.20914680482E+02  0.34116136203E+02  0.47000000000E+01 0. -1.
         -5    1    4    4    0  502  0.56673158927E+02  0.20091491215E+02  0.19245124571E+02  0.63308607486E+02  0.47000000000E+01 0.  1.
          5    1    3    3  503    0 -0.47110472103E+02 -0.40227863660E+02 -0.87008082367E+02  0.10691199181E+03  0.47000000000E+01 0. -1.
         -5    1    3    3    0  503  0.16901139946E+02  0.22152001982E+02 -0.40139408307E+01  0.28540522845E+02  0.47000000000E+01 0.  1.
<mgrwt>
<rscale>  0 0.99578152E+02</rscale>
<asrwt>0</asrwt>
<pdfrwt beam="1">  1        1 0.10783514E-01 0.10031139E+03</pdfrwt>
<pdfrwt beam="2">  1       -1 0.25043756E-01 0.10031139E+03</pdfrwt>
<totfact> 0.74200219E+03</totfact>
</mgrwt>
</event>
<event>
 8    1  0.6396648E-004  0.2063484E+03  0.7546771E-02  0.1144584E+00
          2   -1    0    0  501    0  0.00000000000E+00  0.00000000000E+00  0.56563992864E+03  0.56563992864E+03  0.00000000000E+00 0.  1.
         -2   -1    0    0    0  501 -0.00000000000E+00 -0.00000000000E+00 -0.77831446993E+02  0.77831446993E+02  0.00000000000E+00 0. -1.
         23    2    1    2    0    0 -0.18141708359E+03  0.34733857001E+02  0.18399778754E+03  0.27646856134E+03  0.91984132046E+02 0.  0.
         23    2    1    2    0    0  0.18141708359E+03 -0.34733857001E+02  0.30381069410E+03  0.36700281429E+03  0.90947945582E+02 0.  0.
          5    1    3    3  502    0 -0.22677617615E+02  0.59742949056E+01  0.82305380900E+02  0.85710164307E+02  0.47000000000E+01 0. -1.
         -5    1    3    3    0  502 -0.15873946598E+03  0.28759562095E+02  0.10169240664E+03  0.19075839703E+03  0.47000000000E+01 0.  1.
          5    1    4    4  503    0  0.15195448100E+03 -0.34540030797E+01  0.27739998345E+03  0.31634622686E+03  0.47000000000E+01 0. -1.
         -5    1    4    4    0  503  0.29462602589E+02 -0.31279853921E+02  0.26410710658E+02  0.50656587430E+02  0.47000000000E+01 0.  1.
<mgrwt>
<rscale>  0 0.20623339E+03</rscale>
<asrwt>0</asrwt>
<pdfrwt beam="1">  1        2 0.87021525E-01 0.20634844E+03</pdfrwt>
<pdfrwt beam="2">  1       -2 0.11974069E-01 0.20634844E+03</pdfrwt>
<totfact> 0.26560407E+03</totfact>
</mgrwt>
</event>
<event>
 8    1  0.6396648E-004  0.1174425E+03  0.7546771E-02  0.1247416E+00
         -2   -1    0    0    0  501 -0.00000000000E+00  0.00000000000E+00  0.12439474449E+03  0.12439474449E+03  0.00000000000E+00 0.  1.
          2   -1    0    0  501    0  0.00000000000E+00 -0.00000000000E+00 -0.13893501650E+03  0.13893501650E+03  0.00000000000E+00 0. -1.
         23    2    1    2    0    0 -0.46276273153E+02  0.54722002717E+02  0.51991608279E+02  0.12835111357E+03  0.92924108737E+02 0.  0.
         23    2    1    2    0    0  0.46276273153E+02 -0.54722002717E+02 -0.66531880280E+02  0.13497864742E+03  0.93041674146E+02 0.  0.
          5    1    4    4  502    0  0.73440068480E+02 -0.45601565991E+02 -0.59659858905E+02  0.10513959884E+03  0.47000000000E+01 0. -1.
         -5    1    4    4    0  502 -0.27163795326E+02 -0.91204367251E+01 -0.68720213747E+01  0.29839048583E+02  0.47000000000E+01 0.  1.
          5    1    3    3  503    0 -0.18760857567E+02  0.68014593203E+02  0.34442600939E+01  0.70794827444E+02  0.47000000000E+01 0. -1.
         -5    1    3    3    0  503 -0.27515415586E+02 -0.13292590486E+02  0.48547348185E+02  0.57556286125E+02  0.47000000000E+01 0.  1.
<mgrwt>
<rscale>  0 0.11741923E+03</rscale>
<asrwt>0</asrwt>
<pdfrwt beam="1">  1        2 0.21374618E-01 0.11744251E+03</pdfrwt>
<pdfrwt beam="2">  1       -2 0.19137653E-01 0.11744251E+03</pdfrwt>
<totfact> 0.54987131E+03</totfact>
</mgrwt>
</event>
<event>
 8    1  0.6396648E-004  0.9983250E+02  0.7546771E-02  0.1280783E+00
          1   -1    0    0  501    0  0.00000000000E+00  0.00000000000E+00  0.35723411899E+03  0.35723411899E+03  0.00000000000E+00 0. -1.
         -1   -1    0    0    0  501 -0.00000000000E+00 -0.00000000000E+00 -0.59659348832E+02  0.59659348832E+02  0.00000000000E+00 0.  1.
         23    2    1    2    0    0  0.75481474162E+00 -0.40471685979E+02 -0.35603786059E+01  0.99641351314E+02  0.90979093668E+02 0.  0.
         23    2    1    2    0    0 -0.75481474162E+00  0.40471685979E+02  0.30113514877E+03  0.31725211651E+03  0.91257879093E+02 0.  0.
          5    1    3    3  502    0 -0.21220602336E+02  0.44356292830E+01 -0.34237841582E+02  0.40795938117E+02  0.47000000000E+01 0.  1.
         -5    1    4    4    0  503 -0.25529699156E+02  0.17221787644E+02  0.27736699674E+02  0.41710550433E+02  0.47000000000E+01 0.  1.
          5    1    4    4  503    0  0.24774884414E+02  0.23249898335E+02  0.27339844909E+03  0.27554156608E+03  0.47000000000E+01 0. -1.
         -5    1    3    3    0  502  0.21975417078E+02 -0.44907315262E+02  0.30677462976E+02  0.58845413198E+02  0.47000000000E+01 0. -1.
<mgrwt>
<rscale>  0 0.99768743E+02</rscale>
<asrwt>0</asrwt>
<pdfrwt beam="1">  1        1 0.54959094E-01 0.99832498E+02</pdfrwt>
<pdfrwt beam="2">  1       -1 0.91783616E-02 0.99832498E+02</pdfrwt>
<totfact> 0.46124417E+03</totfact>
</mgrwt>
</event>
<event>
 8    1  0.6396648E-004  0.1617977E+03  0.7546771E-02  0.1187236E+00
         -3   -1    0    0    0  501 -0.00000000000E+00  0.00000000000E+00  0.39689245880E+03  0.39689245880E+03  0.00000000000E+00 0.  1.
          3   -1    0    0  501    0  0.00000000000E+00 -0.00000000000E+00 -0.74280949113E+02  0.74280949113E+02  0.00000000000E+00 0. -1.
         23    2    1    2    0    0 -0.10676257669E+02 -0.13280373052E+03  0.24475003386E+03  0.29339574573E+03  0.91802348688E+02 0.  0.
         23    2    1    2    0    0  0.10676257669E+02  0.13280373052E+03  0.77861475829E+02  0.17777766218E+03  0.88270461847E+02 0.  0.
          5    1    3    3  502    0 -0.13207536450E+02 -0.43413122541E+02  0.17221371976E+03  0.17815384784E+03  0.47000000000E+01 0. -1.
         -5    1    4    4    0  503 -0.37615226772E+02  0.61132353669E+02  0.23968503489E+02  0.75819846410E+02  0.47000000000E+01 0.  1.
          5    1    4    4  503    0  0.48291484441E+02  0.71671376848E+02  0.53892972340E+02  0.10195781577E+03  0.47000000000E+01 0. -1.
         -5    1    3    3    0  502  0.25312787806E+01 -0.89390607976E+02  0.72536314097E+02  0.11524189789E+03  0.47000000000E+01 0.  1.
<mgrwt>
<rscale>  0 0.16130101E+03</rscale>
<asrwt>0</asrwt>
<pdfrwt beam="1">  1        3 0.11427839E-01 0.16179767E+03</pdfrwt>
<pdfrwt beam="2">  1       -3 0.61060377E-01 0.16179767E+03</pdfrwt>
<totfact> 0.37266092E+02</totfact>
</mgrwt>
</event>
<event>
 8    1  0.6396648E-004  0.9384770E+02  0.7546771E-02  0.1307481E+00
         -2   -1    0    0    0  501 -0.00000000000E+00  0.00000000000E+00  0.45413291220E+02  0.45413291220E+02  0.00000000000E+00 0.  1.
          2   -1    0    0  501    0  0.00000000000E+00 -0.00000000000E+00 -0.15469758078E+03  0.15469758078E+03  0.00000000000E+00 0. -1.
         23    2    1    2    0    0 -0.13426022718E+02 -0.12303437194E+02 -0.57855423218E+02  0.93095359637E+02  0.70624806814E+02 0.  0.
         23    2    1    2    0    0  0.13426022718E+02  0.12303437194E+02 -0.51428866345E+02  0.10701551237E+03  0.92063885105E+02 0.  0.
          5    1    3    3  502    0  0.17333529178E+02 -0.17384872438E+02 -0.56217818431E+02  0.61524126427E+02  0.47000000000E+01 0. -1.
         -5    1    4    4    0  503 -0.81338472320E+01  0.45000533389E+02 -0.49453088639E+02  0.67519667150E+02  0.47000000000E+01 0.  1.
          5    1    4    4  503    0  0.21559869950E+02 -0.32697096194E+02 -0.19757777059E+01  0.39495845217E+02  0.47000000000E+01 0. -1.
         -5    1    3    3    0  502 -0.30759551896E+02  0.50814352438E+01 -0.16376047870E+01  0.31571233210E+02  0.47000000000E+01 0.  1.
<mgrwt>
<rscale>  0 0.88115346E+02</rscale>
<asrwt>0</asrwt>
<pdfrwt beam="1">  1        2 0.23799628E-01 0.93847704E+02</pdfrwt>
<pdfrwt beam="2">  1       -2 0.69866602E-02 0.93847704E+02</pdfrwt>
<totfact> 0.23651277E+04</totfact>
</mgrwt>
</event>
<event>
 8    1  0.6396648E-004  0.1019783E+03  0.7546771E-02  0.1276419E+00
          4   -1    0    0  501    0  0.00000000000E+00  0.00000000000E+00  0.33074872228E+03  0.33074872228E+03  0.00000000000E+00 0. -1.
         -4   -1    0    0    0  501 -0.00000000000E+00 -0.00000000000E+00 -0.83199933802E+02  0.83199933802E+02  0.00000000000E+00 0.  1.
         23    2    1    2    0    0  0.40406300076E+02  0.20252609507E+02 -0.39585357751E+02  0.10939187089E+03  0.91415226256E+02 0.  0.
         23    2    1    2    0    0 -0.40406300076E+02 -0.20252609507E+02  0.28713414623E+03  0.30455678519E+03  0.90917436152E+02 0.  0.
          5    1    3    3  502    0 -0.24562793260E+02  0.24188618671E+02 -0.24094254312E+02  0.42320718056E+02  0.47000000000E+01 0. -1.
         -5    1    3    3    0  502  0.64969093336E+02 -0.39360091646E+01 -0.15491103440E+02  0.67071152836E+02  0.47000000000E+01 0.  1.
          5    1    4    4  503    0 -0.37559757250E+02 -0.45883589803E+02  0.26043131629E+03  0.26713779157E+03  0.47000000000E+01 0. -1.
         -5    1    4    4    0  503 -0.28465428263E+01  0.25630980296E+02  0.26702829936E+02  0.37418993621E+02  0.47000000000E+01 0. -1.
<mgrwt>
<rscale>  0 0.10186665E+03</rscale>
<asrwt>0</asrwt>
<pdfrwt beam="1">  1        4 0.50884418E-01 0.10197834E+03</pdfrwt>
<pdfrwt beam="2">  1       -4 0.12799990E-01 0.10197834E+03</pdfrwt>
<totfact> 0.29273494E+02</totfact>
</mgrwt>
</event>
<event>
 8    1  0.6396648E-004  0.8992795E+02  0.7546771E-02  0.1303302E+00
          1   -1    0    0  501    0  0.00000000000E+00  0.00000000000E+00  0.21205519438E+02  0.21205519438E+02  0.00000000000E+00 0. -1.
         -1   -1    0    0    0  501 -0.00000000000E+00 -0.00000000000E+00 -0.39518006378E+03  0.39518006378E+03  0.00000000000E+00 0.  1.
         23    2    1    2    0    0 -0.11390838861E+02 -0.10671897597E+02 -0.14589859836E+03  0.17138680408E+03  0.88562943725E+02 0.  0.
         23    2    1    2    0    0  0.11390838861E+02  0.10671897597E+02 -0.22807594599E+03  0.24499877914E+03  0.88102917290E+02 0.  0.
          5    1    3    3  502    0 -0.14662218379E+02  0.21242548890E+02 -0.48764342203E+01  0.26685129601E+02  0.47000000000E+01 0. -1.
         -5    1    3    3    0  502  0.32713795181E+01 -0.31914446487E+02 -0.14102216414E+03  0.14470167448E+03  0.47000000000E+01 0.  1.
          5    1    4    4  503    0  0.22848882440E+02  0.29381180806E+02 -0.37281995337E+02  0.52890097283E+02  0.47000000000E+01 0. -1.
         -5    1    4    4    0  503 -0.11458043579E+02 -0.18709283209E+02 -0.19079395065E+03  0.19210868186E+03  0.47000000000E+01 0.  1.
<mgrwt>
<rscale>  0 0.89814480E+02</rscale>
<asrwt>0</asrwt>
<pdfrwt beam="1">  1        1 0.32623877E-02 0.89927947E+02</pdfrwt>
<pdfrwt beam="2">  1       -1 0.60796931E-01 0.89927947E+02</pdfrwt>
<totfact> 0.78196938E+03</totfact>
</mgrwt>
</event>
<event>
 8    1  0.6396648E-004  0.1288815E+03  0.7546771E-02  0.1229155E+00
          2   -1    0    0  501    0  0.00000000000E+00  0.00000000000E+00  0.14267518504E+03  0.14267518504E+03  0.00000000000E+00 0. -1.
         -2   -1    0    0    0  501 -0.00000000000E+00 -0.00000000000E+00 -0.13219743417E+03  0.13219743417E+03  0.00000000000E+00 0.  1.
         23    2    1    2    0    0 -0.31675665202E+02  0.85211151734E+02  0.52825256409E+02  0.13921220822E+03  0.91242769890E+02 0.  0.
         23    2    1    2    0    0  0.31675665202E+02 -0.85211151734E+02 -0.42347505539E+02  0.13566041099E+03  0.91357253341E+02 0.  0.
          5    1    3    3  502    0 -0.50405223609E+02  0.94619211791E+02  0.44644121956E+02  0.11622680169E+03  0.47000000000E+01 0. -1.
         -5    1    3    3    0  502  0.18729558408E+02 -0.94080600574E+01  0.81811344530E+01  0.22985406525E+02  0.47000000000E+01 0.  1.
          5    1    4    4  503    0 -0.13973138529E+02 -0.54249319555E+02  0.12654542241E+02  0.57623473618E+02  0.47000000000E+01 0. -1.
         -5    1    4    4    0  503  0.45648803730E+02 -0.30961832179E+02 -0.55002047780E+02  0.78036937369E+02  0.47000000000E+01 0.  1.
<mgrwt>
<rscale>  0 0.12886119E+03</rscale>
<asrwt>0</asrwt>
<pdfrwt beam="1">  1        2 0.21950029E-01 0.12888148E+03</pdfrwt>
<pdfrwt beam="2">  1       -2 0.20338067E-01 0.12888148E+03</pdfrwt>
<totfact> 0.48479712E+03</totfact>
</mgrwt>
</event>
<event>
 8    1  0.6396648E-004  0.9189378E+02  0.7546771E-02  0.1298544E+00
         -1   -1    0    0    0  501 -0.00000000000E+00  0.00000000000E+00  0.11280657951E+03  0.11280657951E+03  0.00000000000E+00 0.  1.
          1   -1    0    0  501    0  0.00000000000E+00 -0.00000000000E+00 -0.78131086598E+02  0.78131086598E+02  0.00000000000E+00 0. -1.
         23    2    1    2    0    0  0.47675009701E+01  0.44613408577E+01 -0.30997441511E+01  0.91582572447E+02  0.91296914156E+02 0.  0.
         23    2    1    2    0    0 -0.47675009701E+01 -0.44613408577E+01  0.37775237065E+02  0.99355093663E+02  0.91661515773E+02 0.  0.
          5    1    4    4  502    0 -0.36450374652E+02 -0.32553875920E+02  0.23432378571E+02  0.54401755626E+02  0.47000000000E+01 0. -1.
         -5    1    3    3    0  503  0.44256403912E+02 -0.13334138073E+02  0.66609230090E+01  0.46934916861E+02  0.47000000000E+01 0.  1.
          5    1    3    3  503    0 -0.39488902942E+02  0.17795478931E+02 -0.97606671601E+01  0.44647655586E+02  0.47000000000E+01 0. -1.
         -5    1    4    4    0  502  0.31682873682E+02  0.28092535062E+02  0.14342858493E+02  0.44953338038E+02  0.47000000000E+01 0.  1.
<mgrwt>
<rscale>  0 0.91802722E+02</rscale>
<asrwt>0</asrwt>
<pdfrwt beam="1">  1        1 0.12020167E-01 0.91893776E+02</pdfrwt>
<pdfrwt beam="2">  1       -1 0.17354858E-01 0.91893776E+02</pdfrwt>
<totfact> 0.11483262E+04</totfact>
</mgrwt>
</event>
<event>
 8    1  0.6396648E-004  0.9363091E+02  0.7546771E-02  0.1295040E+00
         -2   -1    0    0    0  501 -0.00000000000E+00  0.00000000000E+00  0.94063714729E+01  0.94063714729E+01  0.00000000000E+00 0.  1.
          2   -1    0    0  501    0  0.00000000000E+00 -0.00000000000E+00 -0.93039289377E+03  0.93039289377E+03  0.00000000000E+00 0. -1.
         23    2    1    2    0    0 -0.97351955833E+01 -0.14010321633E+02 -0.51534421344E+03  0.52378087491E+03  0.92063475113E+02 0.  0.
         23    2    1    2    0    0  0.97351955833E+01  0.14010321633E+02 -0.40564230886E+03  0.41601839034E+03  0.90744450052E+02 0.  0.
          5    1    3    3  502    0  0.72610098981E+01 -0.51470639096E+02 -0.28021529721E+03  0.28503447466E+03  0.47000000000E+01 0. -1.
         -5    1    3    3    0  502 -0.16996205481E+02  0.37460317463E+02 -0.23512891622E+03  0.23874640024E+03  0.47000000000E+01 0.  1.
          5    1    4    4  503    0  0.28059330794E+02  0.27707744589E+02 -0.37688512232E+03  0.37897167517E+03  0.47000000000E+01 0. -1.
         -5    1    4    4    0  503 -0.18324135211E+02 -0.13697422956E+02 -0.28757186537E+02  0.37046715163E+02  0.47000000000E+01 0.  1.
<mgrwt>
<rscale>  0 0.93305051E+02</rscale>
<asrwt>0</asrwt>
<pdfrwt beam="1">  1        2 0.14313740E+00 0.93630906E+02</pdfrwt>
<pdfrwt beam="2">  1       -2 0.14471337E-02 0.93630906E+02</pdfrwt>
<totfact> 0.32918760E+04</totfact>
</mgrwt>
</event>
<event>
 8    1  0.6396648E-004  0.1178103E+03  0.7546771E-02  0.1248150E+00
         -3   -1    0    0    0  501 -0.00000000000E+00  0.00000000000E+00  0.13462477703E+03  0.13462477703E+03  0.00000000000E+00 0.  1.
          3   -1    0    0  501    0  0.00000000000E+00 -0.00000000000E+00 -0.12139193895E+03  0.12139193895E+03  0.00000000000E+00 0. -1.
         23    2    1    2    0    0 -0.68699963813E+02  0.28479775500E+02 -0.46853922803E+02  0.12376810291E+03  0.87134783952E+02 0.  0.
         23    2    1    2    0    0  0.68699963813E+02 -0.28479775500E+02  0.60086760887E+02  0.13224861308E+03  0.91370094598E+02 0.  0.
          5    1    3    3  502    0 -0.42850677203E+02  0.71053589937E+01 -0.70162614448E+02  0.82653185839E+02  0.47000000000E+01 0. -1.
         -5    1    4    4    0  503  0.38341788831E+02 -0.41771906171E+02  0.76202036243E+02  0.95099028615E+02  0.47000000000E+01 0.  1.
          5    1    4    4  503    0  0.30358174982E+02  0.13292130671E+02 -0.16115275356E+02  0.37149584463E+02  0.47000000000E+01 0. -1.
         -5    1    3    3    0  502 -0.25849286611E+02  0.21374416506E+02  0.23308691644E+02  0.41114917067E+02  0.47000000000E+01 0.  1.
<mgrwt>
<rscale>  0 0.11698839E+03</rscale>
<asrwt>0</asrwt>
<pdfrwt beam="1">  1        3 0.18675683E-01 0.11781034E+03</pdfrwt>
<pdfrwt beam="2">  1       -3 0.20711504E-01 0.11781034E+03</pdfrwt>
<totfact> 0.12009472E+03</totfact>
</mgrwt>
</event>
<event>
 8    1  0.6396648E-004  0.1013356E+03  0.7546771E-02  0.1277698E+00
          2   -1    0    0  501    0  0.00000000000E+00  0.00000000000E+00  0.11472882398E+03  0.11472882398E+03  0.00000000000E+00 0. -1.
         -2   -1    0    0    0  501 -0.00000000000E+00 -0.00000000000E+00 -0.13278062273E+03  0.13278062273E+03  0.00000000000E+00 0.  1.
         23    2    1    2    0    0 -0.89609897793E+01 -0.46571573109E+02  0.61893469745E+02  0.11843521302E+03  0.89145315791E+02 0.  0.
         23    2    1    2    0    0  0.89609897793E+01  0.46571573109E+02 -0.79945268498E+02  0.12907423368E+03  0.89552783796E+02 0.  0.
          5    1    4    4  502    0  0.29277639569E+02  0.33271440086E+02  0.85242097090E+00  0.44575615819E+02  0.47000000000E+01 0. -1.
         -5    1    4    4    0  502 -0.20316649790E+02  0.13300133022E+02 -0.80797689469E+02  0.84498617862E+02  0.47000000000E+01 0.  1.
          5    1    3    3  503    0 -0.45579188367E+02 -0.34566694661E+02  0.18715581356E+02  0.60371199901E+02  0.47000000000E+01 0. -1.
         -5    1    3    3    0  503  0.36618198587E+02 -0.12004878448E+02  0.43177888388E+02  0.58064013124E+02  0.47000000000E+01 0.  1.
<mgrwt>
<rscale>  0 0.10124554E+03</rscale>
<asrwt>0</asrwt>
<pdfrwt beam="1">  1        2 0.17650588E-01 0.10133564E+03</pdfrwt>
<pdfrwt beam="2">  1       -2 0.20427788E-01 0.10133564E+03</pdfrwt>
<totfact> 0.60482996E+03</totfact>
</mgrwt>
</event>
<event>
 8    1  0.6396648E-004  0.9334384E+02  0.7546771E-02  0.1295173E+00
         -1   -1    0    0    0  501 -0.00000000000E+00  0.00000000000E+00  0.21309063245E+03  0.21309063245E+03  0.00000000000E+00 0.  1.
          1   -1    0    0  501    0  0.00000000000E+00 -0.00000000000E+00 -0.47894634843E+02  0.47894634843E+02  0.00000000000E+00 0. -1.
         23    2    1    2    0    0  0.10959418873E+02  0.18762251797E+02  0.13324753854E+03  0.16268982328E+03  0.90779629416E+02 0.  0.
         23    2    1    2    0    0 -0.10959418873E+02 -0.18762251797E+02  0.31948459061E+02  0.98295444009E+02  0.90383401806E+02 0.  0.
          5    1    3    3  502    0 -0.31723167244E+02  0.27459303145E+02  0.97131955319E+02  0.10591071435E+03  0.47000000000E+01 0. -1.
         -5    1    4    4    0  503  0.30043646877E+02  0.13676599153E+02  0.31396594042E+02  0.45798539273E+02  0.47000000000E+01 0.  1.
          5    1    4    4  503    0 -0.41003065750E+02 -0.32438850950E+02  0.55186501865E+00  0.52496904736E+02  0.47000000000E+01 0. -1.
         -5    1    3    3    0  502  0.42682586118E+02 -0.86970513486E+01  0.36115583226E+02  0.56779108936E+02  0.47000000000E+01 0.  1.
<mgrwt>
<rscale>  0 0.93247364E+02</rscale>
<asrwt>0</asrwt>
<pdfrwt beam="1">  1        1 0.73684055E-02 0.93343838E+02</pdfrwt>
<pdfrwt beam="2">  1       -1 0.32783174E-01 0.93343838E+02</pdfrwt>
<totfact> 0.78058800E+03</totfact>
</mgrwt>
</event>
<event>
 8    1  0.6396648E-004  0.9415660E+02  0.7546771E-02  0.1293752E+00
         -1   -1    0    0    0  501 -0.00000000000E+00  0.00000000000E+00  0.10956022161E+03  0.10956022161E+03  0.00000000000E+00 0.  1.
          1   -1    0    0  501    0  0.00000000000E+00 -0.00000000000E+00 -0.35178503426E+03  0.35178503426E+03  0.00000000000E+00 0. -1.
         23    2    1    2    0    0  0.20270588257E+02 -0.59196889620E+01  0.81498313047E+02  0.12452887301E+03  0.91757973594E+02 0.  0.
         23    2    1    2    0    0 -0.20270588257E+02  0.59196889620E+01 -0.32372312569E+03  0.33681638286E+03  0.90568615903E+02 0.  0.
          5    1    4    4  502    0 -0.55211266416E+01  0.32779189571E+02 -0.28611523830E+03  0.28807807570E+03  0.47000000000E+01 0. -1.
         -5    1    4    4    0  502 -0.14749461615E+02 -0.26859500609E+02 -0.37607887393E+02  0.48738307162E+02  0.47000000000E+01 0.  1.
          5    1    3    3  503    0 -0.28854013551E+02  0.22782180870E+02  0.32701759107E+02  0.49427491459E+02  0.47000000000E+01 0. -1.
         -5    1    3    3    0  503  0.49124601808E+02 -0.28701869832E+02  0.48796553940E+02  0.75101381552E+02  0.47000000000E+01 0.  1.
<mgrwt>
<rscale>  0 0.93865584E+02</rscale>
<asrwt>0</asrwt>
<pdfrwt beam="1">  1        1 0.54120775E-01 0.94156599E+02</pdfrwt>
<pdfrwt beam="2">  1       -1 0.16855419E-01 0.94156599E+02</pdfrwt>
<totfact> 0.18450560E+03</totfact>
</mgrwt>
</event>
<event>
 8    1  0.1528178E-003  0.1028453E+03  0.7546771E-02  0.1275193E+00
         -1   -1    0    0    0  501 -0.00000000000E+00  0.00000000000E+00  0.12031428678E+03  0.12031428678E+03  0.00000000000E+00 0.  1.
          1   -1    0    0  501    0  0.00000000000E+00 -0.00000000000E+00 -0.27661057601E+03  0.27661057601E+03  0.00000000000E+00 0. -1.
         23    2    1    2    0    0  0.12664425742E+01  0.46851165461E+02 -0.24280228971E+03  0.26368562925E+03  0.91545199793E+02 0.  0.
         23    2    1    2    0    0 -0.12664425742E+01 -0.46851165461E+02  0.86506000478E+02  0.13323923353E+03  0.89848592932E+02 0.  0.
          5    1    4    4  502    0 -0.21934060731E+02  0.11595348430E+02 -0.17180388363E+01  0.25310013489E+02  0.47000000000E+01 0. -1.
         -5    1    4    4    0  502  0.20667618157E+02 -0.58446513891E+02  0.88224039314E+02  0.10792922004E+03  0.47000000000E+01 0.  1.
          5    1    3    3  503    0 -0.27260546808E+02  0.62917243414E+02 -0.14552278503E+03  0.16093690656E+03  0.47000000000E+01 0. -1.
         -5    1    3    3    0  503  0.28526989382E+02 -0.16066077953E+02 -0.97279504684E+02  0.10274872270E+03  0.47000000000E+01 0.  1.
<mgrwt>
<rscale>  0 0.10246642E+03</rscale>
<asrwt>0</asrwt>
<pdfrwt beam="1">  1        1 0.42555473E-01 0.10284532E+03</pdfrwt>
<pdfrwt beam="2">  1       -1 0.18509890E-01 0.10284532E+03</pdfrwt>
<totfact> 0.21458711E+03</totfact>
</mgrwt>
</event>
<event>
 8    1  0.6396648E-004  0.1169943E+03  0.7546771E-02  0.1254215E+00
         -1   -1    0    0    0  501 -0.00000000000E+00  0.00000000000E+00  0.13540768498E+03  0.13540768498E+03  0.00000000000E+00 0.  1.
          1   -1    0    0  501    0  0.00000000000E+00 -0.00000000000E+00 -0.10159507859E+03  0.10159507859E+03  0.00000000000E+00 0. -1.
         23    2    1    2    0    0  0.15358430689E+02  0.44350218903E+02  0.56174970007E+02  0.11789049700E+03  0.92410598511E+02 0.  0.
         23    2    1    2    0    0 -0.15358430689E+02 -0.44350218903E+02 -0.22362363611E+02  0.11911226657E+03  0.10716731513E+03 0.  0.
          5    1    3    3  502    0 -0.26359965496E+02 -0.13525247233E+02  0.28017636415E+02  0.41047022352E+02  0.47000000000E+01 0. -1.
         -5    1    3    3    0  502  0.41718396185E+02  0.57875466136E+02  0.28157333592E+02  0.76843474646E+02  0.47000000000E+01 0.  1.
          5    1    4    4  503    0 -0.19968119510E+02  0.11131577479E+02 -0.51177529040E+02  0.56248264796E+02  0.47000000000E+01 0. -1.
         -5    1    4    4    0  503  0.46096888208E+01 -0.55481796381E+02  0.28815165429E+02  0.62864001777E+02  0.47000000000E+01 0.  1.
<mgrwt>
<rscale>  0 0.11350416E+03</rscale>
<asrwt>0</asrwt>
<pdfrwt beam="1">  1        1 0.15630012E-01 0.11699426E+03</pdfrwt>
<pdfrwt beam="2">  1       -1 0.20831952E-01 0.11699426E+03</pdfrwt>
<totfact> 0.62507456E+03</totfact>
</mgrwt>
</event>
<event>
 8    1  0.6396648E-004  0.9495387E+02  0.7546771E-02  0.1291617E+00
          2   -1    0    0  501    0  0.00000000000E+00  0.00000000000E+00  0.26207464287E+03  0.26207464287E+03  0.00000000000E+00 0. -1.
         -2   -1    0    0    0  501 -0.00000000000E+00 -0.00000000000E+00 -0.77503725898E+02  0.77503725898E+02  0.00000000000E+00 0.  1.
         23    2    1    2    0    0 -0.15968592193E+02  0.14996689862E+02 -0.34518864021E+02  0.10103360693E+03  0.92392321718E+02 0.  0.
         23    2    1    2    0    0  0.15968592193E+02 -0.14996689862E+02  0.21908978099E+03  0.23854476183E+03  0.91778944325E+02 0.  0.
          5    1    3    3  502    0  0.28132881602E+02 -0.14293029522E+02  0.80894784472E+01  0.32913209835E+02  0.47000000000E+01 0. -1.
         -5    1    4    4    0  503 -0.11863190552E+02  0.29313500217E+02  0.36378821337E+02  0.48430622822E+02  0.47000000000E+01 0.  1.
          5    1    4    4  503    0  0.27831782745E+02 -0.44310190078E+02  0.18271095965E+03  0.19011413901E+03  0.47000000000E+01 0. -1.
         -5    1    3    3    0  502 -0.44101473794E+02  0.29289719384E+02 -0.42608342468E+02  0.68120397094E+02  0.47000000000E+01 0.  1.
<mgrwt>
<rscale>  0 0.94804338E+02</rscale>
<asrwt>0</asrwt>
<pdfrwt beam="1">  1        2 0.40319175E-01 0.94953872E+02</pdfrwt>
<pdfrwt beam="2">  1       -2 0.11923650E-01 0.94953872E+02</pdfrwt>
<totfact> 0.58945144E+03</totfact>
</mgrwt>
</event>
<event>
 8    1  0.6396648E-004  0.1012023E+03  0.7546771E-02  0.1282322E+00
          2   -1    0    0  501    0  0.00000000000E+00  0.00000000000E+00  0.92042220828E+02  0.92042220828E+02  0.00000000000E+00 0. -1.
         -2   -1    0    0    0  501 -0.00000000000E+00 -0.00000000000E+00 -0.11429835974E+03  0.11429835974E+03  0.00000000000E+00 0.  1.
         23    2    1    2    0    0 -0.12521147534E+02 -0.25897702456E+02  0.22747813649E+02  0.95582884124E+02  0.88267517149E+02 0.  0.
         23    2    1    2    0    0  0.12521147534E+02  0.25897702456E+02 -0.45003952566E+02  0.11075769645E+03  0.97028044647E+02 0.  0.
          5    1    3    3  502    0 -0.25036655886E+01  0.32378631038E+02  0.13786890690E+02  0.35592308778E+02  0.47000000000E+01 0. -1.
         -5    1    3    3    0  502 -0.10017481946E+02 -0.58276333494E+02  0.89609229591E+01  0.59990575346E+02  0.47000000000E+01 0.  1.
          5    1    4    4  503    0  0.40682568926E+02 -0.61114556546E+01  0.84116811637E+01  0.42252428151E+02  0.47000000000E+01 0. -1.
         -5    1    4    4    0  503 -0.28161421392E+02  0.32009158111E+02 -0.53415633729E+02  0.68505268297E+02  0.47000000000E+01 0.  1.
<mgrwt>
<rscale>  0 0.99042736E+02</rscale>
<asrwt>0</asrwt>
<pdfrwt beam="1">  1        2 0.14160342E-01 0.10120233E+03</pdfrwt>
<pdfrwt beam="2">  1       -2 0.17584363E-01 0.10120233E+03</pdfrwt>
<totfact> 0.10012383E+04</totfact>
</mgrwt>
</event>
<event>
 8    1  0.6396648E-004  0.9338055E+02  0.7546771E-02  0.1295763E+00
          1   -1    0    0  501    0  0.00000000000E+00  0.00000000000E+00  0.51462702287E+03  0.51462702287E+03  0.00000000000E+00 0. -1.
         -1   -1    0    0    0  501 -0.00000000000E+00 -0.00000000000E+00 -0.27502277667E+02  0.27502277667E+02  0.00000000000E+00 0.  1.
         23    2    1    2    0    0  0.18904986488E+02  0.10674659206E+02  0.72183374197E+02  0.11681028166E+03  0.89234833599E+02 0.  0.
         23    2    1    2    0    0 -0.18904986488E+02 -0.10674659206E+02  0.41494137101E+03  0.42531901888E+03  0.90821691151E+02 0.  0.
          5    1    4    4  502    0 -0.33749151191E+02  0.16599756411E+02  0.36035421546E+03  0.36234211420E+03  0.47000000000E+01 0. -1.
         -5    1    4    4    0  502  0.14844164702E+02 -0.27274415617E+02  0.54587155549E+02  0.62976904686E+02  0.47000000000E+01 0.  1.
          5    1    3    3  503    0  0.23859740781E+02 -0.20481956173E+02  0.78141556737E+02  0.84362258434E+02  0.47000000000E+01 0. -1.
         -5    1    3    3    0  503 -0.49547542926E+01  0.31156615379E+02 -0.59581825405E+01  0.32448023224E+02  0.47000000000E+01 0.  1.
<mgrwt>
<rscale>  0 0.92992476E+02</rscale>
<asrwt>0</asrwt>
<pdfrwt beam="1">  1        1 0.79173381E-01 0.93380546E+02</pdfrwt>
<pdfrwt beam="2">  1       -1 0.42311200E-02 0.93380546E+02</pdfrwt>
<totfact> 0.91175255E+03</totfact>
</mgrwt>
</event>
<event>
 8    1  0.6396648E-004  0.1001989E+03  0.7546771E-02  0.1280701E+00
         -1   -1    0    0    0  501 -0.00000000000E+00  0.00000000000E+00  0.86733676494E+03  0.86733676494E+03  0.00000000000E+00 0.  1.
          1   -1    0    0  501    0  0.00000000000E+00 -0.00000000000E+00 -0.46220942432E+02  0.46220942432E+02  0.00000000000E+00 0. -1.
         23    2    1    2    0    0 -0.13353201889E+02  0.36771168396E+02  0.80783380629E+03  0.81402412371E+03  0.92246347266E+02 0.  0.
         23    2    1    2    0    0  0.13353201889E+02 -0.36771168396E+02  0.13282016225E+02  0.99533583662E+02  0.90554378666E+02 0.  0.
          5    1    4    4  502    0  0.51448078954E+02 -0.28799129689E+02  0.42232677619E+01  0.59297729210E+02  0.47000000000E+01 0. -1.
         -5    1    3    3    0  503 -0.17931266433E+02 -0.27174606174E+02  0.18698990547E+03  0.18986127642E+03  0.47000000000E+01 0. -1.
          5    1    3    3  503    0  0.45780645442E+01  0.63945774569E+02  0.62084390081E+03  0.62416284729E+03  0.47000000000E+01 0.  1.
         -5    1    4    4    0  502 -0.38094877065E+02 -0.79720387061E+01  0.90587484631E+01  0.40235854451E+02  0.47000000000E+01 0.  1.
<mgrwt>
<rscale>  0 0.99807727E+02</rscale>
<asrwt>0</asrwt>
<pdfrwt beam="1">  1        1 0.71109148E-02 0.10019888E+03</pdfrwt>
<pdfrwt beam="2">  1       -1 0.13343641E+00 0.10019888E+03</pdfrwt>
<totfact> 0.51682718E+02</totfact>
</mgrwt>
</event>
<event>
 8    1  0.6396648E-004  0.1113603E+03  0.7546771E-02  0.1264912E+00
         -4   -1    0    0    0  501 -0.00000000000E+00  0.00000000000E+00  0.69238822993E+03  0.69238822993E+03  0.00000000000E+00 0.  1.
          4   -1    0    0  501    0  0.00000000000E+00 -0.00000000000E+00 -0.76394981800E+02  0.76394981800E+02  0.00000000000E+00 0. -1.
         23    2    1    2    0    0 -0.21049588237E+02 -0.23600079729E+02  0.64612172596E+03  0.65341921732E+03  0.92105048036E+02 0.  0.
         23    2    1    2    0    0  0.21049588237E+02  0.23600079729E+02 -0.30128477834E+02  0.11536399441E+03  0.10677582639E+03 0.  0.
          5    1    3    3  502    0  0.31359053424E+02 -0.54402539397E+01  0.11586622820E+03  0.12024998724E+03  0.47000000000E+01 0. -1.
         -5    1    3    3    0  502 -0.52408641662E+02 -0.18159825790E+02  0.53025549776E+03  0.53316923007E+03  0.47000000000E+01 0.  1.
          5    1    4    4  503    0  0.28549683982E+02  0.60515545725E+02 -0.37271066784E+02  0.76736159332E+02  0.47000000000E+01 0. -1.
         -5    1    4    4    0  503 -0.75000957443E+01 -0.36915465995E+02  0.71425889507E+01  0.38627835077E+02  0.47000000000E+01 0.  1.
<mgrwt>
<rscale>  0 0.10768826E+03</rscale>
<asrwt>0</asrwt>
<pdfrwt beam="1">  1        4 0.11753075E-01 0.11136034E+03</pdfrwt>
<pdfrwt beam="2">  1       -4 0.10652126E+00 0.11136034E+03</pdfrwt>
<totfact> 0.69279572E+01</totfact>
</mgrwt>
</event>
<event>
 8    1  0.6396648E-004  0.9916148E+02  0.7546771E-02  0.1283582E+00
          1   -1    0    0  501    0  0.00000000000E+00  0.00000000000E+00  0.58338198215E+02  0.58338198215E+02  0.00000000000E+00 0. -1.
         -1   -1    0    0    0  501 -0.00000000000E+00 -0.00000000000E+00 -0.24477140423E+03  0.24477140423E+03  0.00000000000E+00 0.  1.
         23    2    1    2    0    0  0.12489165382E+02  0.32382848024E+02 -0.18125994351E+03  0.20661114857E+03  0.92889027853E+02 0.  0.
         23    2    1    2    0    0 -0.12489165382E+02 -0.32382848024E+02 -0.51732625066E+01  0.96498453873E+02  0.89891939888E+02 0.  0.
          5    1    4    4  502    0  0.16838742461E+02 -0.32920788643E+02  0.31850957956E+02  0.49029532889E+02  0.47000000000E+01 0. -1.
         -5    1    3    3    0  503 -0.19714622827E+02  0.54373653621E+02 -0.12697752966E+03  0.13960853699E+03  0.47000000000E+01 0.  1.
          5    1    3    3  503    0  0.32203788209E+02 -0.21990805597E+02 -0.54282413843E+02  0.67002611579E+02  0.47000000000E+01 0. -1.
         -5    1    4    4    0  502 -0.29327907843E+02  0.53794061934E+00 -0.37024220463E+02  0.47468920984E+02  0.47000000000E+01 0.  1.
<mgrwt>
<rscale>  0 0.98453487E+02</rscale>
<asrwt>0</asrwt>
<pdfrwt beam="1">  1        1 0.89751075E-02 0.99161482E+02</pdfrwt>
<pdfrwt beam="2">  1       -1 0.37657139E-01 0.99161482E+02</pdfrwt>
<totfact> 0.47698765E+03</totfact>
</mgrwt>
</event>
<event>
 8    1  0.6396648E-004  0.9296836E+02  0.7546771E-02  0.1295931E+00
         -4   -1    0    0    0  501 -0.00000000000E+00  0.00000000000E+00  0.56625042023E+02  0.56625042023E+02  0.00000000000E+00 0.  1.
          4   -1    0    0  501    0  0.00000000000E+00 -0.00000000000E+00 -0.15425334827E+03  0.15425334827E+03  0.00000000000E+00 0. -1.
         23    2    1    2    0    0  0.59599638000E+01 -0.15902833052E+02 -0.60667190715E+02  0.11101182243E+03  0.91404023005E+02 0.  0.
         23    2    1    2    0    0 -0.59599638000E+01  0.15902833052E+02 -0.36961115536E+02  0.99866567871E+02  0.91207379357E+02 0.  0.
          5    1    4    4  502    0  0.26577513058E+02  0.29101434579E+01  0.19379877195E+02  0.33354201765E+02  0.47000000000E+01 0. -1.
         -5    1    3    3    0  503  0.32122878136E+02 -0.27630069458E+02 -0.68714258922E+02  0.80864327223E+02  0.47000000000E+01 0.  1.
          5    1    3    3  503    0 -0.26162914336E+02  0.11727236407E+02  0.80470682067E+01  0.30147495203E+02  0.47000000000E+01 0. -1.
         -5    1    4    4    0  502 -0.32537476858E+02  0.12992689594E+02 -0.56340992731E+02  0.66512366106E+02  0.47000000000E+01 0.  1.
<mgrwt>
<rscale>  0 0.92919994E+02</rscale>
<asrwt>0</asrwt>
<pdfrwt beam="1">  1        4 0.23731284E-01 0.92968364E+02</pdfrwt>
<pdfrwt beam="2">  1       -4 0.87115451E-02 0.92968364E+02</pdfrwt>
<totfact> 0.23613397E+03</totfact>
</mgrwt>
</event>
<event>
 8    1  0.6396648E-004  0.1043567E+03  0.7546771E-02  0.1271765E+00
          1   -1    0    0  501    0  0.00000000000E+00  0.00000000000E+00  0.21233670573E+03  0.21233670573E+03  0.00000000000E+00 0. -1.
         -1   -1    0    0    0  501 -0.00000000000E+00 -0.00000000000E+00 -0.56472883934E+02  0.56472883934E+02  0.00000000000E+00 0.  1.
         23    2    1    2    0    0 -0.47038376523E+02  0.43479287737E+01  0.12032708436E+03  0.15927627844E+03  0.93052739310E+02 0.  0.
         23    2    1    2    0    0  0.47038376523E+02 -0.43479287737E+01  0.35536737438E+02  0.10953331122E+03  0.92212652112E+02 0.  0.
          5    1    4    4  502    0  0.56327939793E+02 -0.32236394634E+02  0.44042233452E+02  0.78573725048E+02  0.47000000000E+01 0. -1.
         -5    1    4    4    0  502 -0.92895632700E+01  0.27888465861E+02 -0.85054960149E+01  0.30959586177E+02  0.47000000000E+01 0.  1.
          5    1    3    3  503    0 -0.78830262702E+01  0.43684520377E+02  0.32270071266E+02  0.55081094064E+02  0.47000000000E+01 0. -1.
         -5    1    3    3    0  503 -0.39155350253E+02 -0.39336591604E+02  0.88057013094E+02  0.10419518438E+03  0.47000000000E+01 0.  1.
<mgrwt>
<rscale>  0 0.10416912E+03</rscale>
<asrwt>0</asrwt>
<pdfrwt beam="1">  1        1 0.32667185E-01 0.10435672E+03</pdfrwt>
<pdfrwt beam="2">  1       -1 0.86881361E-02 0.10435672E+03</pdfrwt>
<totfact> 0.95175548E+03</totfact>
</mgrwt>
</event>
<event>
 8    1  0.6396648E-004  0.1346727E+03  0.7546771E-02  0.1220855E+00
         -1   -1    0    0    0  501 -0.00000000000E+00  0.00000000000E+00  0.39896416919E+03  0.39896416919E+03  0.00000000000E+00 0.  1.
          1   -1    0    0  501    0  0.00000000000E+00 -0.00000000000E+00 -0.47230602685E+02  0.47230602685E+02  0.00000000000E+00 0. -1.
         23    2    1    2    0    0 -0.36741855884E+02 -0.91322568572E+02  0.13039844443E+03  0.18710795584E+03  0.91191322640E+02 0.  0.
         23    2    1    2    0    0  0.36741855884E+02  0.91322568572E+02  0.22133512208E+03  0.25908681604E+03  0.91907379868E+02 0.  0.
          5    1    3    3  502    0 -0.65938446857E+02 -0.48504589876E+02  0.84127671707E+02  0.11747395098E+03  0.47000000000E+01 0. -1.
         -5    1    3    3    0  502  0.29196590973E+02 -0.42817978696E+02  0.46270772718E+02  0.69634004854E+02  0.47000000000E+01 0.  1.
          5    1    4    4  503    0  0.48491482984E+02  0.22171043369E+02  0.47456409733E+02  0.71534466594E+02  0.47000000000E+01 0. -1.
         -5    1    4    4    0  503 -0.11749627100E+02  0.69151525203E+02  0.17387871235E+03  0.18755234944E+03  0.47000000000E+01 0.  1.
<mgrwt>
<rscale>  0 0.13455064E+03</rscale>
<asrwt>0</asrwt>
<pdfrwt beam="1">  1        1 0.72662468E-02 0.13467272E+03</pdfrwt>
<pdfrwt beam="2">  1       -1 0.61379101E-01 0.13467272E+03</pdfrwt>
<totfact> 0.26647825E+03</totfact>
</mgrwt>
</event>
<event>
 8    1  0.6396648E-004  0.9535250E+02  0.7546771E-02  0.1290636E+00
         -3   -1    0    0    0  501 -0.00000000000E+00  0.00000000000E+00  0.45066441249E+02  0.45066441249E+02  0.00000000000E+00 0.  1.
          3   -1    0    0  501    0  0.00000000000E+00 -0.00000000000E+00 -0.61611772398E+03  0.61611772398E+03  0.00000000000E+00 0. -1.
         23    2    1    2    0    0 -0.22860134281E+02 -0.99440719181E+01 -0.13881155723E+02  0.95913743303E+02  0.91571225636E+02 0.  0.
         23    2    1    2    0    0  0.22860134281E+02  0.99440719181E+01 -0.55717012701E+03  0.56527042193E+03  0.92036021039E+02 0.  0.
          5    1    4    4  502    0  0.15867784665E+02  0.50608835326E+02 -0.34345396904E+03  0.34755684377E+03  0.47000000000E+01 0. -1.
         -5    1    4    4    0  502  0.69923496166E+01 -0.40664763408E+02 -0.21371615797E+03  0.21771357815E+03  0.47000000000E+01 0.  1.
          5    1    3    3  503    0  0.33606725572E+02 -0.15409562765E+02  0.21492792910E+00  0.37269328170E+02  0.47000000000E+01 0. -1.
         -5    1    3    3    0  503 -0.56466859853E+02  0.54654908465E+01 -0.14096083652E+02  0.58644415132E+02  0.47000000000E+01 0.  1.
<mgrwt>
<rscale>  0 0.95240165E+02</rscale>
<asrwt>0</asrwt>
<pdfrwt beam="1">  1        3 0.94787338E-01 0.95352501E+02</pdfrwt>
<pdfrwt beam="2">  1       -3 0.69332989E-02 0.95352501E+02</pdfrwt>
<totfact> 0.30542453E+02</totfact>
</mgrwt>
</event>
<event>
 8    1  0.6396648E-004  0.1320433E+03  0.7546771E-02  0.1224868E+00
          1   -1    0    0  501    0  0.00000000000E+00  0.00000000000E+00  0.33781389977E+03  0.33781389977E+03  0.00000000000E+00 0. -1.
         -1   -1    0    0    0  501 -0.00000000000E+00 -0.00000000000E+00 -0.52595009910E+02  0.52595009910E+02  0.00000000000E+00 0.  1.
         23    2    1    2    0    0  0.92867996283E+02  0.12351531723E+02  0.17532566456E+03  0.21948694383E+03  0.93050549640E+02 0.  0.
         23    2    1    2    0    0 -0.92867996283E+02 -0.12351531723E+02  0.10989322530E+03  0.17092196585E+03  0.91437259225E+02 0.  0.
          5    1    4    4  502    0 -0.64600940646E+02  0.20588846231E+02  0.10751709652E+03  0.12719747704E+03  0.47000000000E+01 0. -1.
         -5    1    3    3    0  503  0.66321944663E+02 -0.20589078242E+02  0.46236259250E+02  0.83560709405E+02  0.47000000000E+01 0.  1.
          5    1    3    3  503    0  0.26546051620E+02  0.32940609966E+02  0.12908940531E+03  0.13592623442E+03  0.47000000000E+01 0. -1.
         -5    1    4    4    0  502 -0.28267055637E+02 -0.32940377954E+02  0.23761287850E+01  0.43724488815E+02  0.47000000000E+01 0.  1.
<mgrwt>
<rscale>  0 0.13175940E+03</rscale>
<asrwt>0</asrwt>
<pdfrwt beam="1">  1        1 0.51971368E-01 0.13204329E+03</pdfrwt>
<pdfrwt beam="2">  1       -1 0.80915402E-02 0.13204329E+03</pdfrwt>
<totfact> 0.60820729E+03</totfact>
</mgrwt>
</event>
<event>
 8    1  0.6396648E-004  0.1192843E+03  0.7546771E-02  0.1244494E+00
          2   -1    0    0  501    0  0.00000000000E+00  0.00000000000E+00  0.11068009679E+03  0.11068009679E+03  0.00000000000E+00 0. -1.
         -2   -1    0    0    0  501 -0.00000000000E+00 -0.00000000000E+00 -0.14810718142E+03  0.14810718142E+03  0.00000000000E+00 0.  1.
         23    2    1    2    0    0  0.74194992679E+02  0.25087647895E+02 -0.66342151084E+02  0.13604838579E+03  0.89294990061E+02 0.  0.
         23    2    1    2    0    0 -0.74194992679E+02 -0.25087647895E+02  0.28915066454E+02  0.12273889243E+03  0.89969259364E+02 0.  0.
          5    1    3    3  502    0  0.68223602068E+01  0.38050717183E+02  0.21346071015E+01  0.39000618257E+02  0.47000000000E+01 0. -1.
         -5    1    4    4    0  503 -0.11989197253E+02 -0.44320607583E+02 -0.93201285004E+01  0.47085155862E+02  0.47000000000E+01 0.  1.
          5    1    4    4  503    0 -0.62205795427E+02  0.19232959688E+02  0.38235194955E+02  0.75653736565E+02  0.47000000000E+01 0. -1.
         -5    1    3    3    0  502  0.67372632472E+02 -0.12963069288E+02 -0.68476758185E+02  0.97047767533E+02  0.47000000000E+01 0.  1.
<mgrwt>
<rscale>  0 0.11915721E+03</rscale>
<asrwt>0</asrwt>
<pdfrwt beam="1">  1        2 0.17027707E-01 0.11928434E+03</pdfrwt>
<pdfrwt beam="2">  1       -2 0.22785720E-01 0.11928434E+03</pdfrwt>
<totfact> 0.52964196E+03</totfact>
</mgrwt>
</event>
<event>
 8    1  0.6396648E-004  0.9911465E+02  0.7546771E-02  0.1283295E+00
         -1   -1    0    0    0  501 -0.00000000000E+00  0.00000000000E+00  0.17326874471E+02  0.17326874471E+02  0.00000000000E+00 0.  1.
          1   -1    0    0  501    0  0.00000000000E+00 -0.00000000000E+00 -0.65599237352E+03  0.65599237352E+03  0.00000000000E+00 0. -1.
         23    2    1    2    0    0 -0.17639670218E+02 -0.21082789223E+02 -0.44849914335E+03  0.45887355051E+03  0.93047363264E+02 0.  0.
         23    2    1    2    0    0  0.17639670218E+02  0.21082789223E+02 -0.19016635570E+03  0.21444569748E+03  0.95226426790E+02 0.  0.
          5    1    4    4  502    0  0.50535849203E+02  0.22514674145E+02 -0.67771353870E+02  0.87611808633E+02  0.47000000000E+01 0. -1.
         -5    1    4    4    0  502 -0.32896178985E+02 -0.14318849214E+01 -0.12239500183E+03  0.12683388885E+03  0.47000000000E+01 0.  1.
          5    1    3    3  503    0  0.61398637839E+01 -0.43130419891E+02 -0.38435745332E+03  0.38684709249E+03  0.47000000000E+01 0. -1.
         -5    1    3    3    0  503 -0.23779534002E+02  0.22047630668E+02 -0.64141690027E+02  0.72026458020E+02  0.47000000000E+01 0.  1.
<mgrwt>
<rscale>  0 0.98587538E+02</rscale>
<asrwt>0</asrwt>
<pdfrwt beam="1">  1        1 0.10092189E+00 0.99114652E+02</pdfrwt>
<pdfrwt beam="2">  1       -1 0.26656734E-02 0.99114652E+02</pdfrwt>
<totfact> 0.12935205E+04</totfact>
</mgrwt>
</event>
<event>
 8    1  0.6396648E-004  0.1334280E+03  0.7546771E-02  0.1223874E+00
         -1   -1    0    0    0  501 -0.00000000000E+00  0.00000000000E+00  0.24978869124E+02  0.24978869124E+02  0.00000000000E+00 0.  1.
          1   -1    0    0  501    0  0.00000000000E+00 -0.00000000000E+00 -0.11854413140E+04  0.11854413140E+04  0.00000000000E+00 0. -1.
         23    2    1    2    0    0 -0.10114730611E+02  0.94186588191E+02 -0.19483611010E+03  0.23614433656E+03  0.93966040234E+02 0.  0.
         23    2    1    2    0    0  0.10114730611E+02 -0.94186588191E+02 -0.96562633480E+03  0.97427584660E+03  0.88350357258E+02 0.  0.
          5    1    3    3  502    0 -0.40005755844E+02  0.14012983194E+02 -0.97749966500E+02  0.10664881691E+03  0.47000000000E+01 0. -1.
         -5    1    4    4    0  503  0.34996142968E+02 -0.17041756862E+02 -0.16737888895E+03  0.17190966804E+03  0.47000000000E+01 0.  1.
          5    1    4    4  503    0 -0.24881412356E+02 -0.77144831329E+02 -0.79824744586E+03  0.80236617856E+03  0.47000000000E+01 0. -1.
         -5    1    3    3    0  502  0.29891025232E+02  0.80173604997E+02 -0.97086143605E+02  0.12949551964E+03  0.47000000000E+01 0.  1.
<mgrwt>
<rscale>  0 0.13244383E+03</rscale>
<asrwt>0</asrwt>
<pdfrwt beam="1">  1        1 0.18237558E+00 0.13342803E+03</pdfrwt>
<pdfrwt beam="2">  1       -1 0.38429031E-02 0.13342803E+03</pdfrwt>
<totfact> 0.30220007E+03</totfact>
</mgrwt>
</event>
<event>
 8    1  0.6396648E-004  0.1727916E+03  0.7546771E-02  0.1175024E+00
          1   -1    0    0  501    0  0.00000000000E+00  0.00000000000E+00  0.64361111689E+02  0.64361111689E+02  0.00000000000E+00 0. -1.
         -1   -1    0    0    0  501 -0.00000000000E+00 -0.00000000000E+00 -0.51022726356E+03  0.51022726356E+03  0.00000000000E+00 0.  1.
         23    2    1    2    0    0 -0.12866531751E+03  0.69143719704E+02 -0.13567314601E+03  0.21951565144E+03  0.91892876622E+02 0.  0.
         23    2    1    2    0    0  0.12866531751E+03 -0.69143719704E+02 -0.31019300586E+03  0.35507272381E+03  0.92310998294E+02 0.  0.
          5    1    3    3  502    0 -0.90860400248E+02  0.13846233634E+02 -0.34911527760E+02  0.98428833629E+02  0.47000000000E+01 0. -1.
         -5    1    4    4    0  503  0.80088610128E+02  0.88663545384E+01 -0.14034461648E+03  0.16189965747E+03  0.47000000000E+01 0.  1.
          5    1    4    4  503    0  0.48576707378E+02 -0.78010074242E+02 -0.16984838939E+03  0.19317306634E+03  0.47000000000E+01 0. -1.
         -5    1    3    3    0  502 -0.37804917259E+02  0.55297486070E+02 -0.10076161825E+03  0.12108681781E+03  0.47000000000E+01 0.  1.
<mgrwt>
<rscale>  0 0.17273582E+03</rscale>
<asrwt>0</asrwt>
<pdfrwt beam="1">  1        1 0.99017097E-02 0.17279160E+03</pdfrwt>
<pdfrwt beam="2">  1       -1 0.78496500E-01 0.17279160E+03</pdfrwt>
<totfact> 0.10923427E+03</totfact>
</mgrwt>
</event>
<event>
 8    1  0.6396648E-004  0.9446280E+02  0.7546771E-02  0.1294356E+00
          1   -1    0    0  501    0  0.00000000000E+00  0.00000000000E+00  0.40565732260E+02  0.40565732260E+02  0.00000000000E+00 0. -1.
         -1   -1    0    0    0  501 -0.00000000000E+00 -0.00000000000E+00 -0.22178933115E+03  0.22178933115E+03  0.00000000000E+00 0.  1.
         23    2    1    2    0    0  0.58014630977E+01 -0.16709771688E+02 -0.61655928768E+02  0.10997511691E+03  0.89331961486E+02 0.  0.
         23    2    1    2    0    0 -0.58014630977E+01  0.16709771688E+02 -0.11956767012E+03  0.15237994650E+03  0.92791955004E+02 0.  0.
          5    1    4    4  502    0 -0.35180708842E+02 -0.23528517755E+02 -0.40253682380E+02  0.58597972384E+02  0.47000000000E+01 0. -1.
         -5    1    4    4    0  502  0.29379245744E+02  0.40238289443E+02 -0.79313987745E+02  0.93781974120E+02  0.47000000000E+01 0.  1.
          5    1    3    3  503    0 -0.21107096633E+02  0.29984740687E+02 -0.24937929540E+02  0.44593548099E+02  0.47000000000E+01 0. -1.
         -5    1    3    3    0  503  0.26908559731E+02 -0.46694512375E+02 -0.36717999228E+02  0.65381568810E+02  0.47000000000E+01 0.  1.
<mgrwt>
<rscale>  0 0.93601981E+02</rscale>
<asrwt>0</asrwt>
<pdfrwt beam="1">  1        1 0.62408821E-02 0.94462799E+02</pdfrwt>
<pdfrwt beam="2">  1       -1 0.34121434E-01 0.94462799E+02</pdfrwt>
<totfact> 0.91186954E+03</totfact>
</mgrwt>
</event>
<event>
 8    1  0.6396648E-004  0.1011134E+03  0.7546771E-02  0.1280774E+00
          3   -1    0    0  501    0  0.00000000000E+00  0.00000000000E+00  0.78187264948E+02  0.78187264948E+02  0.00000000000E+00 0. -1.
         -3   -1    0    0    0  501 -0.00000000000E+00 -0.00000000000E+00 -0.14097665020E+03  0.14097665020E+03  0.00000000000E+00 0.  1.
         23    2    1    2    0    0  0.19050895841E+02  0.23188760705E+02 -0.70086366531E+02  0.12302852017E+03  0.96557044003E+02 0.  0.
         23    2    1    2    0    0 -0.19050895841E+02 -0.23188760705E+02  0.72969812785E+01  0.96135394977E+02  0.91039073898E+02 0.  0.
          5    1    3    3  502    0 -0.25283973559E+02 -0.33261008332E+01  0.98480326343E+01  0.27738349130E+02  0.47000000000E+01 0. -1.
         -5    1    3    3    0  502  0.44334869400E+02  0.26514861538E+02 -0.79934399165E+02  0.95290171041E+02  0.47000000000E+01 0.  1.
          5    1    4    4  503    0 -0.21772104047E+02 -0.50924965092E+02  0.26889547448E+02  0.61745561348E+02  0.47000000000E+01 0. -1.
         -5    1    4    4    0  503  0.27212082063E+01  0.27736204387E+02 -0.19592566169E+02  0.34389833629E+02  0.47000000000E+01 0.  1.
<mgrwt>
<rscale>  0 0.99773147E+02</rscale>
<asrwt>0</asrwt>
<pdfrwt beam="1">  1        3 0.12028810E-01 0.10111339E+03</pdfrwt>
<pdfrwt beam="2">  1       -3 0.21688715E-01 0.10111339E+03</pdfrwt>
<totfact> 0.22762306E+03</totfact>
</mgrwt>
</event>
<event>
 8    1  0.6396648E-004  0.1526960E+03  0.7546771E-02  0.1198689E+00
         -1   -1    0    0    0  501 -0.00000000000E+00  0.00000000000E+00  0.18543372574E+02  0.18543372574E+02  0.00000000000E+00 0.  1.
          1   -1    0    0  501    0  0.00000000000E+00 -0.00000000000E+00 -0.13284671276E+04  0.13284671276E+04  0.00000000000E+00 0. -1.
         23    2    1    2    0    0 -0.11899283274E+03 -0.10169312355E+02 -0.83982584170E+03  0.85273514224E+03  0.87103784506E+02 0.  0.
         23    2    1    2    0    0  0.11899283274E+03  0.10169312355E+02 -0.47009791329E+03  0.49427535789E+03  0.95149210097E+02 0.  0.
          5    1    4    4  502    0  0.97190982678E+02  0.37411291388E+02 -0.42189563024E+03  0.43458451958E+03  0.47000000000E+01 0. -1.
         -5    1    3    3    0  503 -0.11066807129E+03  0.19098037447E+02 -0.73273493899E+03  0.74130610267E+03  0.47000000000E+01 0.  1.
          5    1    3    3  503    0 -0.83247614505E+01 -0.29267349802E+02 -0.10709090271E+03  0.11142903957E+03  0.47000000000E+01 0. -1.
         -5    1    4    4    0  502  0.21801850065E+02 -0.27241979033E+02 -0.48202283045E+02  0.59690838314E+02  0.47000000000E+01 0.  1.
<mgrwt>
<rscale>  0 0.15146131E+03</rscale>
<asrwt>0</asrwt>
<pdfrwt beam="1">  1        1 0.20437954E+00 0.15269604E+03</pdfrwt>
<pdfrwt beam="2">  1       -1 0.28528269E-02 0.15269604E+03</pdfrwt>
<totfact> 0.37506568E+03</totfact>
</mgrwt>
</event>
<event>
 8    1  0.6396648E-004  0.1028577E+03  0.7546771E-02  0.1274513E+00
          2   -1    0    0  501    0  0.00000000000E+00  0.00000000000E+00  0.78895954585E+03  0.78895954585E+03  0.00000000000E+00 0. -1.
         -2   -1    0    0    0  501 -0.00000000000E+00 -0.00000000000E+00 -0.13912147979E+02  0.13912147979E+02  0.00000000000E+00 0.  1.
         23    2    1    2    0    0 -0.63240846863E+01 -0.45619542471E+02  0.46642997764E+03  0.47763651000E+03  0.91970511239E+02 0.  0.
         23    2    1    2    0    0  0.63240846863E+01  0.45619542471E+02  0.30861742023E+03  0.32523518384E+03  0.91717370387E+02 0.  0.
          5    1    4    4  502    0  0.26411384561E+02  0.55364382184E+02  0.28795585322E+03  0.29445447772E+03  0.47000000000E+01 0. -1.
         -5    1    3    3    0  503 -0.33251681807E+02 -0.51031288020E+02  0.41183720992E+03  0.41634342096E+03  0.47000000000E+01 0.  1.
          5    1    3    3  503    0  0.26927597120E+02  0.54117455488E+01  0.54592767719E+02  0.61293089038E+02  0.47000000000E+01 0. -1.
         -5    1    4    4    0  502 -0.20087299875E+02 -0.97448397127E+01  0.20661567018E+02  0.30780706115E+02  0.47000000000E+01 0.  1.
<mgrwt>
<rscale>  0 0.10280111E+03</rscale>
<asrwt>0</asrwt>
<pdfrwt beam="1">  1        2 0.12137836E+00 0.10285773E+03</pdfrwt>
<pdfrwt beam="2">  1       -2 0.21403311E-02 0.10285773E+03</pdfrwt>
<totfact> 0.23320924E+04</totfact>
</mgrwt>
</event>
<event>
 8    1  0.6396648E-004  0.9426598E+02  0.7546771E-02  0.1293021E+00
         -2   -1    0    0    0  501 -0.00000000000E+00  0.00000000000E+00  0.28126288452E+03  0.28126288452E+03  0.00000000000E+00 0.  1.
          2   -1    0    0  501    0  0.00000000000E+00 -0.00000000000E+00 -0.35379420021E+02  0.35379420021E+02  0.00000000000E+00 0. -1.
         23    2    1    2    0    0  0.19118642953E+02  0.90437732271E+01  0.70235770506E+02  0.11729791209E+03  0.91533733561E+02 0.  0.
         23    2    1    2    0    0 -0.19118642953E+02 -0.90437732271E+01  0.17564769400E+03  0.19934439245E+03  0.91862734850E+02 0.  0.
          5    1    4    4  502    0  0.35638714043E+02 -0.58763483940E+01  0.47382784915E+02  0.59765104496E+02  0.47000000000E+01 0. -1.
         -5    1    3    3    0  503  0.16155650292E+02  0.38373989484E+02  0.10130770585E+01  0.41912819404E+02  0.47000000000E+01 0.  1.
          5    1    3    3  503    0  0.29629926609E+01 -0.29330216257E+02  0.69222693447E+02  0.75385092686E+02  0.47000000000E+01 0. -1.
         -5    1    4    4    0  502 -0.54757356996E+02 -0.31674248331E+01  0.12826490908E+03  0.13957928796E+03  0.47000000000E+01 0.  1.
<mgrwt>
<rscale>  0 0.94185728E+02</rscale>
<asrwt>0</asrwt>
<pdfrwt beam="1">  1        2 0.54429879E-02 0.94265977E+02</pdfrwt>
<pdfrwt beam="2">  1       -2 0.43271212E-01 0.94265977E+02</pdfrwt>
<totfact> 0.65652565E+03</totfact>
</mgrwt>
</event>
<event>
 8    1  0.6396648E-004  0.1519099E+03  0.7546771E-02  0.1202681E+00
          1   -1    0    0  501    0  0.00000000000E+00  0.00000000000E+00  0.13793201440E+04  0.13793201440E+04  0.00000000000E+00 0. -1.
         -1   -1    0    0    0  501 -0.00000000000E+00 -0.00000000000E+00 -0.15302773326E+02  0.15302773326E+02  0.00000000000E+00 0.  1.
         23    2    1    2    0    0 -0.92016557999E+02 -0.50884392865E+02  0.59125128444E+03  0.60706718454E+03  0.88860659485E+02 0.  0.
         23    2    1    2    0    0  0.92016557999E+02  0.50884392865E+02  0.77276608619E+03  0.78755573274E+03  0.10963731041E+03 0.  0.
          5    1    4    4  502    0  0.55465648905E+02 -0.29084063879E+02  0.27694879054E+03  0.28398070984E+03  0.47000000000E+01 0. -1.
         -5    1    3    3    0  503 -0.82403512644E+02 -0.80859180831E+00  0.29096534692E+03  0.30244655036E+03  0.47000000000E+01 0.  1.
          5    1    3    3  503    0 -0.96130453546E+01 -0.50075801057E+02  0.30028593752E+03  0.30462063418E+03  0.47000000000E+01 0. -1.
         -5    1    4    4    0  502  0.36550909093E+02  0.79968456744E+02  0.49581729565E+03  0.50357502290E+03  0.47000000000E+01 0.  1.
<mgrwt>
<rscale>  0 0.14821691E+03</rscale>
<asrwt>0</asrwt>
<pdfrwt beam="1">  1        1 0.21220300E+00 0.15190987E+03</pdfrwt>
<pdfrwt beam="2">  1       -1 0.23542739E-02 0.15190987E+03</pdfrwt>
<totfact> 0.45881319E+03</totfact>
</mgrwt>
</event>
<event>
 8    1  0.6396648E-004  0.1045219E+03  0.7546771E-02  0.1273897E+00
         -2   -1    0    0    0  501 -0.00000000000E+00  0.00000000000E+00  0.31710368374E+02  0.31710368374E+02  0.00000000000E+00 0.  1.
          2   -1    0    0  501    0  0.00000000000E+00 -0.00000000000E+00 -0.73198229084E+03  0.73198229084E+03  0.00000000000E+00 0. -1.
         23    2    1    2    0    0 -0.10917562169E+02 -0.37564661459E+02 -0.70230936000E+02  0.12592540514E+03  0.96925364754E+02 0.  0.
         23    2    1    2    0    0  0.10917562169E+02  0.37564661459E+02 -0.63004098647E+03  0.63776725408E+03  0.90912753742E+02 0.  0.
          5    1    4    4  502    0 -0.39487440371E+02  0.20428430671E+02 -0.24663157390E+03  0.25065075697E+03  0.47000000000E+01 0. -1.
         -5    1    3    3    0  503  0.89833113070E+01 -0.61443652058E+02 -0.17760332482E+02  0.64757560717E+02  0.47000000000E+01 0.  1.
          5    1    3    3  503    0 -0.19900873476E+02  0.23878990598E+02 -0.52470603519E+02  0.61167844418E+02  0.47000000000E+01 0. -1.
         -5    1    4    4    0  502  0.50405002540E+02  0.17136230788E+02 -0.38340941257E+03  0.38711649711E+03  0.47000000000E+01 0.  1.
<mgrwt>
<rscale>  0 0.10310585E+03</rscale>
<asrwt>0</asrwt>
<pdfrwt beam="1">  1        2 0.11261266E+00 0.10452188E+03</pdfrwt>
<pdfrwt beam="2">  1       -2 0.48785183E-02 0.10452188E+03</pdfrwt>
<totfact> 0.76488178E+03</totfact>
</mgrwt>
</event>
<event>
 8    1  0.6396648E-004  0.1646578E+03  0.7546771E-02  0.1188173E+00
          2   -1    0    0  501    0  0.00000000000E+00  0.00000000000E+00  0.85584379554E+03  0.85584379554E+03  0.00000000000E+00 0. -1.
         -2   -1    0    0    0  501 -0.00000000000E+00 -0.00000000000E+00 -0.31541045073E+02  0.31541045073E+02  0.00000000000E+00 0.  1.
         23    2    1    2    0    0 -0.98018879464E+02 -0.84740442313E+02  0.56562264216E+03  0.58910198715E+03  0.10160479637E+03 0.  0.
         23    2    1    2    0    0  0.98018879464E+02  0.84740442313E+02  0.25868010831E+03  0.29828285346E+03  0.72585252924E+02 0.  0.
          5    1    4    4  502    0  0.36475508653E+02  0.70197730381E+02  0.18381772054E+03  0.20017299635E+03  0.47000000000E+01 0. -1.
         -5    1    3    3    0  503 -0.25549502792E+02 -0.36464874613E+02  0.54212640609E+02  0.70310486951E+02  0.47000000000E+01 0.  1.
          5    1    3    3  503    0 -0.72469376671E+02 -0.48275567700E+02  0.51141000155E+03  0.51879150020E+03  0.47000000000E+01 0. -1.
         -5    1    4    4    0  502  0.61543370810E+02  0.14542711932E+02  0.74862387762E+02  0.98109857111E+02  0.47000000000E+01 0.  1.
<mgrwt>
<rscale>  0 0.16046510E+03</rscale>
<asrwt>0</asrwt>
<pdfrwt beam="1">  1        2 0.13166826E+00 0.16465776E+03</pdfrwt>
<pdfrwt beam="2">  1       -2 0.48524691E-02 0.16465776E+03</pdfrwt>
<totfact> 0.65082533E+03</totfact>
</mgrwt>
</event>
<event>
 8    1  0.6396648E-004  0.9816140E+02  0.7546771E-02  0.1285617E+00
         -2   -1    0    0    0  501 -0.00000000000E+00  0.00000000000E+00  0.13002026072E+02  0.13002026072E+02  0.00000000000E+00 0.  1.
          2   -1    0    0  501    0  0.00000000000E+00 -0.00000000000E+00 -0.76964680264E+03  0.76964680264E+03  0.00000000000E+00 0. -1.
         23    2    1    2    0    0 -0.15260347769E+02 -0.34229986060E+02 -0.27603587387E+03  0.29211791357E+03  0.87934643949E+02 0.  0.
         23    2    1    2    0    0  0.15260347769E+02  0.34229986060E+02 -0.48060890270E+03  0.49053091515E+03  0.90725361374E+02 0.  0.
          5    1    3    3  502    0  0.30144690424E+02 -0.37919678703E+02 -0.16442283724E+03  0.17147467393E+03  0.47000000000E+01 0. -1.
         -5    1    4    4    0  503  0.30312698122E+01 -0.29690207389E+02 -0.10352580081E+03  0.10784423232E+03  0.47000000000E+01 0.  1.
          5    1    4    4  503    0  0.12229077957E+02  0.63920193449E+02 -0.37708310189E+03  0.38268668282E+03  0.47000000000E+01 0. -1.
         -5    1    3    3    0  502 -0.45405038193E+02  0.36896926433E+01 -0.11161303663E+03  0.12064323964E+03  0.47000000000E+01 0.  1.
<mgrwt>
<rscale>  0 0.97511638E+02</rscale>
<asrwt>0</asrwt>
<pdfrwt beam="1">  1        2 0.11840720E+00 0.98161405E+02</pdfrwt>
<pdfrwt beam="2">  1       -2 0.20003118E-02 0.98161405E+02</pdfrwt>
<totfact> 0.26380530E+04</totfact>
</mgrwt>
</event>
<event>
 8    1  0.6396648E-004  0.1060882E+03  0.7546771E-02  0.1268196E+00
         -2   -1    0    0    0  501 -0.00000000000E+00  0.00000000000E+00  0.22710965754E+02  0.22710965754E+02  0.00000000000E+00 0.  1.
          2   -1    0    0  501    0  0.00000000000E+00 -0.00000000000E+00 -0.49656994927E+03  0.49656994927E+03  0.00000000000E+00 0. -1.
         23    2    1    2    0    0  0.38504492026E+02 -0.35113631018E+02 -0.25658237466E+03  0.27748798222E+03  0.91921174382E+02 0.  0.
         23    2    1    2    0    0 -0.38504492026E+02  0.35113631018E+02 -0.21727660885E+03  0.24179293280E+03  0.92407438063E+02 0.  0.
          5    1    3    3  502    0 -0.49569696020E+01 -0.32027137745E+02 -0.21362854467E+03  0.21612393249E+03  0.47000000000E+01 0. -1.
         -5    1    3    3    0  502  0.43461461628E+02 -0.30864932726E+01 -0.42953829993E+02  0.61364049725E+02  0.47000000000E+01 0.  1.
          5    1    4    4  503    0 -0.67707634989E+02  0.35312969068E+02 -0.15624590269E+03  0.17397184177E+03  0.47000000000E+01 0. -1.
         -5    1    4    4    0  503  0.29203142963E+02 -0.19933805031E+00 -0.61030706157E+02  0.67821091031E+02  0.47000000000E+01 0.  1.
<mgrwt>
<rscale>  0 0.10598218E+03</rscale>
<asrwt>0</asrwt>
<pdfrwt beam="1">  1        2 0.76395369E-01 0.10608816E+03</pdfrwt>
<pdfrwt beam="2">  1       -2 0.34939951E-02 0.10608816E+03</pdfrwt>
<totfact> 0.19455584E+04</totfact>
</mgrwt>
</event>
<event>
 8    1  0.6396648E-004  0.2130738E+03  0.7546771E-02  0.1139990E+00
          1   -1    0    0  501    0  0.00000000000E+00  0.00000000000E+00  0.18007984225E+03  0.18007984225E+03  0.00000000000E+00 0. -1.
         -1   -1    0    0    0  501 -0.00000000000E+00 -0.00000000000E+00 -0.39430384428E+03  0.39430384428E+03  0.00000000000E+00 0.  1.
         23    2    1    2    0    0  0.78779986106E+02 -0.17485002539E+03  0.67677631424E+02  0.22356368666E+03  0.92852800763E+02 0.  0.
         23    2    1    2    0    0 -0.78779986106E+02  0.17485002539E+03 -0.28190163346E+03  0.35081999987E+03  0.82627621125E+02 0.  0.
          5    1    3    3  502    0  0.51031434179E+02 -0.12885914559E+03  0.21342658660E+01  0.13869221956E+03  0.47000000000E+01 0. -1.
         -5    1    4    4    0  503 -0.90539712495E+02  0.15188996844E+03 -0.21166270141E+03  0.27584631812E+03  0.47000000000E+01 0.  1.
          5    1    4    4  503    0  0.11759726389E+02  0.22960056945E+02 -0.70238932052E+02  0.74973681752E+02  0.47000000000E+01 0. -1.
         -5    1    3    3    0  502  0.27748551927E+02 -0.45990879794E+02  0.65543365558E+02  0.84871467095E+02  0.47000000000E+01 0.  1.
<mgrwt>
<rscale>  0 0.21200253E+03</rscale>
<asrwt>0</asrwt>
<pdfrwt beam="1">  1        1 0.27704591E-01 0.21307384E+03</pdfrwt>
<pdfrwt beam="2">  1       -1 0.60662130E-01 0.21307384E+03</pdfrwt>
<totfact> 0.47940315E+02</totfact>
</mgrwt>
</event>
<event>
 8    1  0.6396648E-004  0.1006838E+03  0.7546771E-02  0.1281053E+00
         -1   -1    0    0    0  501 -0.00000000000E+00  0.00000000000E+00  0.11162411582E+02  0.11162411582E+02  0.00000000000E+00 0.  1.
          1   -1    0    0  501    0  0.00000000000E+00 -0.00000000000E+00 -0.87276337244E+03  0.87276337244E+03  0.00000000000E+00 0. -1.
         23    2    1    2    0    0  0.40138742075E+00  0.30477561822E+02 -0.42289424839E+03  0.43471458352E+03  0.95959266962E+02 0.  0.
         23    2    1    2    0    0 -0.40138742075E+00 -0.30477561822E+02 -0.43870671247E+03  0.44921120051E+03  0.91641039970E+02 0.  0.
          5    1    3    3  502    0  0.88329074577E+01 -0.29111364281E+02 -0.66949159105E+02  0.73686984531E+02  0.47000000000E+01 0. -1.
         -5    1    3    3    0  502 -0.84315200369E+01  0.59588926103E+02 -0.35594508928E+03  0.36102759899E+03  0.47000000000E+01 0.  1.
          5    1    4    4  503    0 -0.31439575189E+02 -0.49180834526E+02 -0.30668155199E+03  0.31222246188E+03  0.47000000000E+01 0. -1.
         -5    1    4    4    0  503  0.31038187768E+02  0.18703272705E+02 -0.13202516048E+03  0.13698873863E+03  0.47000000000E+01 0.  1.
<mgrwt>
<rscale>  0 0.99641006E+02</rscale>
<asrwt>0</asrwt>
<pdfrwt beam="1">  1        1 0.13427126E+00 0.10068378E+03</pdfrwt>
<pdfrwt beam="2">  1       -1 0.17172945E-02 0.10068378E+03</pdfrwt>
<totfact> 0.16039416E+04</totfact>
</mgrwt>
</event>
<event>
 8    1  0.6396648E-004  0.1423599E+03  0.7546771E-02  0.1210586E+00
         -3   -1    0    0    0  501 -0.00000000000E+00  0.00000000000E+00  0.35946710908E+03  0.35946710908E+03  0.00000000000E+00 0.  1.
          3   -1    0    0  501    0  0.00000000000E+00 -0.00000000000E+00 -0.59657144663E+02  0.59657144663E+02  0.00000000000E+00 0. -1.
         23    2    1    2    0    0  0.10713329589E+03  0.98923286302E+01  0.97932309415E+02  0.17279196927E+03  0.93225136966E+02 0.  0.
         23    2    1    2    0    0 -0.10713329589E+03 -0.98923286302E+01  0.20187765501E+03  0.24633228448E+03  0.91376175959E+02 0.  0.
          5    1    4    4  502    0 -0.10676548807E+03  0.20733259711E+02  0.14215738113E+03  0.17905180398E+03  0.47000000000E+01 0. -1.
         -5    1    3    3    0  503  0.80263763282E+02  0.11040960939E+02  0.11488247400E+03  0.14065648704E+03  0.47000000000E+01 0.  1.
          5    1    3    3  503    0  0.26869532606E+02 -0.11486323089E+01 -0.16950164582E+02  0.32135482228E+02  0.47000000000E+01 0. -1.
         -5    1    4    4    0  502 -0.36780782056E+00 -0.30625588341E+02  0.59720273877E+02  0.67280480496E+02  0.47000000000E+01 0.  1.
<mgrwt>
<rscale>  0 0.14205792E+03</rscale>
<asrwt>0</asrwt>
<pdfrwt beam="1">  1        3 0.91780225E-02 0.14235985E+03</pdfrwt>
<pdfrwt beam="2">  1       -3 0.55302631E-01 0.14235985E+03</pdfrwt>
<totfact> 0.64567887E+02</totfact>
</mgrwt>
</event>
<event>
 8    1  0.6396648E-004  0.9997062E+02  0.7546771E-02  0.1285111E+00
         -2   -1    0    0    0  501 -0.00000000000E+00  0.00000000000E+00  0.23014466072E+02  0.23014466072E+02  0.00000000000E+00 0. -1.
          2   -1    0    0  501    0  0.00000000000E+00 -0.00000000000E+00 -0.40492634347E+03  0.40492634347E+03  0.00000000000E+00 0.  1.
         23    2    1    2    0    0 -0.11759305446E+02 -0.14542453558E+02 -0.17075093731E+03  0.19786360870E+03  0.98205706739E+02 0.  0.
         23    2    1    2    0    0  0.11759305446E+02  0.14542453558E+02 -0.21116094009E+03  0.23007720085E+03  0.89424893111E+02 0.  0.
          5    1    4    4  502    0  0.21329960362E+02 -0.20094233890E+02 -0.20664941242E+02  0.36164557805E+02  0.47000000000E+01 0. -1.
         -5    1    3    3    0  503 -0.17974192826E+02  0.37061517308E+02 -0.11121941099E+03  0.11869488217E+03  0.47000000000E+01 0.  1.
          5    1    3    3  503    0  0.62148873800E+01 -0.51603970865E+02 -0.59531526316E+02  0.79168726526E+02  0.47000000000E+01 0. -1.
         -5    1    4    4    0  502 -0.95706549163E+01  0.34636687448E+02 -0.19049599885E+03  0.19391264304E+03  0.47000000000E+01 0.  1.
<mgrwt>
<rscale>  0 0.97744614E+02</rscale>
<asrwt>0</asrwt>
<pdfrwt beam="1">  1        2 0.62296363E-01 0.99970621E+02</pdfrwt>
<pdfrwt beam="2">  1       -2 0.35406870E-02 0.99970621E+02</pdfrwt>
<totfact> 0.23599274E+04</totfact>
</mgrwt>
</event>
<event>
 8    1  0.6396648E-004  0.1045930E+03  0.7546771E-02  0.1271634E+00
          1   -1    0    0  501    0  0.00000000000E+00  0.00000000000E+00  0.42592110668E+02  0.42592110668E+02  0.00000000000E+00 0. -1.
         -1   -1    0    0    0  501 -0.00000000000E+00 -0.00000000000E+00 -0.32481646432E+03  0.32481646432E+03  0.00000000000E+00 0.  1.
         23    2    1    2    0    0  0.12633746201E+02 -0.46125449939E+02 -0.22651692367E+03  0.24890536096E+03  0.91415498301E+02 0.  0.
         23    2    1    2    0    0 -0.12633746201E+02  0.46125449939E+02 -0.55707429979E+02  0.11850321403E+03  0.93018951321E+02 0.  0.
          5    1    4    4  502    0  0.21651624199E+02  0.50126099826E+02 -0.24435666836E+01  0.54858725216E+02  0.47000000000E+01 0. -1.
         -5    1    3    3    0  503 -0.28980165863E+02 -0.44039167607E+02 -0.17301787220E+03  0.18093250785E+03  0.47000000000E+01 0.  1.
          5    1    3    3  503    0  0.41613912064E+02 -0.20862823319E+01 -0.53499051474E+02  0.67972853109E+02  0.47000000000E+01 0. -1.
         -5    1    4    4    0  502 -0.34285370399E+02 -0.40006498866E+01 -0.53263863296E+02  0.63644488812E+02  0.47000000000E+01 0.  1.
<mgrwt>
<rscale>  0 0.10423531E+03</rscale>
<asrwt>0</asrwt>
<pdfrwt beam="1">  1        1 0.65526325E-02 0.10459299E+03</pdfrwt>
<pdfrwt beam="2">  1       -1 0.49971763E-01 0.10459299E+03</pdfrwt>
<totfact> 0.44186529E+03</totfact>
</mgrwt>
</event>
<event>
 8    1  0.6396648E-004  0.2390979E+03  0.7546771E-02  0.1120887E+00
         -1   -1    0    0    0  501 -0.00000000000E+00  0.00000000000E+00  0.55325084192E+02  0.55325084192E+02  0.00000000000E+00 0.  1.
          1   -1    0    0  501    0  0.00000000000E+00 -0.00000000000E+00 -0.10701527279E+04  0.10701527279E+04  0.00000000000E+00 0. -1.
         23    2    1    2    0    0  0.36369341031E+01  0.21926506500E+03 -0.62536952328E+03  0.66848173845E+03  0.87694914175E+02 0.  0.
         23    2    1    2    0    0 -0.36369341031E+01 -0.21926506500E+03 -0.38945812040E+03  0.45699607361E+03  0.95275325961E+02 0.  0.
          5    1    3    3  502    0 -0.19120600446E+02  0.20422735452E+03 -0.58124227742E+03  0.61639198953E+03  0.47000000000E+01 0. -1.
         -5    1    3    3    0  502  0.22757534549E+02  0.15037710474E+02 -0.44127245865E+02  0.52089748921E+02  0.47000000000E+01 0.  1.
          5    1    4    4  503    0 -0.42125472913E+02 -0.51767449927E+02 -0.11893630424E+03  0.13646376372E+03  0.47000000000E+01 0. -1.
         -5    1    4    4    0  503  0.38488538810E+02 -0.16749761507E+03 -0.27052181615E+03  0.32053230990E+03  0.47000000000E+01 0.  1.
<mgrwt>
<rscale>  0 0.23836492E+03</rscale>
<asrwt>0</asrwt>
<pdfrwt beam="1">  1        1 0.16463889E+00 0.23909785E+03</pdfrwt>
<pdfrwt beam="2">  1       -1 0.85115512E-02 0.23909785E+03</pdfrwt>
<totfact> 0.11122972E+03</totfact>
</mgrwt>
</event>
<event>
 8    1  0.6396648E-004  0.2125124E+03  0.7546771E-02  0.1140158E+00
          1   -1    0    0  501    0  0.00000000000E+00  0.00000000000E+00  0.78774085252E+03  0.78774085252E+03  0.00000000000E+00 0. -1.
         -1   -1    0    0    0  501 -0.00000000000E+00 -0.00000000000E+00 -0.56696602158E+02  0.56696602158E+02  0.00000000000E+00 0.  1.
         23    2    1    2    0    0 -0.80252723672E+02  0.17105027028E+03  0.34190543856E+03  0.40105215100E+03  0.90800904678E+02 0.  0.
         23    2    1    2    0    0  0.80252723672E+02 -0.17105027028E+03  0.38913881181E+03  0.44338530368E+03  0.97277017025E+02 0.  0.
          5    1    3    3  502    0 -0.34773271260E+02  0.14696334852E+03  0.29415198982E+03  0.33068850800E+03  0.47000000000E+01 0. -1.
         -5    1    3    3    0  502 -0.45479452412E+02  0.24086921755E+02  0.47753448733E+02  0.70363643007E+02  0.47000000000E+01 0.  1.
          5    1    4    4  503    0  0.31174895099E+01 -0.37109861441E+02  0.17660327147E+03  0.18054823746E+03  0.47000000000E+01 0. -1.
         -5    1    4    4    0  503  0.77135234162E+02 -0.13394040884E+03  0.21253554034E+03  0.26283706622E+03  0.47000000000E+01 0.  1.
<mgrwt>
<rscale>  0 0.21178735E+03</rscale>
<asrwt>0</asrwt>
<pdfrwt beam="1">  1        1 0.12119089E+00 0.21251238E+03</pdfrwt>
<pdfrwt beam="2">  1       -1 0.87225547E-02 0.21251238E+03</pdfrwt>
<totfact> 0.17729895E+03</totfact>
</mgrwt>
</event>
<event>
 8    1  0.6396648E-004  0.1262472E+03  0.7546771E-02  0.1235328E+00
          1   -1    0    0  501    0  0.00000000000E+00  0.00000000000E+00  0.90131160137E+02  0.90131160137E+02  0.00000000000E+00 0. -1.
         -1   -1    0    0    0  501 -0.00000000000E+00 -0.00000000000E+00 -0.16934198392E+03  0.16934198392E+03  0.00000000000E+00 0.  1.
         23    2    1    2    0    0  0.24635426510E+02 -0.75554024352E+02 -0.43224783400E+02  0.12819732760E+03  0.90834234016E+02 0.  0.
         23    2    1    2    0    0 -0.24635426510E+02  0.75554024352E+02 -0.35986040381E+02  0.13127581645E+03  0.98097044032E+02 0.  0.
          5    1    4    4  502    0  0.27837515025E+02  0.10007506915E+02  0.14408153378E+02  0.33237965058E+02  0.47000000000E+01 0. -1.
         -5    1    3    3    0  503 -0.21327044891E+02 -0.68486003938E+02 -0.37591025298E+02  0.81119361204E+02  0.47000000000E+01 0.  1.
          5    1    3    3  503    0  0.45962471401E+02 -0.70680204146E+01 -0.56337581017E+01  0.47077966398E+02  0.47000000000E+01 0. -1.
         -5    1    4    4    0  502 -0.52472941535E+02  0.65546517437E+02 -0.50394193759E+02  0.98037851395E+02  0.47000000000E+01 0.  1.
<mgrwt>
<rscale>  0 0.12483443E+03</rscale>
<asrwt>0</asrwt>
<pdfrwt beam="1">  1        1 0.13866332E-01 0.12624716E+03</pdfrwt>
<pdfrwt beam="2">  1       -1 0.26052613E-01 0.12624716E+03</pdfrwt>
<totfact> 0.50992945E+03</totfact>
</mgrwt>
</event>
<event>
 8    1  0.6396648E-004  0.1176205E+03  0.7546771E-02  0.1247825E+00
         -2   -1    0    0    0  501 -0.00000000000E+00  0.00000000000E+00  0.42721460750E+03  0.42721460750E+03  0.00000000000E+00 0.  1.
          2   -1    0    0  501    0  0.00000000000E+00 -0.00000000000E+00 -0.33403791876E+02  0.33403791876E+02  0.00000000000E+00 0. -1.
         23    2    1    2    0    0  0.60849137924E+02  0.31147049814E+02  0.24716737872E+03  0.27372669011E+03  0.95717456499E+02 0.  0.
         23    2    1    2    0    0 -0.60849137924E+02 -0.31147049814E+02  0.14664343691E+03  0.18689170927E+03  0.93549222908E+02 0.  0.
          5    1    4    4  502    0 -0.76649794150E+02  0.29173043898E+01  0.85281912457E+02  0.11479893815E+03  0.47000000000E+01 0. -1.
         -5    1    3    3    0  503  0.77046203681E+02  0.50257935850E+02  0.19133373037E+03  0.21235033316E+03  0.47000000000E+01 0.  1.
          5    1    3    3  503    0 -0.16197065757E+02 -0.19110886036E+02  0.55833648351E+02  0.61376356950E+02  0.47000000000E+01 0. -1.
         -5    1    4    4    0  502  0.15800656225E+02 -0.34064354204E+02  0.61361524453E+02  0.72092771120E+02  0.47000000000E+01 0.  1.
<mgrwt>
<rscale>  0 0.11717864E+03</rscale>
<asrwt>0</asrwt>
<pdfrwt beam="1">  1        2 0.51390452E-02 0.11762052E+03</pdfrwt>
<pdfrwt beam="2">  1       -2 0.65725320E-01 0.11762052E+03</pdfrwt>
<totfact> 0.31278440E+03</totfact>
</mgrwt>
</event>
<event>
 8    1  0.6396648E-004  0.1167826E+03  0.7546771E-02  0.1248971E+00
          4   -1    0    0  501    0  0.00000000000E+00  0.00000000000E+00  0.99907294639E+02  0.99907294639E+02  0.00000000000E+00 0. -1.
         -4   -1    0    0    0  501 -0.00000000000E+00 -0.00000000000E+00 -0.14844590755E+03  0.14844590755E+03  0.00000000000E+00 0.  1.
         23    2    1    2    0    0 -0.59935489183E+02  0.29952122832E+02  0.12883082319E+02  0.11640321356E+03  0.94309818110E+02 0.  0.
         23    2    1    2    0    0  0.59935489183E+02 -0.29952122832E+02 -0.61421695225E+02  0.13194998862E+03  0.95649267260E+02 0.  0.
          5    1    3    3  502    0 -0.32596841808E+02  0.26666959478E+02 -0.38927401049E+02  0.57542274687E+02  0.47000000000E+01 0. -1.
         -5    1    4    4    0  503  0.83335166509E+01 -0.40242880378E+02 -0.67092436665E+02  0.78818918912E+02  0.47000000000E+01 0.  1.
          5    1    4    4  503    0  0.51601972532E+02  0.10290757546E+02  0.56707414394E+01  0.53131069710E+02  0.47000000000E+01 0. -1.
         -5    1    3    3    0  502 -0.27338647374E+02  0.32851633543E+01  0.51810483368E+02  0.58860938876E+02  0.47000000000E+01 0.  1.
<mgrwt>
<rscale>  0 0.11650800E+03</rscale>
<asrwt>0</asrwt>
<pdfrwt beam="1">  1        4 0.15370353E-01 0.11678260E+03</pdfrwt>
<pdfrwt beam="2">  1       -4 0.22837832E-01 0.11678260E+03</pdfrwt>
<totfact> 0.10213003E+03</totfact>
</mgrwt>
</event>
<event>
 7    1  0.6396648E-004  0.2120620E+03  0.7546771E-02  0.1153686E+00
         -2   -1    0    0    0  501 -0.00000000000E+00  0.00000000000E+00  0.11177571288E+03  0.11177571288E+03  0.00000000000E+00 0.  1.
          2   -1    0    0  501    0  0.00000000000E+00 -0.00000000000E+00 -0.30641511629E+03  0.30641511629E+03  0.00000000000E+00 0. -1.
         23    2    1    2    0    0  0.98528277217E+02 -0.71867703009E+02 -0.47390084123E+02  0.16001903639E+03  0.92127540863E+02 0.  0.
          5    1    1    2  502    0 -0.18437356817E+02 -0.50948702743E+02 -0.80140422621E+02  0.96851865111E+02  0.47000000000E+01 0. -1.
         -5    1    1    2    0  502 -0.80090920401E+02  0.12281640575E+03 -0.67108896668E+02  0.16131992767E+03  0.47000000000E+01 0.  1.
          5    1    3    3  503    0  0.55858022018E+02 -0.84419424368E+02 -0.53971220482E+02  0.11481176105E+03  0.47000000000E+01 0. -1.
         -5    1    3    3    0  503  0.42670255199E+02  0.12551721358E+02  0.65811363588E+01  0.45207275339E+02  0.47000000000E+01 0.  1.
<mgrwt>
<rscale>  0 0.19539208E+03</rscale>
<asrwt>0</asrwt>
<pdfrwt beam="1">  1        2 0.47140786E-01 0.21206205E+03</pdfrwt>
<pdfrwt beam="2">  1       -2 0.17196264E-01 0.21206205E+03</pdfrwt>
<totfact> 0.28709471E+03</totfact>
</mgrwt>
</event>
<event>
 8    1  0.6396648E-004  0.1051948E+03  0.7546771E-02  0.1270044E+00
          1   -1    0    0  501    0  0.00000000000E+00  0.00000000000E+00  0.41780134658E+02  0.41780134658E+02  0.00000000000E+00 0. -1.
         -1   -1    0    0    0  501 -0.00000000000E+00 -0.00000000000E+00 -0.39484440911E+03  0.39484440911E+03  0.00000000000E+00 0.  1.
         23    2    1    2    0    0  0.33528123900E+02  0.43345600786E+02 -0.30289609739E+03  0.32064310298E+03  0.89794083724E+02 0.  0.
         23    2    1    2    0    0 -0.33528123900E+02 -0.43345600786E+02 -0.50168177061E+02  0.11598144079E+03  0.89061060059E+02 0.  0.
          5    1    3    3  502    0  0.99857592405E+00  0.55352729860E+02 -0.25695611383E+03  0.26289438238E+03  0.47000000000E+01 0.  1.
         -5    1    4    4    0  503  0.14133892760E+02 -0.40437208673E+02 -0.52527135310E+02  0.67942068806E+02  0.47000000000E+01 0.  1.
          5    1    4    4  503    0 -0.47662016660E+02 -0.29083921135E+01  0.23589582490E+01  0.48039371986E+02  0.47000000000E+01 0. -1.
         -5    1    3    3    0  502  0.32529547976E+02 -0.12007129074E+02 -0.45939983568E+02  0.57748720595E+02  0.47000000000E+01 0. -1.
<mgrwt>
<rscale>  0 0.10503823E+03</rscale>
<asrwt>0</asrwt>
<pdfrwt beam="1">  1        1 0.64277128E-02 0.10519484E+03</pdfrwt>
<pdfrwt beam="2">  1       -1 0.60745296E-01 0.10519484E+03</pdfrwt>
<totfact> 0.31603500E+03</totfact>
</mgrwt>
</event>
<event>
 7    1  0.6396648E-004  0.1626841E+03  0.7546771E-02  0.1207707E+00
          1   -1    0    0  501    0  0.00000000000E+00  0.00000000000E+00  0.10156465694E+03  0.10156465694E+03  0.00000000000E+00 0. -1.
         -1   -1    0    0    0  501 -0.00000000000E+00 -0.00000000000E+00 -0.17061698996E+03  0.17061698996E+03  0.00000000000E+00 0.  1.
         23    2    1    2    0    0  0.22083878237E+02  0.37016468810E+02 -0.26645958216E+02  0.10406139648E+03  0.90889221077E+02 0.  0.
          5    1    3    3  502    0 -0.48378896182E+01  0.40923153433E+02  0.22874973299E+02  0.47365220007E+02  0.47000000000E+01 0. -1.
         -5    1    1    2    0  503 -0.30229345804E+02 -0.56447278571E+02  0.44795040549E+02  0.78286616120E+02  0.47000000000E+01 0.  1.
          5    1    1    2  503    0  0.81454675671E+01  0.19430809761E+02 -0.87201415358E+02  0.89833634292E+02  0.47000000000E+01 0. -1.
         -5    1    3    3    0  502  0.26921767855E+02 -0.39066846231E+01 -0.49520931514E+02  0.56696176478E+02  0.47000000000E+01 0.  1.
<mgrwt>
<rscale>  0 0.14426128E+03</rscale>
<asrwt>0</asrwt>
<pdfrwt beam="1">  1        1 0.15625332E-01 0.16268410E+03</pdfrwt>
<pdfrwt beam="2">  1       -1 0.26248768E-01 0.16268410E+03</pdfrwt>
<totfact> 0.43809930E+03</totfact>
</mgrwt>
</event>
<event>
 8    1  0.6396648E-004  0.1116989E+03  0.7546771E-02  0.1257563E+00
          2   -1    0    0  501    0  0.00000000000E+00  0.00000000000E+00  0.13353723640E+04  0.13353723640E+04  0.00000000000E+00 0.  1.
         -2   -1    0    0    0  501 -0.00000000000E+00 -0.00000000000E+00 -0.10825040504E+02  0.10825040504E+02  0.00000000000E+00 0. -1.
         23    2    1    2    0    0 -0.58559806362E+02  0.27132232757E+02  0.91357617737E+03  0.92037930731E+03  0.91165939277E+02 0.  0.
         23    2    1    2    0    0  0.58559806362E+02 -0.27132232757E+02  0.41097114615E+03  0.42581809722E+03  0.90875519135E+02 0.  0.
          5    1    4    4  502    0  0.75397054732E+02 -0.61067920207E+01  0.21539705606E+03  0.22834182825E+03  0.47000000000E+01 0. -1.
         -5    1    3    3    0  503 -0.78166025627E+02  0.39737688605E+02  0.70182347519E+03  0.70729575977E+03  0.47000000000E+01 0.  1.
          5    1    3    3  503    0  0.19606219264E+02 -0.12605455849E+02  0.21175270218E+03  0.21308354754E+03  0.47000000000E+01 0. -1.
         -5    1    4    4    0  502 -0.16837248370E+02 -0.21025440736E+02  0.19557409009E+03  0.19747626897E+03  0.47000000000E+01 0.  1.
<mgrwt>
<rscale>  0 0.11163960E+03</rscale>
<asrwt>0</asrwt>
<pdfrwt beam="1">  1        2 0.20544177E+00 0.11169887E+03</pdfrwt>
<pdfrwt beam="2">  1       -2 0.16653919E-02 0.11169887E+03</pdfrwt>
<totfact> 0.16171874E+04</totfact>
</mgrwt>
</event>
<event>
 8    1  0.6396648E-004  0.1001756E+03  0.7546771E-02  0.1280381E+00
          1   -1    0    0  501    0  0.00000000000E+00  0.00000000000E+00  0.39520479146E+03  0.39520479146E+03  0.00000000000E+00 0. -1.
         -1   -1    0    0    0  501 -0.00000000000E+00 -0.00000000000E+00 -0.28653715251E+02  0.28653715251E+02  0.00000000000E+00 0.  1.
         23    2    1    2    0    0 -0.14513478079E+00 -0.37607066524E+02  0.11012043348E+03  0.14886796246E+03  0.92848521043E+02 0.  0.
         23    2    1    2    0    0  0.14513478079E+00  0.37607066524E+02  0.25643064273E+03  0.27499054426E+03  0.91917421539E+02 0.  0.
          5    1    3    3  502    0 -0.19487703521E+02  0.26397015238E+02  0.36833894227E+02  0.49551980444E+02  0.47000000000E+01 0. -1.
         -5    1    3    3    0  502  0.19342568741E+02 -0.64004081762E+02  0.73286539255E+02  0.99315982015E+02  0.47000000000E+01 0.  1.
          5    1    4    4  503    0 -0.22681026624E+02  0.71937198141E+00  0.21000198900E+03  0.21127676600E+03  0.47000000000E+01 0. -1.
         -5    1    4    4    0  503  0.22826161405E+02  0.36887694543E+02  0.46428653728E+02  0.63713778260E+02  0.47000000000E+01 0.  1.
<mgrwt>
<rscale>  0 0.99959353E+02</rscale>
<asrwt>0</asrwt>
<pdfrwt beam="1">  1        1 0.60800733E-01 0.10017565E+03</pdfrwt>
<pdfrwt beam="2">  1       -1 0.44082642E-02 0.10017565E+03</pdfrwt>
<totfact> 0.12067390E+04</totfact>
</mgrwt>
</event>
<event>
 8    1  0.6396648E-004  0.2056513E+03  0.7546771E-02  0.1145260E+00
          1   -1    0    0  501    0  0.00000000000E+00  0.00000000000E+00  0.84950241166E+03  0.84950241166E+03  0.00000000000E+00 0. -1.
         -1   -1    0    0    0  501 -0.00000000000E+00 -0.00000000000E+00 -0.68508381271E+02  0.68508381271E+02  0.00000000000E+00 0.  1.
         23    2    1    2    0    0  0.80025940724E+02 -0.16761934734E+03  0.63268306664E+03  0.66526709328E+03  0.88272565351E+02 0.  0.
         23    2    1    2    0    0 -0.80025940724E+02  0.16761934734E+03  0.14831096374E+03  0.25274369965E+03  0.85923448209E+02 0.  0.
          5    1    3    3  502    0  0.87400938407E+02 -0.13809085131E+03  0.59248143878E+03  0.61462537578E+03  0.47000000000E+01 0. -1.
         -5    1    4    4    0  503 -0.83126934749E+02  0.75596503750E+02  0.81598713694E+02  0.13894372507E+03  0.47000000000E+01 0.  1.
          5    1    4    4  503    0  0.31009940245E+01  0.92022843594E+02  0.66712250048E+02  0.11379997458E+03  0.47000000000E+01 0. -1.
         -5    1    3    3    0  502 -0.73749976822E+01 -0.29528496037E+02  0.40201627861E+02  0.50641717503E+02  0.47000000000E+01 0.  1.
<mgrwt>
<rscale>  0 0.20540148E+03</rscale>
<asrwt>0</asrwt>
<pdfrwt beam="1">  1        1 0.13069267E+00 0.20565126E+03</pdfrwt>
<pdfrwt beam="2">  1       -1 0.10539752E-01 0.20565126E+03</pdfrwt>
<totfact> 0.11787691E+03</totfact>
</mgrwt>
</event>
<event>
 8    1  0.6396648E-004  0.1997455E+03  0.7546771E-02  0.1150605E+00
         -2   -1    0    0    0  501 -0.00000000000E+00  0.00000000000E+00  0.12352455422E+03  0.12352455422E+03  0.00000000000E+00 0.  1.
          2   -1    0    0  501    0  0.00000000000E+00 -0.00000000000E+00 -0.70902950876E+03  0.70902950876E+03  0.00000000000E+00 0. -1.
         23    2    1    2    0    0  0.14432777085E+02  0.17417001587E+03  0.17368279808E+02  0.19745216907E+03  0.90234153416E+02 0.  0.
         23    2    1    2    0    0 -0.14432777085E+02 -0.17417001587E+03 -0.60287323434E+03  0.63510189391E+03  0.96720108975E+02 0.  0.
          5    1    4    4  502    0 -0.35394288135E+02 -0.17379466991E+03 -0.55391539806E+03  0.58163708714E+03  0.47000000000E+01 0. -1.
         -5    1    3    3    0  503  0.36722755049E+02  0.15727441322E+03  0.33231845393E+02  0.16495528891E+03  0.47000000000E+01 0.  1.
          5    1    3    3  503    0 -0.22289977964E+02  0.16895602649E+02 -0.15863565585E+02  0.32496880152E+02  0.47000000000E+01 0. -1.
         -5    1    4    4    0  502  0.20961511050E+02 -0.37534595591E+00 -0.48957836281E+02  0.53464806775E+02  0.47000000000E+01 0.  1.
<mgrwt>
<rscale>  0 0.19897642E+03</rscale>
<asrwt>0</asrwt>
<pdfrwt beam="1">  1        2 0.10908146E+00 0.19974554E+03</pdfrwt>
<pdfrwt beam="2">  1       -2 0.19003778E-01 0.19974554E+03</pdfrwt>
<totfact> 0.95001033E+02</totfact>
</mgrwt>
</event>
<event>
 8    1  0.6396648E-004  0.1701238E+03  0.7546771E-02  0.1177812E+00
          1   -1    0    0  501    0  0.00000000000E+00  0.00000000000E+00  0.23320742810E+02  0.23320742810E+02  0.00000000000E+00 0. -1.
         -1   -1    0    0    0  501 -0.00000000000E+00 -0.00000000000E+00 -0.13152017712E+04  0.13152017712E+04  0.00000000000E+00 0.  1.
         23    2    1    2    0    0 -0.55046836696E+02  0.13273106406E+03 -0.80699593410E+03  0.82465903602E+03  0.90401318840E+02 0.  0.
         23    2    1    2    0    0  0.55046836696E+02 -0.13273106406E+03 -0.48488509433E+03  0.51386347803E+03  0.91073759930E+02 0.  0.
          5    1    3    3  502    0  0.19902830594E+02  0.40634623639E+02 -0.32815766716E+03  0.33129569847E+03  0.47000000000E+01 0. -1.
         -5    1    3    3    0  502 -0.74949667290E+02  0.92096440420E+02 -0.47883826693E+03  0.49336333756E+03  0.47000000000E+01 0.  1.
          5    1    4    4  503    0  0.33674429867E+02 -0.13735139208E+03 -0.45527077572E+03  0.47675249486E+03  0.47000000000E+01 0. -1.
         -5    1    4    4    0  503  0.21372406829E+02  0.46203280167E+01 -0.29614318614E+02  0.37110983167E+02  0.47000000000E+01 0.  1.
<mgrwt>
<rscale>  0 0.17003401E+03</rscale>
<asrwt>0</asrwt>
<pdfrwt beam="1">  1        1 0.35878077E-02 0.17012384E+03</pdfrwt>
<pdfrwt beam="2">  1       -1 0.20233867E+00 0.17012384E+03</pdfrwt>
<totfact> 0.42594704E+02</totfact>
</mgrwt>
</event>
<event>
 8    1  0.6396648E-004  0.1553264E+03  0.7546771E-02  0.1194555E+00
          2   -1    0    0  501    0  0.00000000000E+00  0.00000000000E+00  0.82121741608E+03  0.82121741608E+03  0.00000000000E+00 0.  1.
         -2   -1    0    0    0  501 -0.00000000000E+00 -0.00000000000E+00 -0.29762371625E+02  0.29762371625E+02  0.00000000000E+00 0. -1.
         23    2    1    2    0    0  0.12167635485E+03 -0.26656380576E+02  0.45845813050E+03  0.48353829799E+03  0.90054040704E+02 0.  0.
         23    2    1    2    0    0 -0.12167635485E+03  0.26656380576E+02  0.33299691395E+03  0.36744148971E+03  0.92793349461E+02 0.  0.
          5    1    4    4  502    0 -0.27713718277E+02 -0.21952189314E+02  0.16533217323E+03  0.16913534906E+03  0.47000000000E+01 0.  1.
         -5    1    4    4    0  502 -0.93962636576E+02  0.48608569889E+02  0.16766474072E+03  0.19830614065E+03  0.47000000000E+01 0. -1.
          5    1    3    3  503    0  0.65821683970E+02  0.23041212609E+02  0.14115894893E+03  0.15751612750E+03  0.47000000000E+01 0. -1.
         -5    1    3    3    0  503  0.55854670883E+02 -0.49697593185E+02  0.31729918157E+03  0.32602217050E+03  0.47000000000E+01 0.  1.
<mgrwt>
<rscale>  0 0.15491965E+03</rscale>
<asrwt>0</asrwt>
<pdfrwt beam="1">  1        2 0.12634112E+00 0.15532644E+03</pdfrwt>
<pdfrwt beam="2">  1       -2 0.45788270E-02 0.15532644E+03</pdfrwt>
<totfact> 0.74656142E+03</totfact>
</mgrwt>
</event>
<event>
 8    1  0.6396648E-004  0.1406546E+03  0.7546771E-02  0.1213184E+00
          2   -1    0    0  501    0  0.00000000000E+00  0.00000000000E+00  0.97059077956E+03  0.97059077956E+03  0.00000000000E+00 0. -1.
         -2   -1    0    0    0  501 -0.00000000000E+00 -0.00000000000E+00 -0.20349225739E+02  0.20349225739E+02  0.00000000000E+00 0.  1.
         23    2    1    2    0    0  0.10110692202E+03  0.40017770883E+02  0.42065977780E+03  0.44355198687E+03  0.89217065292E+02 0.  0.
         23    2    1    2    0    0 -0.10110692202E+03 -0.40017770883E+02  0.52958177602E+03  0.54738801842E+03  0.85748198523E+02 0.  0.
          5    1    4    4  502    0 -0.30896140088E+02 -0.21180121149E+02  0.37052782898E+03  0.37244614517E+03  0.47000000000E+01 0. -1.
         -5    1    4    4    0  502 -0.70210781928E+02 -0.18837649734E+02  0.15905394704E+03  0.17494187325E+03  0.47000000000E+01 0.  1.
          5    1    3    3  503    0  0.96081116114E+01  0.35235750392E+02  0.52456118505E+02  0.64090625548E+02  0.47000000000E+01 0. -1.
         -5    1    3    3    0  503  0.91498810405E+02  0.47820204912E+01  0.36820365929E+03  0.37946136133E+03  0.47000000000E+01 0.  1.
<mgrwt>
<rscale>  0 0.14010784E+03</rscale>
<asrwt>0</asrwt>
<pdfrwt beam="1">  1        2 0.14932162E+00 0.14065460E+03</pdfrwt>
<pdfrwt beam="2">  1       -2 0.31306509E-02 0.14065460E+03</pdfrwt>
<totfact> 0.10501233E+04</totfact>
</mgrwt>
</event>
<event>
 8    1  0.6396648E-004  0.9637328E+02  0.7546771E-02  0.1289204E+00
          1   -1    0    0  501    0  0.00000000000E+00  0.00000000000E+00  0.51774377576E+03  0.51774377576E+03  0.00000000000E+00 0. -1.
         -1   -1    0    0    0  501 -0.00000000000E+00 -0.00000000000E+00 -0.17682946464E+02  0.17682946464E+02  0.00000000000E+00 0.  1.
         23    2    1    2    0    0  0.30494620804E+01 -0.32958058537E+02  0.22677339128E+03  0.24564433340E+03  0.88427567518E+02 0.  0.
         23    2    1    2    0    0 -0.30494620804E+01  0.32958058537E+02  0.27328743801E+03  0.28978238882E+03  0.90511194081E+02 0.  0.
          5    1    4    4  502    0  0.31730205292E+02  0.38735033180E+01  0.36923876625E+02  0.49063964585E+02  0.47000000000E+01 0. -1.
         -5    1    4    4    0  502 -0.34779667372E+02  0.29084555219E+02  0.23636356139E+03  0.24071842424E+03  0.47000000000E+01 0.  1.
          5    1    3    3  503    0  0.44606101720E+02 -0.19548050053E+02  0.14159224667E+03  0.14980749277E+03  0.47000000000E+01 0. -1.
         -5    1    3    3    0  503 -0.41556639640E+02 -0.13410008484E+02  0.85181144612E+02  0.95836840636E+02  0.47000000000E+01 0.  1.
<mgrwt>
<rscale>  0 0.95880977E+02</rscale>
<asrwt>0</asrwt>
<pdfrwt beam="1">  1        1 0.79652877E-01 0.96373280E+02</pdfrwt>
<pdfrwt beam="2">  1       -1 0.27204537E-02 0.96373280E+02</pdfrwt>
<totfact> 0.17188141E+04</totfact>
</mgrwt>
</event>
<event>
 8    1  0.6396648E-004  0.9339745E+02  0.7546771E-02  0.1302116E+00
         -2   -1    0    0    0  501 -0.00000000000E+00  0.00000000000E+00  0.15309126981E+02  0.15309126981E+02  0.00000000000E+00 0.  1.
          2   -1    0    0  501    0  0.00000000000E+00 -0.00000000000E+00 -0.67526059440E+03  0.67526059440E+03  0.00000000000E+00 0. -1.
         23    2    1    2    0    0  0.13743502751E+02  0.14654574847E+02 -0.17092882214E+03  0.19478127488E+03  0.91210977282E+02 0.  0.
         23    2    1    2    0    0 -0.13743502751E+02 -0.14654574847E+02 -0.48902264528E+03  0.49578844649E+03  0.79116342487E+02 0.  0.
          5    1    3    3  502    0 -0.25943048868E+02 -0.23668414451E+02 -0.45443566725E+02  0.57623288555E+02  0.47000000000E+01 0. -1.
         -5    1    3    3    0  502  0.39686551620E+02  0.38322989298E+02 -0.12548525541E+03  0.13715798633E+03  0.47000000000E+01 0.  1.
          5    1    4    4  503    0  0.53599195733E+01  0.31054710978E+02 -0.18925560068E+03  0.19191898343E+03  0.47000000000E+01 0.  1.
         -5    1    4    4    0  503 -0.19103422325E+02 -0.45709285825E+02 -0.29976704460E+03  0.30386946306E+03  0.47000000000E+01 0. -1.
<mgrwt>
<rscale>  0 0.90304682E+02</rscale>
<asrwt>0</asrwt>
<pdfrwt beam="1">  1        2 0.10388623E+00 0.93397445E+02</pdfrwt>
<pdfrwt beam="2">  1       -2 0.23552507E-02 0.93397445E+02</pdfrwt>
<totfact> 0.24211136E+04</totfact>
</mgrwt>
</event>
<event>
 8    1  0.6396648E-004  0.9667130E+02  0.7546771E-02  0.1288328E+00
         -1   -1    0    0    0  501 -0.00000000000E+00  0.00000000000E+00  0.28579102444E+02  0.28579102444E+02  0.00000000000E+00 0.  1.
          1   -1    0    0  501    0  0.00000000000E+00 -0.00000000000E+00 -0.54301420441E+03  0.54301420441E+03  0.00000000000E+00 0. -1.
         23    2    1    2    0    0 -0.16230398792E+02  0.20705631697E+02 -0.44091825168E+03  0.45139145494E+03  0.93022534355E+02 0.  0.
         23    2    1    2    0    0  0.16230398792E+02 -0.20705631697E+02 -0.73516850292E+02  0.12020185192E+03  0.91387137496E+02 0.  0.
          5    1    3    3  502    0 -0.45419774513E+01 -0.30702419252E+02 -0.28522812906E+03  0.28695024606E+03  0.47000000000E+01 0. -1.
         -5    1    4    4    0  503  0.25010966476E+02  0.30740325410E+01 -0.87287489904E+02  0.90973589650E+02  0.47000000000E+01 0.  1.
          5    1    4    4  503    0 -0.87805676836E+01 -0.23779664238E+02  0.13770639612E+02  0.29228262272E+02  0.47000000000E+01 0. -1.
         -5    1    3    3    0  502 -0.11688421341E+02  0.51408050948E+02 -0.15569012262E+03  0.16444120888E+03  0.47000000000E+01 0.  1.
<mgrwt>
<rscale>  0 0.96275725E+02</rscale>
<asrwt>0</asrwt>
<pdfrwt beam="1">  1        1 0.83540648E-01 0.96671304E+02</pdfrwt>
<pdfrwt beam="2">  1       -1 0.43967849E-02 0.96671304E+02</pdfrwt>
<totfact> 0.80598144E+03</totfact>
</mgrwt>
</event>
<event>
 8    1  0.6396648E-004  0.1057726E+03  0.7546771E-02  0.1268794E+00
         -1   -1    0    0    0  501 -0.00000000000E+00  0.00000000000E+00  0.24460449199E+03  0.24460449199E+03  0.00000000000E+00 0.  1.
          1   -1    0    0  501    0  0.00000000000E+00 -0.00000000000E+00 -0.59330215522E+02  0.59330215522E+02  0.00000000000E+00 0. -1.
         23    2    1    2    0    0  0.28354381437E+02  0.44128167885E+02  0.16568793495E+03  0.19636395472E+03  0.91405934044E+02 0.  0.
         23    2    1    2    0    0 -0.28354381437E+02 -0.44128167885E+02  0.19586341519E+02  0.10757075279E+03  0.91850835241E+02 0.  0.
          5    1    4    4  502    0 -0.40490613702E+02  0.81134978755E+01 -0.14302909156E+02  0.43954315557E+02  0.47000000000E+01 0. -1.
         -5    1    3    3    0  503  0.55091426532E+02  0.50759595955E+02  0.10046935456E+03  0.12541045835E+03  0.47000000000E+01 0.  1.
          5    1    3    3  503    0 -0.26737045096E+02 -0.66314280693E+01  0.65218580395E+02  0.70953496372E+02  0.47000000000E+01 0. -1.
         -5    1    4    4    0  502  0.12136232266E+02 -0.52241665761E+02  0.33889250675E+02  0.63616437234E+02  0.47000000000E+01 0.  1.
<mgrwt>
<rscale>  0 0.10567594E+03</rscale>
<asrwt>0</asrwt>
<pdfrwt beam="1">  1        1 0.91277256E-02 0.10577260E+03</pdfrwt>
<pdfrwt beam="2">  1       -1 0.37631460E-01 0.10577260E+03</pdfrwt>
<totfact> 0.46922797E+03</totfact>
</mgrwt>
</event>
<event>
 8    1  0.6396648E-004  0.9702599E+02  0.7546771E-02  0.1288526E+00
         -1   -1    0    0    0  501 -0.00000000000E+00  0.00000000000E+00  0.58486507634E+02  0.58486507634E+02  0.00000000000E+00 0.  1.
          1   -1    0    0  501    0  0.00000000000E+00 -0.00000000000E+00 -0.15995164368E+03  0.15995164368E+03  0.00000000000E+00 0. -1.
         23    2    1    2    0    0  0.92028375698E+01 -0.22094153791E+02 -0.68074874263E+02  0.11582746888E+03  0.90603367436E+02 0.  0.
         23    2    1    2    0    0 -0.92028375698E+01  0.22094153791E+02 -0.33390261780E+02  0.10261068243E+03  0.94027648677E+02 0.  0.
          5    1    3    3  502    0  0.17264818518E+02  0.30646141510E+02 -0.45505184363E+02  0.57706773881E+02  0.47000000000E+01 0. -1.
         -5    1    3    3    0  502 -0.80619809486E+01 -0.52740295301E+02 -0.22569689901E+02  0.58120695001E+02  0.47000000000E+01 0.  1.
          5    1    4    4  503    0  0.23940776135E+02  0.12853449755E+02 -0.55128360928E+02  0.61640880195E+02  0.47000000000E+01 0. -1.
         -5    1    4    4    0  503 -0.33143613705E+02  0.92407040357E+01  0.21738099148E+02  0.40969802234E+02  0.47000000000E+01 0.  1.
<mgrwt>
<rscale>  0 0.96186493E+02</rscale>
<asrwt>0</asrwt>
<pdfrwt beam="1">  1        1 0.24607945E-01 0.97025989E+02</pdfrwt>
<pdfrwt beam="2">  1       -1 0.89979243E-02 0.97025989E+02</pdfrwt>
<totfact> 0.12730117E+04</totfact>
</mgrwt>
</event>
<event>
 8    1  0.6396648E-004  0.1024380E+03  0.7546771E-02  0.1277131E+00
         -2   -1    0    0    0  501 -0.00000000000E+00  0.00000000000E+00  0.25157762504E+02  0.25157762504E+02  0.00000000000E+00 0.  1.
          2   -1    0    0  501    0  0.00000000000E+00 -0.00000000000E+00 -0.43137221446E+03  0.43137221446E+03  0.00000000000E+00 0. -1.
         23    2    1    2    0    0 -0.36323963198E+02 -0.28299070695E+02 -0.26556796940E+03  0.28463994084E+03  0.91505638337E+02 0.  0.
         23    2    1    2    0    0  0.36323963198E+02  0.28299070695E+02 -0.14064648256E+03  0.17189003612E+03  0.87432738478E+02 0.  0.
          5    1    3    3  502    0 -0.33815195984E+02  0.23728588385E+02 -0.17669211314E+03  0.18151778489E+03  0.47000000000E+01 0. -1.
         -5    1    4    4    0  503  0.55018482958E+02  0.40613514189E+02 -0.12932443573E+03  0.14636731425E+03  0.47000000000E+01 0.  1.
          5    1    4    4  503    0 -0.18694519760E+02 -0.12314443495E+02 -0.11322046821E+02  0.25522721874E+02  0.47000000000E+01 0. -1.
         -5    1    3    3    0  502 -0.25087672140E+01 -0.52027659079E+02 -0.88875856265E+02  0.10312215596E+03  0.47000000000E+01 0.  1.
<mgrwt>
<rscale>  0 0.10152046E+03</rscale>
<asrwt>0</asrwt>
<pdfrwt beam="1">  1        2 0.66364952E-01 0.10243803E+03</pdfrwt>
<pdfrwt beam="2">  1       -2 0.38704252E-02 0.10243803E+03</pdfrwt>
<totfact> 0.19406912E+04</totfact>
</mgrwt>
</event>
<event>
 8    1  0.6396648E-004  0.9550902E+02  0.7546771E-02  0.1291831E+00
         -1   -1    0    0    0  501 -0.00000000000E+00  0.00000000000E+00  0.16176490386E+02  0.16176490386E+02  0.00000000000E+00 0.  1.
          1   -1    0    0  501    0  0.00000000000E+00 -0.00000000000E+00 -0.66332139577E+03  0.66332139577E+03  0.00000000000E+00 0. -1.
         23    2    1    2    0    0 -0.67736391650E+01 -0.18032192631E+02 -0.18482320965E+03  0.20804228428E+03  0.93546411300E+02 0.  0.
         23    2    1    2    0    0  0.67736391650E+01  0.18032192631E+02 -0.46232169574E+03  0.47145560187E+03  0.90321603330E+02 0.  0.
          5    1    3    3  502    0 -0.99382469549E+01  0.37530302753E+02 -0.65319641342E+02  0.76131714300E+02  0.47000000000E+01 0. -1.
         -5    1    3    3    0  502  0.31646077898E+01 -0.55562495384E+02 -0.11950356831E+03  0.13191056998E+03  0.47000000000E+01 0.  1.
          5    1    4    4  503    0 -0.81609157002E+01  0.52302373874E+02 -0.31138587856E+03  0.31588826224E+03  0.47000000000E+01 0. -1.
         -5    1    4    4    0  503  0.14934554865E+02 -0.34270181242E+02 -0.15093581718E+03  0.15556733963E+03  0.47000000000E+01 0.  1.
<mgrwt>
<rscale>  0 0.94709988E+02</rscale>
<asrwt>0</asrwt>
<pdfrwt beam="1">  1        1 0.10204942E+00 0.95509022E+02</pdfrwt>
<pdfrwt beam="2">  1       -1 0.24886916E-02 0.95509022E+02</pdfrwt>
<totfact> 0.14017042E+04</totfact>
</mgrwt>
</event>
<event>
 8    1  0.6396648E-004  0.9826698E+02  0.7546771E-02  0.1287021E+00
         -2   -1    0    0    0  501 -0.00000000000E+00  0.00000000000E+00  0.58626144738E+02  0.58626144738E+02  0.00000000000E+00 0.  1.
          2   -1    0    0  501    0  0.00000000000E+00 -0.00000000000E+00 -0.19246659695E+03  0.19246659695E+03  0.00000000000E+00 0. -1.
         23    2    1    2    0    0  0.89467969867E+01  0.16019531632E+02 -0.13589971297E+02  0.99202248559E+02  0.96538739526E+02 0.  0.
         23    2    1    2    0    0 -0.89467969867E+01 -0.16019531632E+02 -0.12025048091E+03  0.15189049313E+03  0.90960833179E+02 0.  0.
          5    1    4    4  502    0 -0.40292554925E+02  0.79160579470E+01 -0.98011950664E+02  0.10637004479E+03  0.47000000000E+01 0. -1.
         -5    1    4    4    0  502  0.31345757938E+02 -0.23935589579E+02 -0.22238530251E+02  0.45520448339E+02  0.47000000000E+01 0.  1.
          5    1    3    3  503    0 -0.33330211013E+02  0.25404933254E+01 -0.35930993276E+02  0.49299932559E+02  0.47000000000E+01 0. -1.
         -5    1    3    3    0  503  0.42277007999E+02  0.13479038307E+02  0.22341021980E+02  0.49902316000E+02  0.47000000000E+01 0.  1.
<mgrwt>
<rscale>  0 0.96868934E+02</rscale>
<asrwt>0</asrwt>
<pdfrwt beam="1">  1        2 0.29610245E-01 0.98266977E+02</pdfrwt>
<pdfrwt beam="2">  1       -2 0.90194070E-02 0.98266977E+02</pdfrwt>
<totfact> 0.12686391E+04</totfact>
</mgrwt>
</event>
<event>
 8    1  0.6396648E-004  0.1336575E+03  0.7546771E-02  0.1228552E+00
         -1   -1    0    0    0  501 -0.00000000000E+00  0.00000000000E+00  0.18015789421E+02  0.18015789421E+02  0.00000000000E+00 0.  1.
          1   -1    0    0  501    0  0.00000000000E+00 -0.00000000000E+00 -0.87150967293E+03  0.87150967293E+03  0.00000000000E+00 0. -1.
         23    2    1    2    0    0 -0.72555451923E+02  0.15913187204E+02 -0.40375965274E+03  0.42035043861E+03  0.90305652802E+02 0.  0.
         23    2    1    2    0    0  0.72555451923E+02 -0.15913187204E+02 -0.44973423076E+03  0.46917502374E+03  0.11111616195E+03 0.  0.
          5    1    3    3  502    0 -0.56640097149E+02 -0.17978595611E+02 -0.11894130705E+03  0.13304305705E+03  0.47000000000E+01 0. -1.
         -5    1    3    3    0  502 -0.15915354774E+02  0.33891782815E+02 -0.28481834569E+03  0.28730738156E+03  0.47000000000E+01 0.  1.
          5    1    4    4  503    0  0.42166488384E+02 -0.22741834948E+02 -0.42848011512E+03  0.43117572155E+03  0.47000000000E+01 0. -1.
         -5    1    4    4    0  503  0.30388963539E+02  0.68286477445E+01 -0.21254115644E+02  0.37999302189E+02  0.47000000000E+01 0.  1.
<mgrwt>
<rscale>  0 0.12926368E+03</rscale>
<asrwt>0</asrwt>
<pdfrwt beam="1">  1        1 0.13407843E+00 0.13365749E+03</pdfrwt>
<pdfrwt beam="2">  1       -1 0.27716595E-02 0.13365749E+03</pdfrwt>
<totfact> 0.82298027E+03</totfact>
</mgrwt>
</event>
<event>
 8    1  0.6396648E-004  0.9871715E+02  0.7546771E-02  0.1283214E+00
          1   -1    0    0  501    0  0.00000000000E+00  0.00000000000E+00  0.27049155175E+03  0.27049155175E+03  0.00000000000E+00 0. -1.
         -1   -1    0    0    0  501 -0.00000000000E+00 -0.00000000000E+00 -0.36993929801E+02  0.36993929801E+02  0.00000000000E+00 0.  1.
         23    2    1    2    0    0  0.30767391076E+02  0.23632618855E+02  0.14348183643E+03  0.17416117253E+03  0.90774135104E+02 0.  0.
         23    2    1    2    0    0 -0.30767391076E+02 -0.23632618855E+02  0.90015785513E+02  0.13332430902E+03  0.90373650505E+02 0.  0.
          5    1    4    4  502    0  0.24266633340E+02 -0.33548092454E+02  0.45468344493E+02  0.61674989679E+02  0.47000000000E+01 0. -1.
         -5    1    3    3    0  503  0.46314340679E+02  0.70130057587E+01  0.24770016117E+02  0.53196279012E+02  0.47000000000E+01 0.  1.
          5    1    3    3  503    0 -0.15546949603E+02  0.16619613097E+02  0.11871182031E+03  0.12096489352E+03  0.47000000000E+01 0. -1.
         -5    1    4    4    0  502 -0.55034024416E+02  0.99154735983E+01  0.44547441019E+02  0.71649319337E+02  0.47000000000E+01 0.  1.
<mgrwt>
<rscale>  0 0.98624992E+02</rscale>
<asrwt>0</asrwt>
<pdfrwt beam="1">  1        1 0.41614084E-01 0.98717155E+02</pdfrwt>
<pdfrwt beam="2">  1       -1 0.56913740E-02 0.98717155E+02</pdfrwt>
<totfact> 0.13210663E+04</totfact>
</mgrwt>
</event>
<event>
 8    1  0.6396648E-004  0.9593713E+02  0.7546771E-02  0.1293926E+00
         -2   -1    0    0    0  501 -0.00000000000E+00  0.00000000000E+00  0.28772941736E+02  0.28772941736E+02  0.00000000000E+00 0.  1.
          2   -1    0    0  501    0  0.00000000000E+00 -0.00000000000E+00 -0.31048255555E+03  0.31048255555E+03  0.00000000000E+00 0. -1.
         23    2    1    2    0    0  0.12600728689E+01  0.22682641276E+02 -0.18732089880E+03  0.21045914750E+03  0.93208602842E+02 0.  0.
         23    2    1    2    0    0 -0.12600728689E+01 -0.22682641276E+02 -0.94388715021E+02  0.12879634978E+03  0.84635572874E+02 0.  0.
          5    1    4    4  502    0  0.25123033645E+02  0.19533034549E+02 -0.60095341569E+02  0.68163379732E+02  0.47000000000E+01 0. -1.
         -5    1    4    4    0  502 -0.26383106514E+02 -0.42215675825E+02 -0.34293373452E+02  0.60632970053E+02  0.47000000000E+01 0.  1.
          5    1    3    3  503    0  0.39709764377E+02  0.16762279323E+02 -0.43588092692E+02  0.61480494627E+02  0.47000000000E+01 0. -1.
         -5    1    3    3    0  503 -0.38449691508E+02  0.59203619528E+01 -0.14373280610E+03  0.14897865288E+03  0.47000000000E+01 0.  1.
<mgrwt>
<rscale>  0 0.93789679E+02</rscale>
<asrwt>0</asrwt>
<pdfrwt beam="1">  1        2 0.47766546E-01 0.95937134E+02</pdfrwt>
<pdfrwt beam="2">  1       -2 0.44266065E-02 0.95937134E+02</pdfrwt>
<totfact> 0.22356832E+04</totfact>
</mgrwt>
</event>
<event>
 8    1  0.6396648E-004  0.1233915E+03  0.7546771E-02  0.1238430E+00
          1   -1    0    0  501    0  0.00000000000E+00  0.00000000000E+00  0.33563518923E+03  0.33563518923E+03  0.00000000000E+00 0. -1.
         -1   -1    0    0    0  501 -0.00000000000E+00 -0.00000000000E+00 -0.46784788301E+02  0.46784788301E+02  0.00000000000E+00 0.  1.
         23    2    1    2    0    0  0.82095383916E+02 -0.23006370715E+02  0.10204552877E+03  0.15854159253E+03  0.86331926121E+02 0.  0.
         23    2    1    2    0    0 -0.82095383916E+02  0.23006370715E+02  0.18680487216E+03  0.22387838500E+03  0.89199360152E+02 0.  0.
          5    1    3    3  502    0  0.49278553029E+02 -0.47435670479E+02  0.28493516989E+02  0.74246138841E+02  0.47000000000E+01 0. -1.
         -5    1    4    4    0  503 -0.14353741885E+02 -0.24820878057E+02  0.14221028235E+02  0.32348624973E+02  0.47000000000E+01 0.  1.
          5    1    4    4  503    0 -0.67741642032E+02  0.47827248771E+02  0.17258384393E+03  0.19152976002E+03  0.47000000000E+01 0. -1.
         -5    1    3    3    0  502  0.32816830888E+02  0.24429299765E+02  0.73552011778E+02  0.84295453692E+02  0.47000000000E+01 0.  1.
<mgrwt>
<rscale>  0 0.12287412E+03</rscale>
<asrwt>0</asrwt>
<pdfrwt beam="1">  1        1 0.51636181E-01 0.12339154E+03</pdfrwt>
<pdfrwt beam="2">  1       -1 0.71976599E-02 0.12339154E+03</pdfrwt>
<totfact> 0.72776185E+03</totfact>
</mgrwt>
</event>
<event>
 8    1  0.6396648E-004  0.1154421E+03  0.7546771E-02  0.1255368E+00
          1   -1    0    0  501    0  0.00000000000E+00  0.00000000000E+00  0.20224122329E+03  0.20224122329E+03  0.00000000000E+00 0. -1.
         -1   -1    0    0    0  501 -0.00000000000E+00 -0.00000000000E+00 -0.14641176356E+03  0.14641176356E+03  0.00000000000E+00 0.  1.
         23    2    1    2    0    0 -0.41456207309E+02 -0.32055286366E+02 -0.10623157615E+03  0.14967900269E+03  0.91501352824E+02 0.  0.
         23    2    1    2    0    0  0.41456207309E+02  0.32055286366E+02  0.16206103588E+03  0.19897398416E+03  0.10286257101E+03 0.  0.
          5    1    3    3  502    0  0.36361882409E+01  0.26639494067E+02 -0.12140763011E+02  0.29872606776E+02  0.47000000000E+01 0. -1.
         -5    1    3    3    0  502 -0.45092395550E+02 -0.58694780433E+02 -0.94090813136E+02  0.11980639592E+03  0.47000000000E+01 0.  1.
          5    1    4    4  503    0  0.60482458999E+02  0.52054374061E+01  0.15277265377E+03  0.16445910788E+03  0.47000000000E+01 0. -1.
         -5    1    4    4    0  503 -0.19026251690E+02  0.26849848960E+02  0.92883821067E+01  0.34514876281E+02  0.47000000000E+01 0.  1.
<mgrwt>
<rscale>  0 0.11285728E+03</rscale>
<asrwt>0</asrwt>
<pdfrwt beam="1">  1        1 0.31114034E-01 0.11544205E+03</pdfrwt>
<pdfrwt beam="2">  1       -1 0.22524887E-01 0.11544205E+03</pdfrwt>
<totfact> 0.23149437E+03</totfact>
</mgrwt>
</event>
<event>
 8    1  0.6396648E-004  0.1085142E+03  0.7546771E-02  0.1264180E+00
          2   -1    0    0  501    0  0.00000000000E+00  0.00000000000E+00  0.11114724363E+04  0.11114724363E+04  0.00000000000E+00 0. -1.
         -2   -1    0    0    0  501 -0.00000000000E+00 -0.00000000000E+00 -0.10723606679E+02  0.10723606679E+02  0.00000000000E+00 0.  1.
         23    2    1    2    0    0  0.30436873265E+02 -0.42127740281E+02  0.64854369697E+03  0.65755932507E+03  0.95258539521E+02 0.  0.
         23    2    1    2    0    0 -0.30436873265E+02  0.42127740281E+02  0.45220513269E+03  0.46463671795E+03  0.93255819546E+02 0.  0.
          5    1    4    4  502    0  0.26453665643E+01  0.55821715837E+02  0.37770607564E+03  0.38184686917E+03  0.47000000000E+01 0. -1.
         -5    1    3    3    0  503 -0.10818965822E+02 -0.61013119827E+02  0.41159651879E+03  0.41626125822E+03  0.47000000000E+01 0.  1.
          5    1    3    3  503    0  0.41255839087E+02  0.18885379547E+02  0.23694717818E+03  0.24129806685E+03  0.47000000000E+01 0. -1.
         -5    1    4    4    0  502 -0.33082239829E+02 -0.13693975556E+02  0.74499057054E+02  0.82789848778E+02  0.47000000000E+01 0.  1.
<mgrwt>
<rscale>  0 0.10807311E+03</rscale>
<asrwt>0</asrwt>
<pdfrwt beam="1">  1        2 0.17099567E+00 0.10851423E+03</pdfrwt>
<pdfrwt beam="2">  1       -2 0.16497865E-02 0.10851423E+03</pdfrwt>
<totfact> 0.21668601E+04</totfact>
</mgrwt>
</event>
<event>
 8    1  0.6396648E-004  0.2986572E+03  0.7546771E-02  0.1085916E+00
         -1   -1    0    0    0  501 -0.00000000000E+00  0.00000000000E+00  0.56832230578E+02  0.56832230578E+02  0.00000000000E+00 0.  1.
          1   -1    0    0  501    0  0.00000000000E+00 -0.00000000000E+00 -0.15710468881E+04  0.15710468881E+04  0.00000000000E+00 0. -1.
         23    2    1    2    0    0  0.13923666599E+03  0.24746062183E+03 -0.78372111783E+03  0.83869834865E+03  0.92587909465E+02 0.  0.
         23    2    1    2    0    0 -0.13923666599E+03 -0.24746062183E+03 -0.73049353967E+03  0.78918077000E+03  0.92530361165E+02 0.  0.
          5    1    3    3  502    0  0.81268828641E+02  0.15385097940E+03 -0.34596941415E+03  0.38728758294E+03  0.47000000000E+01 0.  1.
         -5    1    3    3    0  502  0.57967837352E+02  0.93609642423E+02 -0.43775170368E+03  0.45141076571E+03  0.47000000000E+01 0. -1.
          5    1    4    4  503    0 -0.62780047677E+02 -0.16858522180E+03 -0.54044838523E+03  0.56962168015E+03  0.47000000000E+01 0. -1.
         -5    1    4    4    0  503 -0.76456618316E+02 -0.78875400030E+02 -0.19004515443E+03  0.21955908985E+03  0.47000000000E+01 0.  1.
<mgrwt>
<rscale>  0 0.29865275E+03</rscale>
<asrwt>0</asrwt>
<pdfrwt beam="1">  1        1 0.24169952E+00 0.29865721E+03</pdfrwt>
<pdfrwt beam="2">  1       -1 0.87434202E-02 0.29865721E+03</pdfrwt>
<totfact> 0.48138088E+02</totfact>
</mgrwt>
</event>
<event>
 8    1  0.6396648E-004  0.1588242E+03  0.7546771E-02  0.1190361E+00
         -1   -1    0    0    0  501 -0.00000000000E+00  0.00000000000E+00  0.91926652700E+02  0.91926652700E+02  0.00000000000E+00 0.  1.
          1   -1    0    0  501    0  0.00000000000E+00 -0.00000000000E+00 -0.30390449580E+03  0.30390449580E+03  0.00000000000E+00 0. -1.
         23    2    1    2    0    0  0.14105588932E+02 -0.12934600432E+03 -0.16934955094E+03  0.23138571376E+03  0.89054599307E+02 0.  0.
         23    2    1    2    0    0 -0.14105588932E+02  0.12934600432E+03 -0.42628292160E+02  0.16444543474E+03  0.91081135486E+02 0.  0.
          5    1    4    4  502    0 -0.18470268654E+02  0.46242408627E+02 -0.61212601537E+02  0.79047983951E+02  0.47000000000E+01 0. -1.
         -5    1    4    4    0  502  0.43646797212E+01  0.83103595690E+02  0.18584309377E+02  0.85397450786E+02  0.47000000000E+01 0.  1.
          5    1    3    3  503    0  0.18078378827E+02 -0.92072047093E+02 -0.50466732701E+02  0.10664460017E+03  0.47000000000E+01 0. -1.
         -5    1    3    3    0  503 -0.39727898948E+01 -0.37273957224E+02 -0.11888281824E+03  0.12474111359E+03  0.47000000000E+01 0.  1.
<mgrwt>
<rscale>  0 0.15853507E+03</rscale>
<asrwt>0</asrwt>
<pdfrwt beam="1">  1        1 0.46754538E-01 0.15882421E+03</pdfrwt>
<pdfrwt beam="2">  1       -1 0.14142562E-01 0.15882421E+03</pdfrwt>
<totfact> 0.29713047E+03</totfact>
</mgrwt>
</event>
<event>
 8    1  0.6396648E-004  0.9446234E+02  0.7546771E-02  0.1293329E+00
         -1   -1    0    0    0  501 -0.00000000000E+00  0.00000000000E+00  0.15709696689E+03  0.15709696689E+03  0.00000000000E+00 0.  1.
          1   -1    0    0  501    0  0.00000000000E+00 -0.00000000000E+00 -0.55820262265E+02  0.55820262265E+02  0.00000000000E+00 0. -1.
         23    2    1    2    0    0 -0.13873976288E+02  0.16475486460E+02  0.50328363553E+02  0.10559124370E+03  0.90291958088E+02 0.  0.
         23    2    1    2    0    0  0.13873976288E+02 -0.16475486460E+02  0.50948341072E+02  0.10732598546E+03  0.91973935571E+02 0.  0.
          5    1    4    4  502    0  0.35557936804E+02  0.47425143230E+01  0.64354010812E+02  0.73826736481E+02  0.47000000000E+01 0.  1.
         -5    1    4    4    0  502 -0.21683960515E+02 -0.21218000783E+02 -0.13405669740E+02  0.33499248977E+02  0.47000000000E+01 0. -1.
          5    1    3    3  503    0  0.16633350380E+02  0.45087472785E+02  0.38823140451E+02  0.61958653806E+02  0.47000000000E+01 0. -1.
         -5    1    3    3    0  503 -0.30507326669E+02 -0.28611986325E+02  0.11505223102E+02  0.43632589890E+02  0.47000000000E+01 0.  1.
<mgrwt>
<rscale>  0 0.94050434E+02</rscale>
<asrwt>0</asrwt>
<pdfrwt beam="1">  1        1 0.85877327E-02 0.94462340E+02</pdfrwt>
<pdfrwt beam="2">  1       -1 0.24168764E-01 0.94462340E+02</pdfrwt>
<totfact> 0.10549081E+04</totfact>
</mgrwt>
</event>
<event>
 8    1  0.6396648E-004  0.1081621E+03  0.7546771E-02  0.1264099E+00
          2   -1    0    0  501    0  0.00000000000E+00  0.00000000000E+00  0.18718939329E+03  0.18718939329E+03  0.00000000000E+00 0. -1.
         -2   -1    0    0    0  501 -0.00000000000E+00 -0.00000000000E+00 -0.89494621196E+02  0.89494621196E+02  0.00000000000E+00 0.  1.
         23    2    1    2    0    0 -0.58091197400E+02  0.62363075069E+01 -0.27254566133E+02  0.11154303376E+03  0.91025041931E+02 0.  0.
         23    2    1    2    0    0  0.58091197400E+02 -0.62363075069E+01  0.12494933823E+03  0.16514098073E+03  0.90805989039E+02 0.  0.
          5    1    3    3  502    0 -0.35129801558E+02  0.25602686510E+02  0.25528354914E+02  0.50629906366E+02  0.47000000000E+01 0. -1.
         -5    1    3    3    0  502 -0.22961395841E+02 -0.19366379003E+02 -0.52782921046E+02  0.60913127393E+02  0.47000000000E+01 0.  1.
          5    1    4    4  503    0  0.18700336589E+01  0.31908059948E+02  0.14562688951E+02  0.35437031831E+02  0.47000000000E+01 0. -1.
         -5    1    4    4    0  503  0.56221163741E+02 -0.38144367455E+02  0.11038664927E+03  0.12970394889E+03  0.47000000000E+01 0.  1.
<mgrwt>
<rscale>  0 0.10811599E+03</rscale>
<asrwt>0</asrwt>
<pdfrwt beam="1">  1        2 0.28798368E-01 0.10816209E+03</pdfrwt>
<pdfrwt beam="2">  1       -2 0.13768403E-01 0.10816209E+03</pdfrwt>
<totfact> 0.67663910E+03</totfact>
</mgrwt>
</event>
<event>
 8    1  0.6396648E-004  0.1115347E+03  0.7546771E-02  0.1257917E+00
          1   -1    0    0  501    0  0.00000000000E+00  0.00000000000E+00  0.24718347652E+02  0.24718347652E+02  0.00000000000E+00 0. -1.
         -1   -1    0    0    0  501 -0.00000000000E+00 -0.00000000000E+00 -0.58214132928E+03  0.58214132928E+03  0.00000000000E+00 0.  1.
         23    2    1    2    0    0  0.12021501462E+01  0.62939385945E+02 -0.39114781369E+03  0.40664125092E+03  0.91638874529E+02 0.  0.
         23    2    1    2    0    0 -0.12021501462E+01 -0.62939385945E+02 -0.16627516794E+03  0.20021842601E+03  0.92071576368E+02 0.  0.
          5    1    3    3  502    0 -0.26767359656E+02  0.26895094554E+02 -0.52751702212E+02  0.65151130000E+02  0.47000000000E+01 0. -1.
         -5    1    3    3    0  502  0.27969509803E+02  0.36044291391E+02 -0.33839611148E+03  0.34149012092E+03  0.47000000000E+01 0.  1.
          5    1    4    4  503    0 -0.36133589352E+02 -0.26541059326E-01 -0.79047951797E+02  0.87041976467E+02  0.47000000000E+01 0. -1.
         -5    1    4    4    0  503  0.34931439206E+02 -0.62912844885E+02 -0.87227216141E+02  0.11317644955E+03  0.47000000000E+01 0.  1.
<mgrwt>
<rscale>  0 0.11144535E+03</rscale>
<asrwt>0</asrwt>
<pdfrwt beam="1">  1        1 0.38028232E-02 0.11153469E+03</pdfrwt>
<pdfrwt beam="2">  1       -1 0.89560192E-01 0.11153469E+03</pdfrwt>
<totfact> 0.29844282E+03</totfact>
</mgrwt>
</event>
<event>
 8    1  0.6396648E-004  0.9997011E+02  0.7546771E-02  0.1290263E+00
         -1   -1    0    0    0  501 -0.00000000000E+00  0.00000000000E+00  0.50323308486E+02  0.50323308486E+02  0.00000000000E+00 0.  1.
          1   -1    0    0  501    0  0.00000000000E+00 -0.00000000000E+00 -0.36050854640E+03  0.36050854640E+03  0.00000000000E+00 0. -1.
         23    2    1    2    0    0  0.33364539054E+02 -0.21968010729E+02 -0.11243053230E+02  0.10060034371E+03  0.91641895152E+02 0.  0.
         23    2    1    2    0    0 -0.33364539054E+02  0.21968010729E+02 -0.29894218468E+03  0.31023151117E+03  0.72673067784E+02 0.  0.
          5    1    4    4  502    0  0.19768401273E+00 -0.24254890354E+02 -0.70312029133E+02  0.74526573957E+02  0.47000000000E+01 0. -1.
         -5    1    3    3    0  503  0.48806170630E+02  0.88861669493E+01 -0.32790421084E+02  0.59651554628E+02  0.47000000000E+01 0.  1.
          5    1    3    3  503    0 -0.15441631576E+02 -0.30854177679E+02  0.21547367854E+02  0.40948789083E+02  0.47000000000E+01 0. -1.
         -5    1    4    4    0  502 -0.33562223067E+02  0.46222901084E+02 -0.22863015555E+03  0.23570493722E+03  0.47000000000E+01 0.  1.
<mgrwt>
<rscale>  0 0.95406678E+02</rscale>
<asrwt>0</asrwt>
<pdfrwt beam="1">  1        1 0.55462853E-01 0.99970110E+02</pdfrwt>
<pdfrwt beam="2">  1       -1 0.77420475E-02 0.99970110E+02</pdfrwt>
<totfact> 0.58876689E+03</totfact>
</mgrwt>
</event>
<event>
 8    1  0.6396648E-004  0.1153588E+03  0.7546771E-02  0.1251309E+00
         -3   -1    0    0    0  501 -0.00000000000E+00  0.00000000000E+00  0.14008478903E+02  0.14008478903E+02  0.00000000000E+00 0.  1.
          3   -1    0    0  501    0  0.00000000000E+00 -0.00000000000E+00 -0.12796384482E+04  0.12796384482E+04  0.00000000000E+00 0. -1.
         23    2    1    2    0    0  0.33388154788E+02  0.62140633428E+02 -0.96277591399E+03  0.96956633546E+03  0.90250712435E+02 0.  0.
         23    2    1    2    0    0 -0.33388154788E+02 -0.62140633428E+02 -0.30285405536E+03  0.32408059170E+03  0.91276633721E+02 0.  0.
          5    1    4    4  502    0  0.19855538672E+02 -0.58100128677E+02 -0.17082386299E+03  0.18158400132E+03  0.47000000000E+01 0.  1.
         -5    1    3    3    0  503 -0.16950495031E+02 -0.14046618685E+02 -0.15359941065E+03  0.15524012281E+03  0.47000000000E+01 0.  1.
          5    1    3    3  503    0  0.50338649819E+02  0.76187252113E+02 -0.80917650333E+03  0.81432621264E+03  0.47000000000E+01 0. -1.
         -5    1    4    4    0  502 -0.53243693460E+02 -0.40405047510E+01 -0.13203019236E+03  0.14249659037E+03  0.47000000000E+01 0. -1.
<mgrwt>
<rscale>  0 0.11515575E+03</rscale>
<asrwt>0</asrwt>
<pdfrwt beam="1">  1        3 0.19686749E+00 0.11535879E+03</pdfrwt>
<pdfrwt beam="2">  1       -3 0.21551502E-02 0.11535879E+03</pdfrwt>
<totfact> 0.32785303E+02</totfact>
</mgrwt>
</event>
<event>
 8    1  0.6396648E-004  0.1956925E+03  0.7546771E-02  0.1153496E+00
         -2   -1    0    0    0  501 -0.00000000000E+00  0.00000000000E+00  0.90833963282E+02  0.90833963282E+02  0.00000000000E+00 0.  1.
          2   -1    0    0  501    0  0.00000000000E+00 -0.00000000000E+00 -0.42685274414E+03  0.42685274414E+03  0.00000000000E+00 0. -1.
         23    2    1    2    0    0  0.16388273546E+03 -0.54887065052E+02 -0.19874083626E+03  0.27891482966E+03  0.91790093764E+02 0.  0.
         23    2    1    2    0    0 -0.16388273546E+03  0.54887065052E+02 -0.13727794460E+03  0.23877187777E+03  0.91085864157E+02 0.  0.
          5    1    4    4  502    0 -0.47615418144E+02 -0.24944651973E+02 -0.43882195900E+02  0.69549987952E+02  0.47000000000E+01 0. -1.
         -5    1    3    3    0  503  0.38716431871E+02  0.21668762932E+02 -0.23882329665E+02  0.50605859879E+02  0.47000000000E+01 0.  1.
          5    1    3    3  503    0  0.12516630359E+03 -0.76555827984E+02 -0.17485850660E+03  0.22830896978E+03  0.47000000000E+01 0. -1.
         -5    1    4    4    0  502 -0.11626731731E+03  0.79831717025E+02 -0.93395748697E+02  0.16922188982E+03  0.47000000000E+01 0.  1.
<mgrwt>
<rscale>  0 0.19561013E+03</rscale>
<asrwt>0</asrwt>
<pdfrwt beam="1">  1        2 0.65669653E-01 0.19569252E+03</pdfrwt>
<pdfrwt beam="2">  1       -2 0.13974456E-01 0.19569252E+03</pdfrwt>
<totfact> 0.28224058E+03</totfact>
</mgrwt>
</event>
<event>
 8    1  0.6396648E-004  0.8997973E+02  0.7546771E-02  0.1302940E+00
          1   -1    0    0  501    0  0.00000000000E+00  0.00000000000E+00  0.57835864362E+03  0.57835864362E+03  0.00000000000E+00 0. -1.
         -1   -1    0    0    0  501 -0.00000000000E+00 -0.00000000000E+00 -0.17754424864E+02  0.17754424864E+02  0.00000000000E+00 0.  1.
         23    2    1    2    0    0  0.19153222430E+01 -0.36479297297E+01  0.41748903334E+03  0.42706186929E+03  0.89820773747E+02 0.  0.
         23    2    1    2    0    0 -0.19153222430E+01  0.36479297297E+01  0.14311518542E+03  0.16905119919E+03  0.89885348082E+02 0.  0.
          5    1    4    4  502    0 -0.34892341037E+02 -0.16554114066E+02  0.29157845042E+02  0.48618762664E+02  0.47000000000E+01 0. -1.
         -5    1    3    3    0  503  0.21177570629E+02  0.33135840901E+02  0.11344312556E+03  0.12015783864E+03  0.47000000000E+01 0.  1.
          5    1    3    3  503    0 -0.19262248386E+02 -0.36783770630E+02  0.30404590777E+03  0.30690403065E+03  0.47000000000E+01 0. -1.
         -5    1    4    4    0  502  0.32977018793E+02  0.20202043796E+02  0.11395734037E+03  0.12043243652E+03  0.47000000000E+01 0.  1.
<mgrwt>
<rscale>  0 0.89963598E+02</rscale>
<asrwt>0</asrwt>
<pdfrwt beam="1">  1        1 0.88978238E-01 0.89979729E+02</pdfrwt>
<pdfrwt beam="2">  1       -1 0.27314504E-02 0.89979729E+02</pdfrwt>
<totfact> 0.14687338E+04</totfact>
</mgrwt>
</event>
<event>
 8    1  0.6396648E-004  0.1031768E+03  0.7546771E-02  0.1274248E+00
          2   -1    0    0  501    0  0.00000000000E+00  0.00000000000E+00  0.78575909533E+02  0.78575909533E+02  0.00000000000E+00 0. -1.
         -2   -1    0    0    0  501 -0.00000000000E+00 -0.00000000000E+00 -0.20948086947E+03  0.20948086947E+03  0.00000000000E+00 0.  1.
         23    2    1    2    0    0 -0.34091583084E+02 -0.32607855392E+02  0.20687652901E+02  0.10523041364E+03  0.91760300248E+02 0.  0.
         23    2    1    2    0    0  0.34091583084E+02  0.32607855392E+02 -0.15159261283E+03  0.18282636536E+03  0.90662292792E+02 0.  0.
          5    1    4    4  502    0 -0.82334145336E+01  0.50113480079E+02 -0.50653216837E+02  0.71881766648E+02  0.47000000000E+01 0. -1.
         -5    1    4    4    0  502  0.42324997618E+02 -0.17505624687E+02 -0.10093939600E+03  0.11094459871E+03  0.47000000000E+01 0.  1.
          5    1    3    3  503    0 -0.38233893229E+02 -0.13522091138E+01  0.49173246430E+02  0.62480054620E+02  0.47000000000E+01 0. -1.
         -5    1    3    3    0  503  0.41423101448E+01 -0.31255646278E+02 -0.28485593528E+02  0.42750359019E+02  0.47000000000E+01 0.  1.
<mgrwt>
<rscale>  0 0.10293215E+03</rscale>
<asrwt>0</asrwt>
<pdfrwt beam="1">  1        2 0.12088602E-01 0.10317684E+03</pdfrwt>
<pdfrwt beam="2">  1       -2 0.32227826E-01 0.10317684E+03</pdfrwt>
<totfact> 0.42494727E+03</totfact>
</mgrwt>
</event>
<event>
 8    1  0.6396648E-004  0.1134001E+03  0.7546771E-02  0.1254566E+00
          3   -1    0    0  501    0  0.00000000000E+00  0.00000000000E+00  0.70777347074E+02  0.70777347074E+02  0.00000000000E+00 0. -1.
         -3   -1    0    0    0  501 -0.00000000000E+00 -0.00000000000E+00 -0.19204009829E+03  0.19204009829E+03  0.00000000000E+00 0.  1.
         23    2    1    2    0    0  0.33023913407E+02 -0.55973204674E+02 -0.29349961573E+02  0.11713665386E+03  0.92930064754E+02 0.  0.
         23    2    1    2    0    0 -0.33023913407E+02  0.55973204674E+02 -0.91912789642E+02  0.14568079150E+03  0.92473529264E+02 0.  0.
          5    1    4    4  502    0  0.21037178374E+02 -0.92859012472E+01 -0.39444110698E+02  0.45899005487E+02  0.47000000000E+01 0. -1.
         -5    1    4    4    0  502 -0.54061091781E+02  0.65259105921E+02 -0.52468678944E+02  0.99781786015E+02  0.47000000000E+01 0.  1.
          5    1    3    3  503    0  0.59765132171E+02 -0.13132629885E+02 -0.72032424768E+01  0.61792505155E+02  0.47000000000E+01 0. -1.
         -5    1    3    3    0  503 -0.26741218764E+02 -0.42840574789E+02 -0.22146719096E+02  0.55344148705E+02  0.47000000000E+01 0.  1.
<mgrwt>
<rscale>  0 0.11330650E+03</rscale>
<asrwt>0</asrwt>
<pdfrwt beam="1">  1        3 0.10888823E-01 0.11340007E+03</pdfrwt>
<pdfrwt beam="2">  1       -3 0.29544630E-01 0.11340007E+03</pdfrwt>
<totfact> 0.15732415E+03</totfact>
</mgrwt>
</event>
<event>
 8    1  0.6396648E-004  0.1055727E+03  0.7546771E-02  0.1268999E+00
         -2   -1    0    0    0  501 -0.00000000000E+00  0.00000000000E+00  0.11996005232E+02  0.11996005232E+02  0.00000000000E+00 0.  1.
          2   -1    0    0  501    0  0.00000000000E+00 -0.00000000000E+00 -0.92997239215E+03  0.92997239215E+03  0.00000000000E+00 0. -1.
         23    2    1    2    0    0  0.44541429625E+02 -0.41390719268E+02 -0.47387705884E+03  0.48549298110E+03  0.86295059027E+02 0.  0.
         23    2    1    2    0    0 -0.44541429625E+02  0.41390719268E+02 -0.44409932808E+03  0.45647541628E+03  0.86304471912E+02 0.  0.
          5    1    3    3  502    0  0.40548679114E+02  0.16026704963E+02 -0.27224490920E+03  0.27575429504E+03  0.47000000000E+01 0. -1.
         -5    1    4    4    0  503  0.20822957336E+02 -0.73510609846E+01 -0.69461185553E+02  0.73038208824E+02  0.47000000000E+01 0.  1.
          5    1    4    4  503    0 -0.65364386961E+02  0.48741780253E+02 -0.37463814253E+03  0.38343720746E+03  0.47000000000E+01 0. -1.
         -5    1    3    3    0  502  0.39927505109E+01 -0.57417424232E+02 -0.20163214964E+03  0.20973868606E+03  0.47000000000E+01 0.  1.
<mgrwt>
<rscale>  0 0.10557076E+03</rscale>
<asrwt>0</asrwt>
<pdfrwt beam="1">  1        2 0.14307272E+00 0.10557269E+03</pdfrwt>
<pdfrwt beam="2">  1       -2 0.18455387E-02 0.10557269E+03</pdfrwt>
<totfact> 0.23508046E+04</totfact>
</mgrwt>
</event>
<event>
 8    1  0.6396648E-004  0.9556023E+02  0.7546771E-02  0.1290679E+00
         -1   -1    0    0    0  501 -0.00000000000E+00  0.00000000000E+00  0.84785147249E+03  0.84785147249E+03  0.00000000000E+00 0.  1.
          1   -1    0    0  501    0  0.00000000000E+00 -0.00000000000E+00 -0.11346048839E+02  0.11346048839E+02  0.00000000000E+00 0. -1.
         23    2    1    2    0    0 -0.26986942898E+02 -0.13188740080E+02  0.52422488349E+03  0.53262303715E+03  0.89293523202E+02 0.  0.
         23    2    1    2    0    0  0.26986942898E+02  0.13188740080E+02  0.31228054016E+03  0.32657448418E+03  0.90716701870E+02 0.  0.
          5    1    3    3  502    0  0.25658117361E+02 -0.24093120414E+02  0.13160076916E+03  0.13630726276E+03  0.47000000000E+01 0. -1.
         -5    1    3    3    0  502 -0.52645060258E+02  0.10904380334E+02  0.39262411433E+03  0.39631577439E+03  0.47000000000E+01 0.  1.
          5    1    4    4  503    0  0.56234767518E+02 -0.72319780324E+01  0.15182327802E+03  0.16213281079E+03  0.47000000000E+01 0. -1.
         -5    1    4    4    0  503 -0.29247824621E+02  0.20420718112E+02  0.16045726214E+03  0.16444167339E+03  0.47000000000E+01 0.  1.
<mgrwt>
<rscale>  0 0.95220934E+02</rscale>
<asrwt>0</asrwt>
<pdfrwt beam="1">  1        1 0.17455466E-02 0.95560232E+02</pdfrwt>
<pdfrwt beam="2">  1       -1 0.13043864E+00 0.95560232E+02</pdfrwt>
<totfact> 0.37040400E+03</totfact>
</mgrwt>
</event>
<event>
 8    1  0.6396648E-004  0.9983314E+02  0.7546771E-02  0.1281112E+00
          3   -1    0    0  501    0  0.00000000000E+00  0.00000000000E+00  0.96538735339E+02  0.96538735339E+02  0.00000000000E+00 0. -1.
         -3   -1    0    0    0  501 -0.00000000000E+00 -0.00000000000E+00 -0.16978056452E+03  0.16978056452E+03  0.00000000000E+00 0.  1.
         23    2    1    2    0    0 -0.33793542205E+02 -0.28817639973E+02 -0.12045115531E+03  0.15588662638E+03  0.88429065354E+02 0.  0.
         23    2    1    2    0    0  0.33793542205E+02  0.28817639973E+02  0.47209326124E+02  0.11043267349E+03  0.89410262454E+02 0.  0.
          5    1    4    4  502    0  0.85097409153E+01  0.56296977680E+02  0.45012999041E+02  0.72732561271E+02  0.47000000000E+01 0. -1.
         -5    1    4    4    0  502  0.25283801289E+02 -0.27479337707E+02  0.21963270831E+01  0.37700112216E+02  0.47000000000E+01 0.  1.
          5    1    3    3  503    0 -0.53727460673E+02 -0.44932763140E+02 -0.70178656576E+02  0.99260904049E+02  0.47000000000E+01 0.  1.
         -5    1    3    3    0  503  0.19933918469E+02  0.16115123167E+02 -0.50272498734E+02  0.56625722328E+02  0.47000000000E+01 0. -1.
<mgrwt>
<rscale>  0 0.99612959E+02</rscale>
<asrwt>0</asrwt>
<pdfrwt beam="1">  1        3 0.14852113E-01 0.99833135E+02</pdfrwt>
<pdfrwt beam="2">  1       -3 0.26120086E-01 0.99833135E+02</pdfrwt>
<totfact> 0.11435529E+03</totfact>
</mgrwt>
</event>
<event>
 8    1  0.6396648E-004  0.1769867E+03  0.7546771E-02  0.1171002E+00
          3   -1    0    0  501    0  0.00000000000E+00  0.00000000000E+00  0.40986968014E+03  0.40986968014E+03  0.00000000000E+00 0. -1.
         -3   -1    0    0    0  501 -0.00000000000E+00 -0.00000000000E+00 -0.23679773957E+03  0.23679773957E+03  0.00000000000E+00 0.  1.
         23    2    1    2    0    0 -0.39277705231E+02  0.14602376826E+03 -0.17983434878E+03  0.25231862399E+03  0.91970734408E+02 0.  0.
         23    2    1    2    0    0  0.39277705231E+02 -0.14602376826E+03  0.35290628935E+03  0.39434879571E+03  0.90013580035E+02 0.  0.
          5    1    3    3  502    0 -0.54686191417E+01  0.43455659180E+02 -0.18620689070E+01  0.44089198345E+02  0.47000000000E+01 0. -1.
         -5    1    3    3    0  502 -0.33809086089E+02  0.10256810908E+03 -0.17797227987E+03  0.20822942565E+03  0.47000000000E+01 0.  1.
          5    1    4    4  503    0  0.14130970995E+01 -0.10676679064E+03  0.29896116179E+03  0.31749174901E+03  0.47000000000E+01 0. -1.
         -5    1    4    4    0  503  0.37864608131E+02 -0.39256977620E+02  0.53945127555E+02  0.76857046702E+02  0.47000000000E+01 0.  1.
<mgrwt>
<rscale>  0 0.17673390E+03</rscale>
<asrwt>0</asrwt>
<pdfrwt beam="1">  1        3 0.63056874E-01 0.17698671E+03</pdfrwt>
<pdfrwt beam="2">  1       -3 0.36430421E-01 0.17698671E+03</pdfrwt>
<totfact> 0.44706188E+01</totfact>
</mgrwt>
</event>
<event>
 8    1  0.6396648E-004  0.9412718E+02  0.7546771E-02  0.1293512E+00
          1   -1    0    0  501    0  0.00000000000E+00  0.00000000000E+00  0.59851532823E+03  0.59851532823E+03  0.00000000000E+00 0. -1.
         -1   -1    0    0    0  501 -0.00000000000E+00 -0.00000000000E+00 -0.18018217157E+02  0.18018217157E+02  0.00000000000E+00 0.  1.
         23    2    1    2    0    0 -0.55973051753E+00  0.19208157465E+02  0.15727244770E+03  0.18296804559E+03  0.91506372953E+02 0.  0.
         23    2    1    2    0    0  0.55973051753E+00 -0.19208157465E+02  0.42322466337E+03  0.43356549980E+03  0.92144779091E+02 0.  0.
          5    1    3    3  502    0 -0.18509704284E+02 -0.11683867457E+02  0.14212540164E+03  0.14387787078E+03  0.47000000000E+01 0. -1.
         -5    1    4    4    0  503  0.28104861152E+02  0.20251364756E+02  0.85089865974E+02  0.91991175046E+02  0.47000000000E+01 0.  1.
          5    1    4    4  503    0 -0.27545130634E+02 -0.39459522222E+02  0.33813479740E+03  0.34157432475E+03  0.47000000000E+01 0. -1.
         -5    1    3    3    0  502  0.17949973767E+02  0.30892024923E+02  0.15147046064E+02  0.39090174808E+02  0.47000000000E+01 0.  1.
<mgrwt>
<rscale>  0 0.93970577E+02</rscale>
<asrwt>0</asrwt>
<pdfrwt beam="1">  1        1 0.92079266E-01 0.94127185E+02</pdfrwt>
<pdfrwt beam="2">  1       -1 0.27720339E-02 0.94127185E+02</pdfrwt>
<totfact> 0.13791679E+04</totfact>
</mgrwt>
</event>
<event>
 8    1  0.6396648E-004  0.1476625E+03  0.7546771E-02  0.1203392E+00
         -3   -1    0    0    0  501 -0.00000000000E+00  0.00000000000E+00  0.28923118382E+03  0.28923118382E+03  0.00000000000E+00 0.  1.
          3   -1    0    0  501    0  0.00000000000E+00 -0.00000000000E+00 -0.82574199840E+02  0.82574199840E+02  0.00000000000E+00 0. -1.
         23    2    1    2    0    0 -0.10966008722E+03  0.50128571369E+02  0.48360894551E+02  0.15532935373E+03  0.85148244912E+02 0.  0.
         23    2    1    2    0    0  0.10966008722E+03 -0.50128571369E+02  0.15829608943E+03  0.21647602994E+03  0.85240901049E+02 0.  0.
          5    1    4    4  502    0  0.84284952064E+02 -0.63523413523E+02  0.78707756343E+02  0.13174284845E+03  0.47000000000E+01 0. -1.
         -5    1    3    3    0  503  0.24325379345E+01  0.33577133116E+02  0.14697198614E+02  0.37032941500E+02  0.47000000000E+01 0.  1.
          5    1    3    3  503    0 -0.11209262515E+03  0.16551438253E+02  0.33663695937E+02  0.11829641223E+03  0.47000000000E+01 0. -1.
         -5    1    4    4    0  502  0.25375135152E+02  0.13394842154E+02  0.79588333088E+02  0.84733181482E+02  0.47000000000E+01 0.  1.
<mgrwt>
<rscale>  0 0.14764915E+03</rscale>
<asrwt>0</asrwt>
<pdfrwt beam="1">  1        3 0.12703723E-01 0.14766252E+03</pdfrwt>
<pdfrwt beam="2">  1       -3 0.44497105E-01 0.14766252E+03</pdfrwt>
<totfact> 0.58301722E+02</totfact>
</mgrwt>
</event>
<event>
 8    1  0.6396648E-004  0.9997411E+02  0.7546771E-02  0.1281737E+00
         -2   -1    0    0    0  501 -0.00000000000E+00  0.00000000000E+00  0.53271404768E+02  0.53271404768E+02  0.00000000000E+00 0.  1.
          2   -1    0    0  501    0  0.00000000000E+00 -0.00000000000E+00 -0.30486164013E+03  0.30486164013E+03  0.00000000000E+00 0. -1.
         23    2    1    2    0    0  0.14862592034E+02 -0.37345973425E+02 -0.13476203558E+02  0.10087829542E+03  0.91537992398E+02 0.  0.
         23    2    1    2    0    0 -0.14862592034E+02  0.37345973425E+02 -0.23811403181E+03  0.25725474948E+03  0.88691012017E+02 0.  0.
          5    1    4    4  502    0 -0.38239991584E+02  0.17180999401E+02 -0.45191513179E+02  0.61821085078E+02  0.47000000000E+01 0.  1.
         -5    1    4    4    0  502  0.23377399550E+02  0.20164974024E+02 -0.19292251863E+03  0.19543366440E+03  0.47000000000E+01 0. -1.
          5    1    3    3  503    0  0.30319427062E+02 -0.32882634103E+00 -0.41578627091E+02  0.51674442569E+02  0.47000000000E+01 0. -1.
         -5    1    3    3    0  503 -0.15456835028E+02 -0.37017147084E+02  0.28102423532E+02  0.49203852855E+02  0.47000000000E+01 0.  1.
<mgrwt>
<rscale>  0 0.99317668E+02</rscale>
<asrwt>0</asrwt>
<pdfrwt beam="1">  1        2 0.46901792E-01 0.99974109E+02</pdfrwt>
<pdfrwt beam="2">  1       -2 0.81956006E-02 0.99974109E+02</pdfrwt>
<totfact> 0.90537568E+03</totfact>
</mgrwt>
</event>
<event>
 8    1  0.6396648E-004  0.9646149E+02  0.7546771E-02  0.1289244E+00
         -2   -1    0    0    0  501 -0.00000000000E+00  0.00000000000E+00  0.61193515537E+02  0.61193515537E+02  0.00000000000E+00 0.  1.
          2   -1    0    0  501    0  0.00000000000E+00 -0.00000000000E+00 -0.21421096524E+03  0.21421096524E+03  0.00000000000E+00 0. -1.
         23    2    1    2    0    0 -0.15399982897E+02 -0.15899219074E+02 -0.15352469854E+03  0.18131368663E+03  0.93887567113E+02 0.  0.
         23    2    1    2    0    0  0.15399982897E+02  0.15899219074E+02  0.50724883786E+00  0.94090794144E+02  0.91448759427E+02 0.  0.
          5    1    4    4  502    0  0.49273731922E+02  0.29110949723E+02 -0.14086564217E+00  0.57423496014E+02  0.47000000000E+01 0. -1.
         -5    1    4    4    0  502 -0.33873749025E+02 -0.13211730649E+02  0.64811448003E+00  0.36667298130E+02  0.47000000000E+01 0.  1.
          5    1    3    3  503    0  0.25073608681E+02  0.25681067800E+02 -0.41524175729E+02  0.55086752179E+02  0.47000000000E+01 0. -1.
         -5    1    3    3    0  503 -0.40473591578E+02 -0.41580286875E+02 -0.11200052281E+03  0.12622693446E+03  0.47000000000E+01 0.  1.
<mgrwt>
<rscale>  0 0.95862929E+02</rscale>
<asrwt>0</asrwt>
<pdfrwt beam="1">  1        2 0.32955533E-01 0.96461494E+02</pdfrwt>
<pdfrwt beam="2">  1       -2 0.94143872E-02 0.96461494E+02</pdfrwt>
<totfact> 0.10571695E+04</totfact>
</mgrwt>
</event>
<event>
 8    1  0.6396648E-004  0.1012683E+03  0.7546771E-02  0.1278356E+00
         -1   -1    0    0    0  501 -0.00000000000E+00  0.00000000000E+00  0.35689889069E+02  0.35689889069E+02  0.00000000000E+00 0.  1.
          1   -1    0    0  501    0  0.00000000000E+00 -0.00000000000E+00 -0.42393050915E+03  0.42393050915E+03  0.00000000000E+00 0. -1.
         23    2    1    2    0    0  0.74368671199E+01  0.43521257604E+02 -0.60988484227E+02  0.11705765298E+03  0.89629749841E+02 0.  0.
         23    2    1    2    0    0 -0.74368671199E+01 -0.43521257604E+02 -0.32725213586E+03  0.34256274524E+03  0.91136530275E+02 0.  0.
          5    1    4    4  502    0  0.13360848837E+02 -0.58400771206E+02 -0.29537759710E+03  0.30142856074E+03  0.47000000000E+01 0. -1.
         -5    1    3    3    0  503  0.46553829538E+02  0.35122040897E+02 -0.44605138982E+02  0.73569866284E+02  0.47000000000E+01 0.  1.
          5    1    3    3  503    0 -0.39116962419E+02  0.83992167067E+01 -0.16383345245E+02  0.43487786694E+02  0.47000000000E+01 0. -1.
         -5    1    4    4    0  502 -0.20797715957E+02  0.14879513602E+02 -0.31874538751E+02  0.41134184502E+02  0.47000000000E+01 0.  1.
<mgrwt>
<rscale>  0 0.10092815E+03</rscale>
<asrwt>0</asrwt>
<pdfrwt beam="1">  1        1 0.65220082E-01 0.10126833E+03</pdfrwt>
<pdfrwt beam="2">  1       -1 0.54907519E-02 0.10126833E+03</pdfrwt>
<totfact> 0.80168684E+03</totfact>
</mgrwt>
</event>
<event>
 8    1  0.6396648E-004  0.9881847E+02  0.7546771E-02  0.1283007E+00
          1   -1    0    0  501    0  0.00000000000E+00  0.00000000000E+00  0.12032338062E+03  0.12032338062E+03  0.00000000000E+00 0. -1.
         -1   -1    0    0    0  501 -0.00000000000E+00 -0.00000000000E+00 -0.25189661536E+03  0.25189661536E+03  0.00000000000E+00 0.  1.
         23    2    1    2    0    0  0.18542672312E+02 -0.29450264425E+02  0.87537842251E+02  0.13201501236E+03  0.92487517485E+02 0.  0.
         23    2    1    2    0    0 -0.18542672312E+02  0.29450264425E+02 -0.21911107700E+03  0.24020498362E+03  0.92073999177E+02 0.  0.
          5    1    4    4  502    0 -0.54025350372E+02  0.43135672313E+01 -0.13060046768E+03  0.14147762192E+03  0.47000000000E+01 0. -1.
         -5    1    3    3    0  503 -0.46899362761E+01  0.31792660085E+02  0.21940047137E+02  0.39194698696E+02  0.47000000000E+01 0.  1.
          5    1    3    3  503    0  0.23232608588E+02 -0.61242924509E+02  0.65597795114E+02  0.92820313660E+02  0.47000000000E+01 0. -1.
         -5    1    4    4    0  502  0.35482678060E+02  0.25136697194E+02 -0.88510609315E+02  0.98727361706E+02  0.47000000000E+01 0.  1.
<mgrwt>
<rscale>  0 0.98721596E+02</rscale>
<asrwt>0</asrwt>
<pdfrwt beam="1">  1        1 0.18511289E-01 0.98818468E+02</pdfrwt>
<pdfrwt beam="2">  1       -1 0.38753325E-01 0.98818468E+02</pdfrwt>
<totfact> 0.17789802E+03</totfact>
</mgrwt>
</event>
<event>
 8    1  0.6396648E-004  0.9485822E+02  0.7546771E-02  0.1291664E+00
          1   -1    0    0  501    0  0.00000000000E+00  0.00000000000E+00  0.90522650935E+02  0.90522650935E+02  0.00000000000E+00 0. -1.
         -1   -1    0    0    0  501 -0.00000000000E+00 -0.00000000000E+00 -0.15303524124E+03  0.15303524124E+03  0.00000000000E+00 0.  1.
         23    2    1    2    0    0 -0.22165039688E+02  0.77767120088E+01  0.41077681826E+02  0.10309783758E+03  0.91597062923E+02 0.  0.
         23    2    1    2    0    0  0.22165039688E+02 -0.77767120088E+01 -0.10359027213E+03  0.14046005459E+03  0.91903842257E+02 0.  0.
          5    1    3    3  502    0 -0.36886308332E+02 -0.26387916646E+02  0.46599917321E+02  0.65196350984E+02  0.47000000000E+01 0. -1.
         -5    1    3    3    0  502  0.14721268643E+02  0.34164628655E+02 -0.55222354950E+01  0.37901486600E+02  0.47000000000E+01 0.  1.
          5    1    4    4  503    0  0.53359835455E+02 -0.74741393996E+00 -0.33254666340E+02  0.63053893620E+02  0.47000000000E+01 0. -1.
         -5    1    4    4    0  503 -0.31194795766E+02 -0.70292980688E+01 -0.70335605793E+02  0.77406160972E+02  0.47000000000E+01 0.  1.
<mgrwt>
<rscale>  0 0.94783837E+02</rscale>
<asrwt>0</asrwt>
<pdfrwt beam="1">  1        1 0.13926562E-01 0.94858223E+02</pdfrwt>
<pdfrwt beam="2">  1       -1 0.23543883E-01 0.94858223E+02</pdfrwt>
<totfact> 0.58594909E+03</totfact>
</mgrwt>
</event>
<event>
 8    1  0.6396648E-004  0.9373510E+02  0.7546771E-02  0.1294399E+00
         -1   -1    0    0    0  501 -0.00000000000E+00  0.00000000000E+00  0.45161803407E+03  0.45161803407E+03  0.00000000000E+00 0.  1.
          1   -1    0    0  501    0  0.00000000000E+00 -0.00000000000E+00 -0.20406904964E+02  0.20406904964E+02  0.00000000000E+00 0. -1.
         23    2    1    2    0    0 -0.85392126281E+01  0.79508543796E+01  0.16072080439E+03  0.18575358963E+03  0.92396346573E+02 0.  0.
         23    2    1    2    0    0  0.85392126281E+01 -0.79508543796E+01  0.27049032472E+03  0.28627134940E+03  0.93006104560E+02 0.  0.
          5    1    3    3  502    0 -0.40033803608E+02 -0.11350956901E+02  0.13270306087E+03  0.13915366333E+03  0.47000000000E+01 0. -1.
         -5    1    3    3    0  502  0.31494590980E+02  0.19301811280E+02  0.28017743526E+02  0.46599926309E+02  0.47000000000E+01 0.  1.
          5    1    4    4  503    0 -0.14366904480E+02  0.29616884936E+02  0.42170566429E+02  0.53703021243E+02  0.47000000000E+01 0. -1.
         -5    1    4    4    0  503  0.22906117108E+02 -0.37567739316E+02  0.22831975829E+03  0.23256832816E+03  0.47000000000E+01 0.  1.
<mgrwt>
<rscale>  0 0.93583490E+02</rscale>
<asrwt>0</asrwt>
<pdfrwt beam="1">  1        1 0.31395242E-02 0.93735104E+02</pdfrwt>
<pdfrwt beam="2">  1       -1 0.69479690E-01 0.93735104E+02</pdfrwt>
<totfact> 0.64045504E+03</totfact>
</mgrwt>
</event>
<event>
 8    1  0.6396648E-004  0.1063488E+03  0.7546771E-02  0.1275679E+00
          1   -1    0    0  501    0  0.00000000000E+00  0.00000000000E+00  0.17043056910E+03  0.17043056910E+03  0.00000000000E+00 0. -1.
         -1   -1    0    0    0  501 -0.00000000000E+00 -0.00000000000E+00 -0.13752520112E+03  0.13752520112E+03  0.00000000000E+00 0.  1.
         23    2    1    2    0    0  0.14258411696E+02  0.15962679059E+02 -0.10174699674E+03  0.13637099967E+03  0.88241083278E+02 0.  0.
         23    2    1    2    0    0 -0.14258411696E+02 -0.15962679059E+02  0.13465236471E+03  0.17158477056E+03  0.10417276390E+03 0.  0.
          5    1    4    4  502    0  0.17916154095E+02 -0.20747225943E+02  0.13587856044E+03  0.13869574308E+03  0.47000000000E+01 0. -1.
         -5    1    4    4    0  502 -0.32174565791E+02  0.47845468843E+01 -0.12261957252E+01  0.32889027481E+02  0.47000000000E+01 0.  1.
          5    1    3    3  503    0 -0.33046702837E+02 -0.80624768923E+01 -0.58182117597E+02  0.67559876481E+02  0.47000000000E+01 0. -1.
         -5    1    3    3    0  503  0.47305114533E+02  0.24025155951E+02 -0.43564879139E+02  0.68811123184E+02  0.47000000000E+01 0.  1.
<mgrwt>
<rscale>  0 0.10222820E+03</rscale>
<asrwt>0</asrwt>
<pdfrwt beam="1">  1        1 0.26220087E-01 0.10634883E+03</pdfrwt>
<pdfrwt beam="2">  1       -1 0.21157723E-01 0.10634883E+03</pdfrwt>
<totfact> 0.31525514E+03</totfact>
</mgrwt>
</event>
<event>
 8    1  0.6396648E-004  0.1004645E+03  0.7546771E-02  0.1280502E+00
         -2   -1    0    0    0  501 -0.00000000000E+00  0.00000000000E+00  0.61646634649E+02  0.61646634649E+02  0.00000000000E+00 0.  1.
          2   -1    0    0  501    0  0.00000000000E+00 -0.00000000000E+00 -0.54297668632E+03  0.54297668632E+03  0.00000000000E+00 0. -1.
         23    2    1    2    0    0 -0.34903278613E+02  0.72717250771E+01  0.13982780245E+02  0.99224548507E+02  0.91536200705E+02 0.  0.
         23    2    1    2    0    0  0.34903278613E+02 -0.72717250771E+01 -0.49531283192E+03  0.50539877246E+03  0.93925507191E+02 0.  0.
          5    1    4    4  502    0 -0.94590574441E+00 -0.40801449860E+02 -0.33931882570E+03  0.34179673568E+03  0.47000000000E+01 0. -1.
         -5    1    4    4    0  502  0.35849184357E+02  0.33529724783E+02 -0.15599400622E+03  0.16360203679E+03  0.47000000000E+01 0.  1.
          5    1    3    3  503    0 -0.45330164796E+01 -0.37493371600E+02 -0.10766597195E+02  0.39551368718E+02  0.47000000000E+01 0. -1.
         -5    1    3    3    0  503 -0.30370262134E+02  0.44765096677E+02  0.24749377439E+02  0.59673179789E+02  0.47000000000E+01 0.  1.
<mgrwt>
<rscale>  0 0.99902275E+02</rscale>
<asrwt>0</asrwt>
<pdfrwt beam="1">  1        2 0.83534876E-01 0.10046451E+03</pdfrwt>
<pdfrwt beam="2">  1       -2 0.94840976E-02 0.10046451E+03</pdfrwt>
<totfact> 0.39113806E+03</totfact>
</mgrwt>
</event>
<event>
 8    1  0.6396648E-004  0.1006691E+03  0.7546771E-02  0.1279369E+00
         -2   -1    0    0    0  501 -0.00000000000E+00  0.00000000000E+00  0.43127233996E+02  0.43127233996E+02  0.00000000000E+00 0.  1.
          2   -1    0    0  501    0  0.00000000000E+00 -0.00000000000E+00 -0.36472956050E+03  0.36472956050E+03  0.00000000000E+00 0. -1.
         23    2    1    2    0    0 -0.10669978389E+02 -0.41563219830E+02 -0.38653382607E+02  0.10783482139E+03  0.91065443696E+02 0.  0.
         23    2    1    2    0    0  0.10669978389E+02  0.41563219830E+02 -0.28294894389E+03  0.30002197310E+03  0.90065142053E+02 0.  0.
          5    1    3    3  502    0  0.29592491267E+02  0.35573715667E+01 -0.36205267220E+02  0.47130476407E+02  0.47000000000E+01 0. -1.
         -5    1    3    3    0  502 -0.40262469655E+02 -0.45120591397E+02 -0.24481153863E+01  0.60704344982E+02  0.47000000000E+01 0.  1.
          5    1    4    4  503    0  0.47724021935E+02  0.39139301416E+02 -0.18960532846E+03  0.19945359802E+03  0.47000000000E+01 0. -1.
         -5    1    4    4    0  503 -0.37054043546E+02  0.24239184139E+01 -0.93343615437E+02  0.10056837508E+03  0.47000000000E+01 0.  1.
<mgrwt>
<rscale>  0 0.10044233E+03</rscale>
<asrwt>0</asrwt>
<pdfrwt beam="1">  1        2 0.56112241E-01 0.10066909E+03</pdfrwt>
<pdfrwt beam="2">  1       -2 0.66349590E-02 0.10066909E+03</pdfrwt>
<totfact> 0.10354504E+04</totfact>
</mgrwt>
</event>
<event>
 8    1  0.6396648E-004  0.9423639E+02  0.7546771E-02  0.1297435E+00
          1   -1    0    0  501    0  0.00000000000E+00  0.00000000000E+00  0.19594341621E+03  0.19594341621E+03  0.00000000000E+00 0. -1.
         -1   -1    0    0    0  501 -0.00000000000E+00 -0.00000000000E+00 -0.64107991859E+02  0.64107991859E+02  0.00000000000E+00 0.  1.
         23    2    1    2    0    0  0.24878378477E+01  0.57634987564E+01 -0.12650584730E+02  0.87550093361E+02  0.86403554895E+02 0.  0.
         23    2    1    2    0    0 -0.24878378477E+01 -0.57634987564E+01  0.14448600908E+03  0.17250131471E+03  0.94027067917E+02 0.  0.
          5    1    3    3  502    0 -0.40722968283E+02 -0.63815269977E+01 -0.52808195994E+01  0.41821777679E+02  0.47000000000E+01 0. -1.
         -5    1    3    3    0  502  0.43210806131E+02  0.12145025754E+02 -0.73697651303E+01  0.45728315682E+02  0.47000000000E+01 0.  1.
          5    1    4    4  503    0 -0.46199578534E+02 -0.13941468730E+02  0.87824878198E+02  0.10031981279E+03  0.47000000000E+01 0. -1.
         -5    1    4    4    0  503  0.43711740687E+02  0.81779699741E+01  0.56661130886E+02  0.72181501924E+02  0.47000000000E+01 0.  1.
<mgrwt>
<rscale>  0 0.92274707E+02</rscale>
<asrwt>0</asrwt>
<pdfrwt beam="1">  1        1 0.30145141E-01 0.94236388E+02</pdfrwt>
<pdfrwt beam="2">  1       -1 0.98627680E-02 0.94236388E+02</pdfrwt>
<totfact> 0.86039766E+03</totfact>
</mgrwt>
</event>
<event>
 8    1  0.6396648E-004  0.1128466E+03  0.7546771E-02  0.1256334E+00
         -2   -1    0    0    0  501 -0.00000000000E+00  0.00000000000E+00  0.16710125967E+03  0.16710125967E+03  0.00000000000E+00 0.  1.
          2   -1    0    0  501    0  0.00000000000E+00 -0.00000000000E+00 -0.10653988352E+03  0.10653988352E+03  0.00000000000E+00 0. -1.
         23    2    1    2    0    0  0.38023391118E+02 -0.51177042035E+02 -0.44596074502E+02  0.11939312490E+03  0.90559596448E+02 0.  0.
         23    2    1    2    0    0 -0.38023391118E+02  0.51177042035E+02  0.10515745065E+03  0.15424801829E+03  0.93110116612E+02 0.  0.
          5    1    3    3  502    0  0.61120084960E+02 -0.16977439045E+02 -0.81372823910E+01  0.64126465572E+02  0.47000000000E+01 0. -1.
         -5    1    3    3    0  502 -0.23096693842E+02 -0.34199602991E+02 -0.36458792111E+02  0.55266659329E+02  0.47000000000E+01 0.  1.
          5    1    4    4  503    0 -0.14261572435E+02 -0.21972736702E+02  0.58239431061E+02  0.64032139873E+02  0.47000000000E+01 0. -1.
         -5    1    4    4    0  503 -0.23761818683E+02  0.73149778737E+02  0.46918019593E+02  0.90215878419E+02  0.47000000000E+01 0.  1.
<mgrwt>
<rscale>  0 0.11231918E+03</rscale>
<asrwt>0</asrwt>
<pdfrwt beam="1">  1        2 0.16390751E-01 0.11284663E+03</pdfrwt>
<pdfrwt beam="2">  1       -2 0.25707886E-01 0.11284663E+03</pdfrwt>
<totfact> 0.44733534E+03</totfact>
</mgrwt>
</event>
<event>
 8    1  0.6396648E-004  0.1181042E+03  0.7546771E-02  0.1248838E+00
          1   -1    0    0  501    0  0.00000000000E+00  0.00000000000E+00  0.41889845657E+02  0.41889845657E+02  0.00000000000E+00 0. -1.
         -1   -1    0    0    0  501 -0.00000000000E+00 -0.00000000000E+00 -0.42227687585E+03  0.42227687585E+03  0.00000000000E+00 0.  1.
         23    2    1    2    0    0  0.15356906679E+02 -0.71001617590E+02 -0.31006425705E+03  0.33179578353E+03  0.93121072726E+02 0.  0.
         23    2    1    2    0    0 -0.15356906679E+02  0.71001617590E+02 -0.70322773143E+02  0.13237093798E+03  0.85438331650E+02 0.  0.
          5    1    4    4  502    0 -0.30607446892E+02  0.22616276617E+02  0.77725460332E+01  0.39125621338E+02  0.47000000000E+01 0. -1.
         -5    1    3    3    0  503 -0.99497342507E+00 -0.91369928686E+02 -0.23552781026E+03  0.25267547021E+03  0.47000000000E+01 0.  1.
          5    1    3    3  503    0  0.16351880104E+02  0.20368311096E+02 -0.74536446789E+02  0.79120313320E+02  0.47000000000E+01 0. -1.
         -5    1    4    4    0  502  0.15250540212E+02  0.48385340972E+02 -0.78095319176E+02  0.93245316638E+02  0.47000000000E+01 0.  1.
<mgrwt>
<rscale>  0 0.11658565E+03</rscale>
<asrwt>0</asrwt>
<pdfrwt beam="1">  1        1 0.64445915E-02 0.11810418E+03</pdfrwt>
<pdfrwt beam="2">  1       -1 0.64965674E-01 0.11810418E+03</pdfrwt>
<totfact> 0.27890227E+03</totfact>
</mgrwt>
</event>
<event>
 8    1  0.6396648E-004  0.1053205E+03  0.7546771E-02  0.1272434E+00
          2   -1    0    0  501    0  0.00000000000E+00  0.00000000000E+00  0.23112518238E+03  0.23112518238E+03  0.00000000000E+00 0. -1.
         -2   -1    0    0    0  501 -0.00000000000E+00 -0.00000000000E+00 -0.85870567011E+02  0.85870567011E+02  0.00000000000E+00 0.  1.
         23    2    1    2    0    0  0.37378851464E+02 -0.13326807187E+02 -0.37281245270E+02  0.10625477684E+03  0.91243651981E+02 0.  0.
         23    2    1    2    0    0 -0.37378851464E+02  0.13326807187E+02  0.18253586064E+03  0.21074097255E+03  0.97558365934E+02 0.  0.
          5    1    4    4  502    0 -0.25535461567E+02 -0.70194709102E+01  0.18468954356E+03  0.18663775146E+03  0.47000000000E+01 0. -1.
         -5    1    4    4    0  502 -0.11843389897E+02  0.20346278097E+02 -0.21536829203E+01  0.24103221087E+02  0.47000000000E+01 0.  1.
          5    1    3    3  503    0 -0.85095615705E+01 -0.41411038766E+02 -0.37843530440E+01  0.42704778395E+02  0.47000000000E+01 0. -1.
         -5    1    3    3    0  503  0.45888413035E+02  0.28084231579E+02 -0.33496892226E+02  0.63549998450E+02  0.47000000000E+01 0.  1.
<mgrwt>
<rscale>  0 0.10383416E+03</rscale>
<asrwt>0</asrwt>
<pdfrwt beam="1">  1        2 0.35557720E-01 0.10532054E+03</pdfrwt>
<pdfrwt beam="2">  1       -2 0.13210857E-01 0.10532054E+03</pdfrwt>
<totfact> 0.57596465E+03</totfact>
</mgrwt>
</event>
<event>
 8    1  0.6396648E-004  0.1146536E+03  0.7546771E-02  0.1253928E+00
          2   -1    0    0  501    0  0.00000000000E+00  0.00000000000E+00  0.19861652473E+03  0.19861652473E+03  0.00000000000E+00 0. -1.
         -2   -1    0    0    0  501 -0.00000000000E+00 -0.00000000000E+00 -0.63957805298E+02  0.63957805298E+02  0.00000000000E+00 0.  1.
         23    2    1    2    0    0  0.69013867085E+02  0.69334854222E+01  0.67393809590E+02  0.12964568098E+03  0.86342862801E+02 0.  0.
         23    2    1    2    0    0 -0.69013867085E+02 -0.69334854222E+01  0.67264909839E+02  0.13292864904E+03  0.91293321607E+02 0.  0.
          5    1    3    3  502    0  0.88981467680E+02  0.33900987782E+00  0.52062716997E+02  0.10320093517E+03  0.47000000000E+01 0. -1.
         -5    1    4    4    0  503 -0.23157997536E+02  0.33157495382E+02 -0.17570162838E+01  0.40754011533E+02  0.47000000000E+01 0.  1.
          5    1    4    4  503    0 -0.45855869550E+02 -0.40090980804E+02  0.69021926123E+02  0.92174637507E+02  0.47000000000E+01 0. -1.
         -5    1    3    3    0  502 -0.19967600595E+02  0.65944755444E+01  0.15331092594E+02  0.26444745817E+02  0.47000000000E+01 0.  1.
<mgrwt>
<rscale>  0 0.11366561E+03</rscale>
<asrwt>0</asrwt>
<pdfrwt beam="1">  1        2 0.30556388E-01 0.11465364E+03</pdfrwt>
<pdfrwt beam="2">  1       -2 0.98396625E-02 0.11465364E+03</pdfrwt>
<totfact> 0.10861509E+04</totfact>
</mgrwt>
</event>
<event>
 8    1  0.6396648E-004  0.9963866E+02  0.7546771E-02  0.1282030E+00
         -1   -1    0    0    0  501 -0.00000000000E+00  0.00000000000E+00  0.67323645982E+02  0.67323645982E+02  0.00000000000E+00 0.  1.
          1   -1    0    0  501    0  0.00000000000E+00 -0.00000000000E+00 -0.25083801487E+03  0.25083801487E+03  0.00000000000E+00 0. -1.
         23    2    1    2    0    0  0.22876681895E+02  0.28373426434E+02  0.11192864103E+02  0.10026536408E+03  0.92733322628E+02 0.  0.
         23    2    1    2    0    0 -0.22876681895E+02 -0.28373426434E+02 -0.19470723299E+03  0.21789629677E+03  0.90771667745E+02 0.  0.
          5    1    3    3  502    0 -0.25018655318E+02  0.41936172437E+02  0.13866573718E+00  0.49057974895E+02  0.47000000000E+01 0. -1.
         -5    1    4    4    0  503 -0.19655986786E+00  0.22279415313E+02 -0.98129330248E+01  0.24795052672E+02  0.47000000000E+01 0.  1.
          5    1    4    4  503    0 -0.22680122027E+02 -0.50652841747E+02 -0.18489429997E+03  0.19310124410E+03  0.47000000000E+01 0. -1.
         -5    1    3    3    0  502  0.47895337213E+02 -0.13562746003E+02  0.11054198366E+02  0.51207389188E+02  0.47000000000E+01 0.  1.
<mgrwt>
<rscale>  0 0.99179733E+02</rscale>
<asrwt>0</asrwt>
<pdfrwt beam="1">  1        1 0.38590464E-01 0.99638662E+02</pdfrwt>
<pdfrwt beam="2">  1       -1 0.10357484E-01 0.99638662E+02</pdfrwt>
<totfact> 0.59276939E+03</totfact>
</mgrwt>
</event>
<event>
 8    1  0.6396648E-004  0.1022934E+03  0.7546771E-02  0.1277268E+00
         -1   -1    0    0    0  501 -0.00000000000E+00  0.00000000000E+00  0.28269557308E+02  0.28269557308E+02  0.00000000000E+00 0.  1.
          1   -1    0    0  501    0  0.00000000000E+00 -0.00000000000E+00 -0.59309182662E+03  0.59309182662E+03  0.00000000000E+00 0. -1.
         23    2    1    2    0    0 -0.26168122145E+02 -0.32475074713E+02 -0.84117099542E+02  0.12989276540E+03  0.89761032597E+02 0.  0.
         23    2    1    2    0    0  0.26168122145E+02  0.32475074713E+02 -0.48070516977E+03  0.49146861853E+03  0.93405255007E+02 0.  0.
          5    1    3    3  502    0 -0.58579906111E+02 -0.24348687487E+02 -0.43384186145E+02  0.76998321993E+02  0.47000000000E+01 0. -1.
         -5    1    4    4    0  503  0.41699846650E+02 -0.91561863594E+01 -0.11012703754E+03  0.11820646073E+03  0.47000000000E+01 0.  1.
          5    1    4    4  503    0 -0.15531724505E+02  0.41631261072E+02 -0.37057813223E+03  0.37326215781E+03  0.47000000000E+01 0. -1.
         -5    1    3    3    0  502  0.32411783966E+02 -0.81263872259E+01 -0.40732913397E+02  0.52894443404E+02  0.47000000000E+01 0.  1.
<mgrwt>
<rscale>  0 0.10145403E+03</rscale>
<asrwt>0</asrwt>
<pdfrwt beam="1">  1        1 0.91244900E-01 0.10229342E+03</pdfrwt>
<pdfrwt beam="2">  1       -1 0.43491625E-02 0.10229342E+03</pdfrwt>
<totfact> 0.73138839E+03</totfact>
</mgrwt>
</event>
<event>
 8    1  0.6396648E-004  0.1151832E+03  0.7546771E-02  0.1251605E+00
         -1   -1    0    0    0  501 -0.00000000000E+00  0.00000000000E+00  0.51816008816E+03  0.51816008816E+03  0.00000000000E+00 0.  1.
          1   -1    0    0  501    0  0.00000000000E+00 -0.00000000000E+00 -0.30613994727E+02  0.30613994727E+02  0.00000000000E+00 0. -1.
         23    2    1    2    0    0  0.24452438856E+02 -0.66297205904E+02  0.35599159795E+03  0.37392054749E+03  0.89962863174E+02 0.  0.
         23    2    1    2    0    0 -0.24452438856E+02  0.66297205904E+02  0.13155449549E+03  0.17485353539E+03  0.90961158089E+02 0.  0.
          5    1    3    3  502    0  0.17639605609E+02  0.16531289062E+02  0.38540632474E+02  0.45737397779E+02  0.47000000000E+01 0. -1.
         -5    1    3    3    0  502  0.68128332462E+01 -0.82828494966E+02  0.31745096547E+03  0.32818314971E+03  0.47000000000E+01 0.  1.
          5    1    4    4  503    0 -0.20128429601E+02 -0.53680154732E+01 -0.36801410192E+01  0.21670318554E+02  0.47000000000E+01 0. -1.
         -5    1    4    4    0  503 -0.43240092546E+01  0.71665221377E+02  0.13523463650E+03  0.15318321684E+03  0.47000000000E+01 0.  1.
<mgrwt>
<rscale>  0 0.11498603E+03</rscale>
<asrwt>0</asrwt>
<pdfrwt beam="1">  1        1 0.47098457E-02 0.11518322E+03</pdfrwt>
<pdfrwt beam="2">  1       -1 0.79716930E-01 0.11518322E+03</pdfrwt>
<totfact> 0.28410575E+03</totfact>
</mgrwt>
</event>
<event>
 8    1  0.6396648E-004  0.9304658E+02  0.7546771E-02  0.1296413E+00
          1   -1    0    0  501    0  0.00000000000E+00  0.00000000000E+00  0.11152751845E+03  0.11152751845E+03  0.00000000000E+00 0. -1.
         -1   -1    0    0    0  501 -0.00000000000E+00 -0.00000000000E+00 -0.78587600065E+02  0.78587600065E+02  0.00000000000E+00 0.  1.
         23    2    1    2    0    0  0.43895049438E+01 -0.92517354972E+01  0.94776911153E+00  0.91722212890E+02  0.91143862700E+02 0.  0.
         23    2    1    2    0    0 -0.43895049438E+01  0.92517354972E+01  0.31992149276E+02  0.98392905627E+02  0.92481370552E+02 0.  0.
          5    1    3    3  502    0 -0.39493225622E+02 -0.22596560459E+01  0.18234170438E+02  0.43810910593E+02  0.47000000000E+01 0. -1.
         -5    1    3    3    0  502  0.43882730566E+02 -0.69920794513E+01 -0.17286401326E+02  0.47911302297E+02  0.47000000000E+01 0.  1.
          5    1    4    4  503    0  0.20540667057E+02  0.11687175406E+02  0.57494001209E+02  0.62339066781E+02  0.47000000000E+01 0. -1.
         -5    1    4    4    0  503 -0.24930172001E+02 -0.24354399090E+01 -0.25501851933E+02  0.36053838846E+02  0.47000000000E+01 0.  1.
<mgrwt>
<rscale>  0 0.92712470E+02</rscale>
<asrwt>0</asrwt>
<pdfrwt beam="1">  1        1 0.17158080E-01 0.93046581E+02</pdfrwt>
<pdfrwt beam="2">  1       -1 0.12090400E-01 0.93046581E+02</pdfrwt>
<totfact> 0.12742506E+04</totfact>
</mgrwt>
</event>
<event>
 8    1  0.6396648E-004  0.9717204E+02  0.7546771E-02  0.1289985E+00
          1   -1    0    0  501    0  0.00000000000E+00  0.00000000000E+00  0.72879033571E+03  0.72879033571E+03  0.00000000000E+00 0. -1.
         -1   -1    0    0    0  501 -0.00000000000E+00 -0.00000000000E+00 -0.22290643272E+02  0.22290643272E+02  0.00000000000E+00 0.  1.
         23    2    1    2    0    0 -0.70297048100E+01 -0.10692702831E+02  0.60033894585E+03  0.60716256705E+03  0.89865356431E+02 0.  0.
         23    2    1    2    0    0  0.70297048100E+01  0.10692702831E+02  0.10616074659E+03  0.14391841193E+03  0.96325772939E+02 0.  0.
          5    1    3    3  502    0 -0.32667575177E+01  0.39080271095E+02  0.21782251180E+03  0.22137451511E+03  0.47000000000E+01 0.  1.
         -5    1    3    3    0  502 -0.37629472923E+01 -0.49772973926E+02  0.38251643405E+03  0.38578805194E+03  0.47000000000E+01 0. -1.
          5    1    4    4  503    0 -0.27828922730E+02 -0.16444180067E+02  0.91469430109E+02  0.97126755545E+02  0.47000000000E+01 0. -1.
         -5    1    4    4    0  503  0.34858627540E+02  0.27136882898E+02  0.14691316485E+02  0.46791656387E+02  0.47000000000E+01 0.  1.
<mgrwt>
<rscale>  0 0.95530887E+02</rscale>
<asrwt>0</asrwt>
<pdfrwt beam="1">  1        1 0.11212157E+00 0.97172039E+02</pdfrwt>
<pdfrwt beam="2">  1       -1 0.34293303E-02 0.97172039E+02</pdfrwt>
<totfact> 0.77437595E+03</totfact>
</mgrwt>
</event>
<event>
 8    1  0.6396648E-004  0.1034258E+03  0.7546771E-02  0.1274039E+00
          1   -1    0    0  501    0  0.00000000000E+00  0.00000000000E+00  0.11573010979E+04  0.11573010979E+04  0.00000000000E+00 0. -1.
         -1   -1    0    0    0  501 -0.00000000000E+00 -0.00000000000E+00 -0.91072664166E+01  0.91072664166E+01  0.00000000000E+00 0.  1.
         23    2    1    2    0    0 -0.31302418973E+02  0.36653102901E+02  0.58806235067E+03  0.59708811420E+03  0.91507357375E+02 0.  0.
         23    2    1    2    0    0  0.31302418973E+02 -0.36653102901E+02  0.56013148082E+03  0.56932025012E+03  0.89749540459E+02 0.  0.
          5    1    3    3  502    0 -0.48637447501E+02 -0.51959435776E+01  0.18331933067E+03  0.18979111182E+03  0.47000000000E+01 0. -1.
         -5    1    4    4    0  503  0.15900565317E+02 -0.52626823031E+02  0.52232829060E+03  0.52523456059E+03  0.47000000000E+01 0.  1.
          5    1    4    4  503    0  0.15401853656E+02  0.15973720130E+02  0.37803190217E+02  0.44085689531E+02  0.47000000000E+01 0. -1.
         -5    1    3    3    0  502  0.17335028528E+02  0.41849046478E+02  0.40474302000E+03  0.40729700238E+03  0.47000000000E+01 0.  1.
<mgrwt>
<rscale>  0 0.10303557E+03</rscale>
<asrwt>0</asrwt>
<pdfrwt beam="1">  1        1 0.17804621E+00 0.10342576E+03</pdfrwt>
<pdfrwt beam="2">  1       -1 0.14011188E-02 0.10342576E+03</pdfrwt>
<totfact> 0.13383628E+04</totfact>
</mgrwt>
</event>
<event>
 8    1  0.6396648E-004  0.9342195E+02  0.7546771E-02  0.1294957E+00
         -4   -1    0    0    0  501 -0.00000000000E+00  0.00000000000E+00  0.62485934621E+02  0.62485934621E+02  0.00000000000E+00 0. -1.
          4   -1    0    0  501    0  0.00000000000E+00 -0.00000000000E+00 -0.29352436917E+03  0.29352436917E+03  0.00000000000E+00 0.  1.
         23    2    1    2    0    0 -0.12023348415E+01 -0.17678539865E+02  0.13650772994E+02  0.94093391509E+02  0.91396095876E+02 0.  0.
         23    2    1    2    0    0  0.12023348415E+01  0.17678539865E+02 -0.24468920755E+03  0.26191691228E+03  0.91726137334E+02 0.  0.
          5    1    4    4  502    0 -0.54701852763E+01 -0.34484085999E+02 -0.57592739427E+02  0.67513618988E+02  0.47000000000E+01 0. -1.
         -5    1    4    4    0  502  0.66725201179E+01  0.52162625864E+02 -0.18709646812E+03  0.19440329330E+03  0.47000000000E+01 0.  1.
          5    1    3    3  503    0  0.28214581064E+02 -0.40233497958E+02  0.24602839224E+02  0.55156020890E+02  0.47000000000E+01 0. -1.
         -5    1    3    3    0  503 -0.29416915906E+02  0.22554958093E+02 -0.10952066230E+02  0.38937370619E+02  0.47000000000E+01 0.  1.
<mgrwt>
<rscale>  0 0.93340837E+02</rscale>
<asrwt>0</asrwt>
<pdfrwt beam="1">  1        4 0.45157595E-01 0.93421950E+02</pdfrwt>
<pdfrwt beam="2">  1       -4 0.96132209E-02 0.93421950E+02</pdfrwt>
<totfact> 0.59172435E+02</totfact>
</mgrwt>
</event>
<event>
 8    1  0.6396648E-004  0.9768980E+02  0.7546771E-02  0.1286040E+00
          2   -1    0    0  501    0  0.00000000000E+00  0.00000000000E+00  0.48166422931E+03  0.48166422931E+03  0.00000000000E+00 0. -1.
         -2   -1    0    0    0  501 -0.00000000000E+00 -0.00000000000E+00 -0.20461452176E+02  0.20461452176E+02  0.00000000000E+00 0.  1.
         23    2    1    2    0    0  0.14489524519E+02  0.16976333515E+02  0.17826268249E+03  0.20327538333E+03  0.95106021256E+02 0.  0.
         23    2    1    2    0    0 -0.14489524519E+02 -0.16976333515E+02  0.28294009464E+03  0.29885029816E+03  0.93585582918E+02 0.  0.
          5    1    3    3  502    0 -0.40551831186E+02  0.84428968658E+01  0.80857528257E+02  0.90971222899E+02  0.47000000000E+01 0. -1.
         -5    1    4    4    0  503  0.67009975615E+01  0.35457689873E+02  0.75885309899E+02  0.84159499749E+02  0.47000000000E+01 0.  1.
          5    1    4    4  503    0 -0.21190522080E+02 -0.52434023388E+02  0.20705478474E+03  0.21469079841E+03  0.47000000000E+01 0. -1.
         -5    1    3    3    0  502  0.55041355705E+02  0.85334366492E+01  0.97405154234E+02  0.11230416043E+03  0.47000000000E+01 0.  1.
<mgrwt>
<rscale>  0 0.97317783E+02</rscale>
<asrwt>0</asrwt>
<pdfrwt beam="1">  1        2 0.74102181E-01 0.97689802E+02</pdfrwt>
<pdfrwt beam="2">  1       -2 0.31479161E-02 0.97689802E+02</pdfrwt>
<totfact> 0.23237097E+04</totfact>
</mgrwt>
</event>
<event>
 8    1  0.6396648E-004  0.1234713E+03  0.7546771E-02  0.1238397E+00
          1   -1    0    0  501    0  0.00000000000E+00  0.00000000000E+00  0.34648509879E+03  0.34648509879E+03  0.00000000000E+00 0. -1.
         -1   -1    0    0    0  501 -0.00000000000E+00 -0.00000000000E+00 -0.48662676300E+02  0.48662676300E+02  0.00000000000E+00 0.  1.
         23    2    1    2    0    0 -0.66533334858E+02 -0.50362187656E+02  0.21394825333E+03  0.24588280022E+03  0.87871848433E+02 0.  0.
         23    2    1    2    0    0  0.66533334858E+02  0.50362187656E+02  0.83874169163E+02  0.14926497488E+03  0.91006163963E+02 0.  0.
          5    1    4    4  502    0  0.25504267612E+02  0.17875088098E+01  0.81410700045E+02  0.85460253545E+02  0.47000000000E+01 0. -1.
         -5    1    3    3    0  503  0.13052925269E+02 -0.25229329717E+02  0.10312011741E+03  0.10706421695E+03  0.47000000000E+01 0. -1.
          5    1    3    3  503    0 -0.79586260128E+02 -0.25132857939E+02  0.11082813592E+03  0.13881858327E+03  0.47000000000E+01 0.  1.
         -5    1    4    4    0  502  0.41029067246E+02  0.48574678846E+02  0.24634691183E+01  0.63804721331E+02  0.47000000000E+01 0.  1.
<mgrwt>
<rscale>  0 0.12289433E+03</rscale>
<asrwt>0</asrwt>
<pdfrwt beam="1">  1        1 0.53305398E-01 0.12347128E+03</pdfrwt>
<pdfrwt beam="2">  1       -1 0.74865658E-02 0.12347128E+03</pdfrwt>
<totfact> 0.65953994E+03</totfact>
</mgrwt>
</event>
<event>
 8    1  0.6396648E-004  0.9100972E+02  0.7546771E-02  0.1300884E+00
         -3   -1    0    0    0  501 -0.00000000000E+00  0.00000000000E+00  0.98404196028E+02  0.98404196028E+02  0.00000000000E+00 0.  1.
          3   -1    0    0  501    0  0.00000000000E+00 -0.00000000000E+00 -0.87860522754E+02  0.87860522754E+02  0.00000000000E+00 0. -1.
         23    2    1    2    0    0 -0.34532693099E+01 -0.12112579530E+01 -0.15584346847E+02  0.91578696410E+02  0.90168694982E+02 0.  0.
         23    2    1    2    0    0  0.34532693099E+01  0.12112579530E+01  0.26128020120E+02  0.94686022372E+02  0.90936115941E+02 0.  0.
          5    1    3    3  502    0 -0.25678086840E+02 -0.36000500202E+02 -0.21871655760E+02  0.49556629065E+02  0.47000000000E+01 0. -1.
         -5    1    4    4    0  503  0.23659397940E+02 -0.24839519283E+02 -0.18299465001E+02  0.39162855468E+02  0.47000000000E+01 0.  1.
          5    1    4    4  503    0 -0.20206128630E+02  0.26050777236E+02  0.44427485121E+02  0.55523166904E+02  0.47000000000E+01 0. -1.
         -5    1    3    3    0  502  0.22224817530E+02  0.34789242249E+02  0.62873089138E+01  0.42022067345E+02  0.47000000000E+01 0.  1.
<mgrwt>
<rscale>  0 0.90817414E+02</rscale>
<asrwt>0</asrwt>
<pdfrwt beam="1">  1        3 0.13517004E-01 0.91009721E+02</pdfrwt>
<pdfrwt beam="2">  1       -3 0.15139107E-01 0.91009721E+02</pdfrwt>
<totfact> 0.34132114E+03</totfact>
</mgrwt>
</event>
<event>
 8    1  0.6396648E-004  0.1483356E+03  0.7546771E-02  0.1204934E+00
          1   -1    0    0  501    0  0.00000000000E+00  0.00000000000E+00  0.10938403762E+04  0.10938403762E+04  0.00000000000E+00 0. -1.
         -1   -1    0    0    0  501 -0.00000000000E+00 -0.00000000000E+00 -0.19800361580E+02  0.19800361580E+02  0.00000000000E+00 0.  1.
         23    2    1    2    0    0  0.10598135444E+01  0.10704147198E+03  0.62732067824E+03  0.64293741189E+03  0.91532957618E+02 0.  0.
         23    2    1    2    0    0 -0.10598135444E+01 -0.10704147198E+03  0.44671933637E+03  0.47070332588E+03  0.10268619957E+03 0.  0.
          5    1    3    3  502    0  0.30182578832E+02  0.68259239292E+01  0.83497873153E+02  0.89171554453E+02  0.47000000000E+01 0. -1.
         -5    1    4    4    0  503 -0.43899483906E+02 -0.79233709076E+02  0.21453676000E+03  0.23292328508E+03  0.47000000000E+01 0.  1.
          5    1    4    4  503    0  0.42839670361E+02 -0.27807762901E+02  0.23218257637E+03  0.23778004080E+03  0.47000000000E+01 0. -1.
         -5    1    3    3    0  502 -0.29122765288E+02  0.10021554805E+03  0.54382280509E+03  0.55376585744E+03  0.47000000000E+01 0.  1.
<mgrwt>
<rscale>  0 0.14642639E+03</rscale>
<asrwt>0</asrwt>
<pdfrwt beam="1">  1        1 0.16828309E+00 0.14833562E+03</pdfrwt>
<pdfrwt beam="2">  1       -1 0.30462103E-02 0.14833562E+03</pdfrwt>
<totfact> 0.49325320E+03</totfact>
</mgrwt>
</event>
<event>
 8    1  0.6396648E-004  0.9399061E+02  0.7546771E-02  0.1294849E+00
         -1   -1    0    0    0  501 -0.00000000000E+00  0.00000000000E+00  0.39500820938E+02  0.39500820938E+02  0.00000000000E+00 0.  1.
          1   -1    0    0  501    0  0.00000000000E+00 -0.00000000000E+00 -0.22148034408E+03  0.22148034408E+03  0.00000000000E+00 0. -1.
         23    2    1    2    0    0 -0.11848726777E+02  0.13735097289E+02 -0.75785544162E+02  0.12073808080E+03  0.92223588243E+02 0.  0.
         23    2    1    2    0    0  0.11848726777E+02 -0.13735097289E+02 -0.10619397898E+03  0.14024308421E+03  0.89788174469E+02 0.  0.
          5    1    4    4  502    0 -0.22199711417E+02 -0.41413321622E+02 -0.60052341097E+02  0.76395445322E+02  0.47000000000E+01 0. -1.
         -5    1    3    3    0  503  0.38700026436E+02  0.15511286465E+02 -0.24661116949E+02  0.48667779312E+02  0.47000000000E+01 0.  1.
          5    1    3    3  503    0 -0.50548753213E+02 -0.17761891752E+01 -0.51124427213E+02  0.72070301492E+02  0.47000000000E+01 0. -1.
         -5    1    4    4    0  502  0.34048438193E+02  0.27678224332E+02 -0.46141637883E+02  0.63847638892E+02  0.47000000000E+01 0.  1.
<mgrwt>
<rscale>  0 0.93387732E+02</rscale>
<asrwt>0</asrwt>
<pdfrwt beam="1">  1        1 0.34073898E-01 0.93990614E+02</pdfrwt>
<pdfrwt beam="2">  1       -1 0.60770495E-02 0.93990614E+02</pdfrwt>
<totfact> 0.15243803E+04</totfact>
</mgrwt>
</event>
<event>
 8    1  0.6396648E-004  0.9369054E+02  0.7546771E-02  0.1301540E+00
         -1   -1    0    0    0  501 -0.00000000000E+00  0.00000000000E+00  0.22959165884E+03  0.22959165884E+03  0.00000000000E+00 0.  1.
          1   -1    0    0  501    0  0.00000000000E+00 -0.00000000000E+00 -0.69496480668E+02  0.69496480668E+02  0.00000000000E+00 0. -1.
         23    2    1    2    0    0  0.17944760955E+02 -0.76114884131E+01  0.19017812040E+03  0.21200385383E+03  0.91640424260E+02 0.  0.
         23    2    1    2    0    0 -0.17944760955E+02  0.76114884131E+01 -0.30082942229E+02  0.87084285676E+02  0.79364602922E+02 0.  0.
          5    1    3    3  502    0 -0.16169815735E+02  0.16357486534E+02  0.76130739247E+01  0.24679530003E+02  0.47000000000E+01 0. -1.
         -5    1    3    3    0  502  0.34114576690E+02 -0.23968974947E+02  0.18256504648E+03  0.18732432383E+03  0.47000000000E+01 0.  1.
          5    1    4    4  503    0 -0.17609068097E+02  0.34061627484E+02 -0.42546106081E+02  0.57467685605E+02  0.47000000000E+01 0. -1.
         -5    1    4    4    0  503 -0.33569285843E+00 -0.26450139071E+02  0.12463163852E+02  0.29616600071E+02  0.47000000000E+01 0.  1.
<mgrwt>
<rscale>  0 0.90543692E+02</rscale>
<asrwt>0</asrwt>
<pdfrwt beam="1">  1        1 0.10691766E-01 0.93690536E+02</pdfrwt>
<pdfrwt beam="2">  1       -1 0.35321793E-01 0.93690536E+02</pdfrwt>
<totfact> 0.42118994E+03</totfact>
</mgrwt>
</event>
<event>
 8    1  0.6396648E-004  0.1070228E+03  0.7546771E-02  0.1268674E+00
         -2   -1    0    0    0  501 -0.00000000000E+00  0.00000000000E+00  0.23267093021E+02  0.23267093021E+02  0.00000000000E+00 0.  1.
          2   -1    0    0  501    0  0.00000000000E+00 -0.00000000000E+00 -0.48227250286E+03  0.48227250286E+03  0.00000000000E+00 0. -1.
         23    2    1    2    0    0 -0.29036637146E+02  0.36574436789E+02 -0.26551791448E+03  0.28442584758E+03  0.90650339970E+02 0.  0.
         23    2    1    2    0    0  0.29036637146E+02 -0.36574436789E+02 -0.19348749536E+03  0.22111374831E+03  0.96296745045E+02 0.  0.
          5    1    3    3  502    0 -0.55244986728E+02  0.20104334949E+01 -0.18097463563E+03  0.18928803223E+03  0.47000000000E+01 0. -1.
         -5    1    3    3    0  502  0.26208349582E+02  0.34564003294E+02 -0.84543278847E+02  0.95137815351E+02  0.47000000000E+01 0.  1.
          5    1    4    4  503    0 -0.10066447273E+02 -0.58759397258E+02 -0.88514722140E+02  0.10682203032E+03  0.47000000000E+01 0. -1.
         -5    1    4    4    0  503  0.39103084419E+02  0.22184960469E+02 -0.10497277322E+03  0.11429171798E+03  0.47000000000E+01 0.  1.
<mgrwt>
<rscale>  0 0.10573713E+03</rscale>
<asrwt>0</asrwt>
<pdfrwt beam="1">  1        2 0.74195768E-01 0.10702280E+03</pdfrwt>
<pdfrwt beam="2">  1       -2 0.35795528E-02 0.10702280E+03</pdfrwt>
<totfact> 0.19396517E+04</totfact>
</mgrwt>
</event>
<event>
 8    1  0.6396648E-004  0.1029747E+03  0.7546771E-02  0.1274380E+00
          1   -1    0    0  501    0  0.00000000000E+00  0.00000000000E+00  0.16947130614E+03  0.16947130614E+03  0.00000000000E+00 0. -1.
         -1   -1    0    0    0  501 -0.00000000000E+00 -0.00000000000E+00 -0.68384194482E+02  0.68384194482E+02  0.00000000000E+00 0.  1.
         23    2    1    2    0    0 -0.33011150255E+02  0.35283826906E+02  0.85895020305E+02  0.13376618532E+03  0.90447517043E+02 0.  0.
         23    2    1    2    0    0  0.33011150255E+02 -0.35283826906E+02  0.15192091354E+02  0.10408931530E+03  0.90934599788E+02 0.  0.
          5    1    4    4  502    0 -0.23500187941E+02 -0.36663573418E+02  0.17861579201E+02  0.47303302851E+02  0.47000000000E+01 0. -1.
         -5    1    4    4    0  502  0.56511338195E+02  0.13797465123E+01 -0.26694878477E+01  0.56786012454E+02  0.47000000000E+01 0.  1.
          5    1    3    3  503    0 -0.50024140180E+02  0.48870143810E+02  0.35285530695E+02  0.78472060207E+02  0.47000000000E+01 0. -1.
         -5    1    3    3    0  503  0.17012989925E+02 -0.13586316904E+02  0.50609489610E+02  0.55294125111E+02  0.47000000000E+01 0.  1.
<mgrwt>
<rscale>  0 0.10286705E+03</rscale>
<asrwt>0</asrwt>
<pdfrwt beam="1">  1        1 0.26072509E-01 0.10297469E+03</pdfrwt>
<pdfrwt beam="2">  1       -1 0.10520645E-01 0.10297469E+03</pdfrwt>
<totfact> 0.94046158E+03</totfact>
</mgrwt>
</event>
<event>
 8    1  0.6396648E-004  0.9392665E+02  0.7546771E-02  0.1295618E+00
         -1   -1    0    0    0  501 -0.00000000000E+00  0.00000000000E+00  0.25829352292E+03  0.25829352292E+03  0.00000000000E+00 0.  1.
          1   -1    0    0  501    0  0.00000000000E+00 -0.00000000000E+00 -0.34036762397E+02  0.34036762397E+02  0.00000000000E+00 0. -1.
         23    2    1    2    0    0 -0.18249026810E+02  0.97062033031E+01  0.87642552277E+02  0.12846568418E+03  0.91624110797E+02 0.  0.
         23    2    1    2    0    0  0.18249026810E+02 -0.97062033031E+01  0.13661420824E+03  0.16386460114E+03  0.88096130731E+02 0.  0.
          5    1    3    3  502    0  0.25317890854E+02 -0.67055056947E+01  0.75603598664E+02  0.80149569773E+02  0.47000000000E+01 0. -1.
         -5    1    3    3    0  502 -0.43566917664E+02  0.16411708998E+02  0.12038953613E+02  0.48316114403E+02  0.47000000000E+01 0.  1.
          5    1    4    4  503    0  0.13363130855E+01  0.23386655811E+02  0.18187710021E+01  0.23960787354E+02  0.47000000000E+01 0. -1.
         -5    1    4    4    0  503  0.16912713724E+02 -0.33092859114E+02  0.13479543724E+03  0.13990381378E+03  0.47000000000E+01 0.  1.
<mgrwt>
<rscale>  0 0.93055049E+02</rscale>
<asrwt>0</asrwt>
<pdfrwt beam="1">  1        1 0.52364252E-02 0.93926647E+02</pdfrwt>
<pdfrwt beam="2">  1       -1 0.39737464E-01 0.93926647E+02</pdfrwt>
<totfact> 0.88899643E+03</totfact>
</mgrwt>
</event>
<event>
 8    1  0.6396648E-004  0.1166146E+03  0.7546771E-02  0.1248893E+00
          2   -1    0    0  501    0  0.00000000000E+00  0.00000000000E+00  0.10317052062E+04  0.10317052062E+04  0.00000000000E+00 0. -1.
         -2   -1    0    0    0  501 -0.00000000000E+00 -0.00000000000E+00 -0.16309818228E+02  0.16309818228E+02  0.00000000000E+00 0.  1.
         23    2    1    2    0    0 -0.29467977827E+02 -0.65044502740E+02  0.27675416428E+03  0.30022505975E+03  0.91886179614E+02 0.  0.
         23    2    1    2    0    0  0.29467977827E+02  0.65044502740E+02  0.73864122365E+03  0.74778996463E+03  0.92194494813E+02 0.  0.
          5    1    3    3  502    0  0.29884723885E+02 -0.91082401137E+01  0.11137293769E+03  0.11576734432E+03  0.47000000000E+01 0. -1.
         -5    1    4    4    0  503 -0.20465090019E+02  0.71041767235E+01  0.47551461743E+02  0.52464471315E+02  0.47000000000E+01 0.  1.
          5    1    4    4  503    0  0.49933067846E+02  0.57940326017E+02  0.69108976190E+03  0.69532549331E+03  0.47000000000E+01 0. -1.
         -5    1    3    3    0  502 -0.59352701711E+02 -0.55936262627E+02  0.16538122658E+03  0.18445771543E+03  0.47000000000E+01 0.  1.
<mgrwt>
<rscale>  0 0.11655369E+03</rscale>
<asrwt>0</asrwt>
<pdfrwt beam="1">  1        2 0.15872383E+00 0.11661464E+03</pdfrwt>
<pdfrwt beam="2">  1       -2 0.25092036E-02 0.11661464E+03</pdfrwt>
<totfact> 0.13200869E+04</totfact>
</mgrwt>
</event>
<event>
 8    1  0.6396648E-004  0.2185290E+03  0.7546771E-02  0.1135414E+00
         -3   -1    0    0    0  501 -0.00000000000E+00  0.00000000000E+00  0.25851331252E+03  0.25851331252E+03  0.00000000000E+00 0.  1.
          3   -1    0    0  501    0  0.00000000000E+00 -0.00000000000E+00 -0.18534799598E+03  0.18534799598E+03  0.00000000000E+00 0. -1.
         23    2    1    2    0    0  0.14762662997E+03 -0.13105611527E+03  0.62341424195E+02  0.22506443655E+03  0.88307531952E+02 0.  0.
         23    2    1    2    0    0 -0.14762662997E+03  0.13105611527E+03  0.10823892344E+02  0.21879687196E+03  0.93731463800E+02 0.  0.
          5    1    4    4  502    0 -0.34602919129E+02 -0.11218268039E+02  0.41125690256E+01  0.36908193860E+02  0.47000000000E+01 0.  1.
         -5    1    3    3    0  503  0.12092774899E+03 -0.75964348075E+02  0.76467263010E+02  0.16205997336E+03  0.47000000000E+01 0.  1.
          5    1    3    3  503    0  0.26698880984E+02 -0.55091767199E+02 -0.14125838815E+02  0.63004463184E+02  0.47000000000E+01 0. -1.
         -5    1    4    4    0  502 -0.11302371084E+03  0.14227438331E+03  0.67113233187E+01  0.18188867810E+03  0.47000000000E+01 0. -1.
<mgrwt>
<rscale>  0 0.21795902E+03</rscale>
<asrwt>0</asrwt>
<pdfrwt beam="1">  1        3 0.28515076E-01 0.21852898E+03</pdfrwt>
<pdfrwt beam="2">  1       -3 0.39771279E-01 0.21852898E+03</pdfrwt>
<totfact> 0.18254191E+02</totfact>
</mgrwt>
</event>
<event>
 8    1  0.6396648E-004  0.9707135E+02  0.7546771E-02  0.1287564E+00
          2   -1    0    0  501    0  0.00000000000E+00  0.00000000000E+00  0.58992698583E+02  0.58992698583E+02  0.00000000000E+00 0. -1.
         -2   -1    0    0    0  501 -0.00000000000E+00 -0.00000000000E+00 -0.39898678094E+03  0.39898678094E+03  0.00000000000E+00 0.  1.
         23    2    1    2    0    0  0.23211438642E+02  0.14130792781E+02  0.90251401494E+01  0.95712636555E+02  0.91329105181E+02 0.  0.
         23    2    1    2    0    0 -0.23211438642E+02 -0.14130792781E+02 -0.34901922251E+03  0.36226684297E+03  0.93190115608E+02 0.  0.
          5    1    4    4  502    0 -0.39977571832E+02  0.27199431764E+02 -0.13185389571E+03  0.14051887827E+03  0.47000000000E+01 0. -1.
         -5    1    3    3    0  503 -0.33361550444E+02  0.34605101577E+01 -0.92851241058E+01  0.35117968452E+02  0.47000000000E+01 0.  1.
          5    1    3    3  503    0  0.56572989085E+02  0.10670282624E+02  0.18310264255E+02  0.60594668102E+02  0.47000000000E+01 0. -1.
         -5    1    4    4    0  502  0.16766133190E+02 -0.41330224545E+02 -0.21716532680E+03  0.22174796470E+03  0.47000000000E+01 0.  1.
<mgrwt>
<rscale>  0 0.96621949E+02</rscale>
<asrwt>0</asrwt>
<pdfrwt beam="1">  1        2 0.90757996E-02 0.97071354E+02</pdfrwt>
<pdfrwt beam="2">  1       -2 0.61382583E-01 0.97071354E+02</pdfrwt>
<totfact> 0.17339242E+03</totfact>
</mgrwt>
</event>
<event>
 7    1  0.8346107E-004  0.1806376E+03  0.7546771E-02  0.1194857E+00
          2   -1    0    0  501    0  0.00000000000E+00  0.00000000000E+00  0.46216551362E+03  0.46216551362E+03  0.00000000000E+00 0. -1.
         -2   -1    0    0    0  501 -0.00000000000E+00 -0.00000000000E+00 -0.48780546358E+02  0.48780546358E+02  0.00000000000E+00 0.  1.
         23    2    1    2    0    0  0.39035520184E+01  0.26740439887E+02  0.60151076253E+02  0.11420418564E+03  0.93242453847E+02 0.  0.
          5    1    3    3  502    0  0.43710113903E+02 -0.20062930756E+01  0.12805869207E+02  0.45833170908E+02  0.47000000000E+01 0. -1.
         -5    1    1    2    0  503 -0.16389412410E+01 -0.62541852363E+02  0.26658344115E+02  0.68168370498E+02  0.47000000000E+01 0.  1.
          5    1    1    2  503    0 -0.22646107774E+01  0.35801412476E+02  0.32657554690E+03  0.32857350384E+03  0.47000000000E+01 0. -1.
         -5    1    3    3    0  502 -0.39806561885E+02  0.28746732963E+02  0.47345207046E+02  0.68371014731E+02  0.47000000000E+01 0.  1.
<mgrwt>
<rscale>  0 0.15466357E+03</rscale>
<asrwt>0</asrwt>
<pdfrwt beam="1">  1        2 0.71102384E-01 0.18063757E+03</pdfrwt>
<pdfrwt beam="2">  1       -2 0.75046997E-02 0.18063757E+03</pdfrwt>
<totfact> 0.69210930E+03</totfact>
</mgrwt>
</event>
<event>
 8    1  0.6396648E-004  0.1169071E+03  0.7546771E-02  0.1251041E+00
         -3   -1    0    0    0  501 -0.00000000000E+00  0.00000000000E+00  0.32376515309E+02  0.32376515309E+02  0.00000000000E+00 0.  1.
          3   -1    0    0  501    0  0.00000000000E+00 -0.00000000000E+00 -0.40386552330E+03  0.40386552330E+03  0.00000000000E+00 0. -1.
         23    2    1    2    0    0 -0.20825606443E+02 -0.60140787575E+02 -0.15890868242E+03  0.19363605456E+03  0.90511502365E+02 0.  0.
         23    2    1    2    0    0  0.20825606443E+02  0.60140787575E+02 -0.21258032556E+03  0.24260598405E+03  0.98064511757E+02 0.  0.
          5    1    4    4  502    0 -0.34946539386E+02  0.25072083585E+02 -0.12909864988E+03  0.13615587167E+03  0.47000000000E+01 0. -1.
         -5    1    3    3    0  503 -0.19750217483E+02  0.13602752395E+02 -0.81881110237E+01  0.25772875771E+02  0.47000000000E+01 0.  1.
          5    1    3    3  503    0 -0.10753889601E+01 -0.73743539970E+02 -0.15072057140E+03  0.16786317878E+03  0.47000000000E+01 0. -1.
         -5    1    4    4    0  502  0.55772145829E+02  0.35068703990E+02 -0.83481675683E+02  0.10645011238E+03  0.47000000000E+01 0.  1.
<mgrwt>
<rscale>  0 0.11530985E+03</rscale>
<asrwt>0</asrwt>
<pdfrwt beam="1">  1        3 0.62133159E-01 0.11690709E+03</pdfrwt>
<pdfrwt beam="2">  1       -3 0.49810022E-02 0.11690709E+03</pdfrwt>
<totfact> 0.13180671E+03</totfact>
</mgrwt>
</event>
<event>
 8    1  0.6396648E-004  0.2475030E+03  0.7546771E-02  0.1114957E+00
         -2   -1    0    0    0  501 -0.00000000000E+00  0.00000000000E+00  0.80576149353E+02  0.80576149353E+02  0.00000000000E+00 0.  1.
          2   -1    0    0  501    0  0.00000000000E+00 -0.00000000000E+00 -0.76655888978E+03  0.76655888978E+03  0.00000000000E+00 0. -1.
         23    2    1    2    0    0  0.22958847247E+03  0.28167539687E+00 -0.30128237641E+03  0.38990869535E+03  0.92448766062E+02 0.  0.
         23    2    1    2    0    0 -0.22958847247E+03 -0.28167539687E+00 -0.38470036402E+03  0.45722634378E+03  0.91381690407E+02 0.  0.
          5    1    4    4  502    0 -0.20097576829E+02  0.17009950189E+02 -0.98679129966E+02  0.10223948205E+03  0.47000000000E+01 0. -1.
         -5    1    3    3    0  503  0.10508671718E+03 -0.40728364850E+02 -0.17236662180E+03  0.20599601972E+03  0.47000000000E+01 0.  1.
          5    1    3    3  503    0  0.12450175529E+03  0.41010040247E+02 -0.12891575461E+03  0.18391267563E+03  0.47000000000E+01 0. -1.
         -5    1    4    4    0  502 -0.20949089564E+03 -0.17291625585E+02 -0.28602123406E+03  0.35498686173E+03  0.47000000000E+01 0.  1.
<mgrwt>
<rscale>  0 0.24740376E+03</rscale>
<asrwt>0</asrwt>
<pdfrwt beam="1">  1        2 0.11793214E+00 0.24750297E+03</pdfrwt>
<pdfrwt beam="2">  1       -2 0.12396330E-01 0.24750297E+03</pdfrwt>
<totfact> 0.17538189E+03</totfact>
</mgrwt>
</event>
<event>
 8    1  0.6396648E-004  0.1725154E+03  0.7546771E-02  0.1175398E+00
          1   -1    0    0  501    0  0.00000000000E+00  0.00000000000E+00  0.33303281385E+03  0.33303281385E+03  0.00000000000E+00 0. -1.
         -1   -1    0    0    0  501 -0.00000000000E+00 -0.00000000000E+00 -0.10572845008E+03  0.10572845008E+03  0.00000000000E+00 0.  1.
         23    2    1    2    0    0  0.12724043643E+03 -0.70647120781E+02  0.20058354651E+03  0.26418876329E+03  0.91546704920E+02 0.  0.
         23    2    1    2    0    0 -0.12724043643E+03  0.70647120781E+02  0.26720817262E+02  0.17457250063E+03  0.92630510983E+02 0.  0.
          5    1    3    3  502    0  0.10093931096E+03 -0.92683607682E+02  0.16493658865E+03  0.21448814398E+03  0.47000000000E+01 0. -1.
         -5    1    3    3    0  502  0.26301125465E+02  0.22036486901E+02  0.35646957862E+02  0.49700619317E+02  0.47000000000E+01 0.  1.
          5    1    4    4  503    0 -0.91940708403E+02  0.19022462057E+02  0.51442084636E+02  0.10716028180E+03  0.47000000000E+01 0. -1.
         -5    1    4    4    0  503 -0.35299728025E+02  0.51624658724E+02 -0.24721267374E+02  0.67412218830E+02  0.47000000000E+01 0.  1.
<mgrwt>
<rscale>  0 0.17237032E+03</rscale>
<asrwt>0</asrwt>
<pdfrwt beam="1">  1        1 0.51235817E-01 0.17251538E+03</pdfrwt>
<pdfrwt beam="2">  1       -1 0.16265916E-01 0.17251538E+03</pdfrwt>
<totfact> 0.21321160E+03</totfact>
</mgrwt>
</event>
<event>
 8    1  0.6396648E-004  0.1112189E+03  0.7546771E-02  0.1258638E+00
          1   -1    0    0  501    0  0.00000000000E+00  0.00000000000E+00  0.66908921378E+02  0.66908921378E+02  0.00000000000E+00 0. -1.
         -1   -1    0    0    0  501 -0.00000000000E+00 -0.00000000000E+00 -0.26267061772E+03  0.26267061772E+03  0.00000000000E+00 0.  1.
         23    2    1    2    0    0 -0.23332335849E+02  0.64041320323E+02 -0.18799791914E+03  0.21809001107E+03  0.87030722867E+02 0.  0.
         23    2    1    2    0    0  0.23332335849E+02 -0.64041320323E+02 -0.77637772069E+01  0.11148952803E+03  0.87886005824E+02 0.  0.
          5    1    3    3  502    0  0.22573762354E+02  0.45307587939E+02 -0.49689626291E+02  0.71087982336E+02  0.47000000000E+01 0. -1.
         -5    1    4    4    0  503 -0.27250177719E+02  0.44105914961E+00  0.58796456041E+01  0.28274139268E+02  0.47000000000E+01 0.  1.
          5    1    4    4  503    0  0.50582513568E+02 -0.64482379473E+02 -0.13643422811E+02  0.83215388765E+02  0.47000000000E+01 0. -1.
         -5    1    3    3    0  502 -0.45906098203E+02  0.18733732384E+02 -0.13830829285E+03  0.14700202873E+03  0.47000000000E+01 0.  1.
<mgrwt>
<rscale>  0 0.11104984E+03</rscale>
<asrwt>0</asrwt>
<pdfrwt beam="1">  1        1 0.10293680E-01 0.11121888E+03</pdfrwt>
<pdfrwt beam="2">  1       -1 0.40410864E-01 0.11121888E+03</pdfrwt>
<totfact> 0.35504574E+03</totfact>
</mgrwt>
</event>
<event>
 8    1  0.6396648E-004  0.9386810E+02  0.7546771E-02  0.1297531E+00
         -2   -1    0    0    0  501 -0.00000000000E+00  0.00000000000E+00  0.59957759616E+02  0.59957759616E+02  0.00000000000E+00 0.  1.
          2   -1    0    0  501    0  0.00000000000E+00 -0.00000000000E+00 -0.30462830121E+03  0.30462830121E+03  0.00000000000E+00 0. -1.
         23    2    1    2    0    0  0.86993983684E+01 -0.15166169136E+01  0.10855706143E+02  0.94493735598E+02  0.93451806042E+02 0.  0.
         23    2    1    2    0    0 -0.86993983684E+01  0.15166169136E+01 -0.25552624774E+03  0.27009232523E+03  0.87052979304E+02 0.  0.
          5    1    4    4  502    0 -0.23461484254E+02 -0.37762827758E+02 -0.11597598621E+03  0.12429397323E+03  0.47000000000E+01 0. -1.
         -5    1    4    4    0  502  0.14762085885E+02  0.39279444671E+02 -0.13955026153E+03  0.14579835200E+03  0.47000000000E+01 0.  1.
          5    1    3    3  503    0 -0.18535177756E+02 -0.33868593478E+02  0.28717804458E+02  0.48347044703E+02  0.47000000000E+01 0. -1.
         -5    1    3    3    0  503  0.27234576124E+02  0.32351976564E+02 -0.17862098316E+02  0.46146690895E+02  0.47000000000E+01 0.  1.
<mgrwt>
<rscale>  0 0.92233816E+02</rscale>
<asrwt>0</asrwt>
<pdfrwt beam="1">  1        2 0.46865893E-01 0.93868097E+02</pdfrwt>
<pdfrwt beam="2">  1       -2 0.92242706E-02 0.93868097E+02</pdfrwt>
<totfact> 0.75151521E+03</totfact>
</mgrwt>
</event>
<event>
 8    1  0.6396648E-004  0.9875887E+02  0.7546771E-02  0.1283978E+00
          1   -1    0    0  501    0  0.00000000000E+00  0.00000000000E+00  0.11102921384E+04  0.11102921384E+04  0.00000000000E+00 0. -1.
         -1   -1    0    0    0  501 -0.00000000000E+00 -0.00000000000E+00 -0.87522483614E+01  0.87522483614E+01  0.00000000000E+00 0.  1.
         23    2    1    2    0    0  0.10445646169E+02 -0.35409211215E+02  0.47465459886E+03  0.48442758621E+03  0.89499577055E+02 0.  0.
         23    2    1    2    0    0 -0.10445646169E+02  0.35409211215E+02  0.62688529122E+03  0.63461680060E+03  0.91599080195E+02 0.  0.
          5    1    4    4  502    0 -0.38565704509E+02  0.47661979514E+02  0.50957376146E+03  0.51327038315E+03  0.47000000000E+01 0. -1.
         -5    1    4    4    0  502  0.28120058340E+02 -0.12252768299E+02  0.11731152976E+03  0.12134641744E+03  0.47000000000E+01 0.  1.
          5    1    3    3  503    0  0.11824421221E+02 -0.63293318205E+02  0.38601813523E+03  0.39137954953E+03  0.47000000000E+01 0. -1.
         -5    1    3    3    0  503 -0.13787750518E+01  0.27884106990E+02  0.88636463635E+02  0.93048036674E+02  0.47000000000E+01 0.  1.
<mgrwt>
<rscale>  0 0.98269216E+02</rscale>
<asrwt>0</asrwt>
<pdfrwt beam="1">  1        1 0.17081406E+00 0.98758874E+02</pdfrwt>
<pdfrwt beam="2">  1       -1 0.13465006E-02 0.98758874E+02</pdfrwt>
<totfact> 0.15207161E+04</totfact>
</mgrwt>
</event>
<event>
 8    1  0.6396648E-004  0.1044650E+03  0.7546771E-02  0.1273099E+00
         -2   -1    0    0    0  501 -0.00000000000E+00  0.00000000000E+00  0.34468052268E+02  0.34468052268E+02  0.00000000000E+00 0.  1.
          2   -1    0    0  501    0  0.00000000000E+00 -0.00000000000E+00 -0.43876539135E+03  0.43876539135E+03  0.00000000000E+00 0. -1.
         23    2    1    2    0    0 -0.24478160071E+02 -0.36325559595E+02 -0.33528494194E+03  0.35118219283E+03  0.94837828235E+02 0.  0.
         23    2    1    2    0    0  0.24478160071E+02  0.36325559595E+02 -0.69012397137E+02  0.12205125079E+03  0.90637024777E+02 0.  0.
          5    1    4    4  502    0 -0.85251782768E+01  0.59109206787E+02 -0.46391482971E+02  0.75768309232E+02  0.47000000000E+01 0. -1.
         -5    1    3    3    0  503  0.59305801963E+01 -0.63166445973E+02 -0.20714536279E+03  0.21669440003E+03  0.47000000000E+01 0.  1.
          5    1    3    3  503    0 -0.30408740267E+02  0.26840886378E+02 -0.12813957916E+03  0.13448779280E+03  0.47000000000E+01 0. -1.
         -5    1    4    4    0  502  0.33003338348E+02 -0.22783647193E+02 -0.22620914166E+02  0.46282941557E+02  0.47000000000E+01 0.  1.
<mgrwt>
<rscale>  0 0.10350223E+03</rscale>
<asrwt>0</asrwt>
<pdfrwt beam="1">  1        2 0.67502365E-01 0.10446502E+03</pdfrwt>
<pdfrwt beam="2">  1       -2 0.53027775E-02 0.10446502E+03</pdfrwt>
<totfact> 0.11965391E+04</totfact>
</mgrwt>
</event>
<event>
 8    1  0.6396648E-004  0.9295290E+02  0.7546771E-02  0.1296428E+00
         -1   -1    0    0    0  501 -0.00000000000E+00  0.00000000000E+00  0.27639855031E+02  0.27639855031E+02  0.00000000000E+00 0.  1.
          1   -1    0    0  501    0  0.00000000000E+00 -0.00000000000E+00 -0.30947083139E+03  0.30947083139E+03  0.00000000000E+00 0. -1.
         23    2    1    2    0    0  0.13369640994E+02 -0.10164455841E+01 -0.14559112677E+03  0.17273394859E+03  0.91980760710E+02 0.  0.
         23    2    1    2    0    0 -0.13369640994E+02  0.10164455841E+01 -0.13623984959E+03  0.16437673783E+03  0.90987003800E+02 0.  0.
          5    1    3    3  502    0 -0.29669956157E+02 -0.27731955186E+02 -0.78795633563E+02  0.88770544131E+02  0.47000000000E+01 0. -1.
         -5    1    4    4    0  503  0.21554690970E+02  0.73552664299E+01  0.26270994841E+00  0.23256475734E+02  0.47000000000E+01 0.  1.
          5    1    4    4  503    0 -0.34924331963E+02 -0.63388208458E+01 -0.13650255954E+03  0.14112026209E+03  0.47000000000E+01 0. -1.
         -5    1    3    3    0  502  0.43039597151E+02  0.26715509601E+02 -0.66795493204E+02  0.83963404460E+02  0.47000000000E+01 0.  1.
<mgrwt>
<rscale>  0 0.92706101E+02</rscale>
<asrwt>0</asrwt>
<pdfrwt beam="1">  1        1 0.47610895E-01 0.92952896E+02</pdfrwt>
<pdfrwt beam="2">  1       -1 0.42522856E-02 0.92952896E+02</pdfrwt>
<totfact> 0.17075354E+04</totfact>
</mgrwt>
</event>
<event>
 8    1  0.9898150E-004  0.1259142E+03  0.7546771E-02  0.1244998E+00
         -1   -1    0    0    0  501 -0.00000000000E+00  0.00000000000E+00  0.15798541040E+03  0.15798541040E+03  0.00000000000E+00 0.  1.
          1   -1    0    0  501    0  0.00000000000E+00 -0.00000000000E+00 -0.14372206980E+03  0.14372206980E+03  0.00000000000E+00 0. -1.
         23    2    1    2    0    0 -0.15500310426E+02 -0.36219777781E+02 -0.92822788757E+02  0.13641431367E+03  0.91873080584E+02 0.  0.
         23    2    1    2    0    0  0.15500310426E+02  0.36219777781E+02  0.10708612935E+03  0.16529316652E+03  0.11959205607E+03 0.  0.
          5    1    4    4  502    0 -0.23108029975E+02 -0.35266652327E+02  0.22932835483E+02  0.48225747884E+02  0.47000000000E+01 0. -1.
         -5    1    3    3    0  503  0.23789712315E+02  0.19849567574E+02 -0.29023591765E+02  0.42713166868E+02  0.47000000000E+01 0.  1.
          5    1    3    3  503    0 -0.39290022742E+02 -0.56069345355E+02 -0.63799196992E+02  0.93701146804E+02  0.47000000000E+01 0. -1.
         -5    1    4    4    0  502  0.38608340401E+02  0.71486430107E+02  0.84153293870E+02  0.11706741864E+03  0.47000000000E+01 0.  1.
<mgrwt>
<rscale>  0 0.11885487E+03</rscale>
<asrwt>0</asrwt>
<pdfrwt beam="1">  1        1 0.22111088E-01 0.12591422E+03</pdfrwt>
<pdfrwt beam="2">  1       -1 0.24305448E-01 0.12591422E+03</pdfrwt>
<totfact> 0.31455751E+03</totfact>
</mgrwt>
</event>
<event>
 8    1  0.6396648E-004  0.1189378E+03  0.7546771E-02  0.1248965E+00
         -2   -1    0    0    0  501 -0.00000000000E+00  0.00000000000E+00  0.15860029803E+02  0.15860029803E+02  0.00000000000E+00 0.  1.
          2   -1    0    0  501    0  0.00000000000E+00 -0.00000000000E+00 -0.83245669801E+03  0.83245669801E+03  0.00000000000E+00 0. -1.
         23    2    1    2    0    0 -0.65867671445E+02  0.39484042220E+02 -0.43742197592E+03  0.45092569039E+03  0.78092595676E+02 0.  0.
         23    2    1    2    0    0  0.65867671445E+02 -0.39484042220E+02 -0.37917469228E+03  0.39739103742E+03  0.90822076750E+02 0.  0.
          5    1    3    3  502    0 -0.59818851998E+02 -0.85222611050E+01 -0.22581636960E+03  0.23380771324E+03  0.47000000000E+01 0. -1.
         -5    1    4    4    0  503  0.29971400210E+02 -0.22928511203E+01 -0.24843904118E+02  0.39279149286E+02  0.47000000000E+01 0.  1.
          5    1    4    4  503    0  0.35896271235E+02 -0.37191191099E+02 -0.35433078816E+03  0.35811188814E+03  0.47000000000E+01 0. -1.
         -5    1    3    3    0  502 -0.60488194473E+01  0.48006303325E+02 -0.21160560632E+03  0.21711797715E+03  0.47000000000E+01 0.  1.
<mgrwt>
<rscale>  0 0.11651164E+03</rscale>
<asrwt>0</asrwt>
<pdfrwt beam="1">  1        2 0.12807027E+00 0.11893775E+03</pdfrwt>
<pdfrwt beam="2">  1       -2 0.24400045E-02 0.11893775E+03</pdfrwt>
<totfact> 0.18269906E+04</totfact>
</mgrwt>
</event>
<event>
 8    1  0.6396648E-004  0.1008671E+03  0.7546771E-02  0.1280134E+00
          2   -1    0    0  501    0  0.00000000000E+00  0.00000000000E+00  0.13604540331E+03  0.13604540331E+03  0.00000000000E+00 0. -1.
         -2   -1    0    0    0  501 -0.00000000000E+00 -0.00000000000E+00 -0.85692130547E+02  0.85692130547E+02  0.00000000000E+00 0.  1.
         23    2    1    2    0    0 -0.82649679888E+01 -0.36055814421E+02 -0.18005182136E+02  0.10246148276E+03  0.93839423577E+02 0.  0.
         23    2    1    2    0    0  0.82649679888E+01  0.36055814421E+02  0.68358454901E+02  0.11927605109E+03  0.90474120934E+02 0.  0.
          5    1    3    3  502    0 -0.39363345221E+02 -0.14736245287E+02  0.21674173059E+02  0.47523569415E+02  0.47000000000E+01 0. -1.
         -5    1    4    4    0  503 -0.40651794526E+02  0.19205628526E+02  0.25317657755E+02  0.51812144903E+02  0.47000000000E+01 0.  1.
          5    1    4    4  503    0  0.48916762515E+02  0.16850185895E+02  0.43040797145E+02  0.67463906191E+02  0.47000000000E+01 0. -1.
         -5    1    3    3    0  502  0.31098377232E+02 -0.21319569135E+02 -0.39679355195E+02  0.54937913350E+02  0.47000000000E+01 0.  1.
<mgrwt>
<rscale>  0 0.10007709E+03</rscale>
<asrwt>0</asrwt>
<pdfrwt beam="1">  1        2 0.20930062E-01 0.10086709E+03</pdfrwt>
<pdfrwt beam="2">  1       -2 0.13183405E-01 0.10086709E+03</pdfrwt>
<totfact> 0.10234580E+04</totfact>
</mgrwt>
</event>
<event>
 7    1  0.6396648E-004  0.1234543E+03  0.7546771E-02  0.1255566E+00
         -1   -1    0    0    0  501 -0.00000000000E+00  0.00000000000E+00  0.75821909410E+01  0.75821909410E+01  0.00000000000E+00 0.  1.
          1   -1    0    0  501    0  0.00000000000E+00 -0.00000000000E+00 -0.14505794068E+04  0.14505794068E+04  0.00000000000E+00 0. -1.
         23    2    1    2    0    0  0.21527030946E+02 -0.80708961663E+02 -0.89546424490E+03  0.90393427952E+03  0.90904445621E+02 0.  0.
          5    1    3    3  502    0 -0.84007534902E+01 -0.79748585110E+02 -0.79363632646E+03  0.79769111701E+03  0.47000000000E+01 0. -1.
         -5    1    1    2    0  503 -0.13088626507E+02  0.24551418015E+02 -0.14994768488E+03  0.15257943004E+03  0.47000000000E+01 0. -1.
          5    1    1    2  503    0 -0.84384044389E+01  0.56157543648E+02 -0.39758528609E+03  0.40164788820E+03  0.47000000000E+01 0.  1.
         -5    1    3    3    0  502  0.29927784436E+02 -0.96037655337E+00 -0.10182791845E+03  0.10624316251E+03  0.47000000000E+01 0.  1.
<mgrwt>
<rscale>  0 0.11274677E+03</rscale>
<asrwt>0</asrwt>
<pdfrwt beam="1">  1        1 0.22316614E+00 0.12345431E+03</pdfrwt>
<pdfrwt beam="2">  1       -1 0.11664905E-02 0.12345431E+03</pdfrwt>
<totfact> 0.11214599E+04</totfact>
</mgrwt>
</event>
<event>
 8    1  0.6396648E-004  0.1039934E+03  0.7546771E-02  0.1273575E+00
          2   -1    0    0  501    0  0.00000000000E+00  0.00000000000E+00  0.23540214243E+03  0.23540214243E+03  0.00000000000E+00 0. -1.
         -2   -1    0    0    0  501 -0.00000000000E+00 -0.00000000000E+00 -0.49432781519E+02  0.49432781519E+02  0.00000000000E+00 0.  1.
         23    2    1    2    0    0  0.35666750856E+02 -0.27140021966E+02  0.13833609649E+03  0.17306499986E+03  0.93839867187E+02 0.  0.
         23    2    1    2    0    0 -0.35666750856E+02  0.27140021966E+02  0.47633264414E+02  0.11176992409E+03  0.90636031151E+02 0.  0.
          5    1    3    3  502    0  0.57014872044E+02  0.35450808013E+01  0.46522206033E+02  0.73821872682E+02  0.47000000000E+01 0. -1.
         -5    1    3    3    0  502 -0.21348121188E+02 -0.30685102767E+02  0.91813890461E+02  0.99243127176E+02  0.47000000000E+01 0.  1.
          5    1    4    4  503    0  0.24282046808E+02 -0.82420282454E+01  0.30120462343E+02  0.39835675952E+02  0.47000000000E+01 0. -1.
         -5    1    4    4    0  503 -0.59948797664E+02  0.35382050211E+02  0.17512802071E+02  0.71934248136E+02  0.47000000000E+01 0.  1.
<mgrwt>
<rscale>  0 0.10326535E+03</rscale>
<asrwt>0</asrwt>
<pdfrwt beam="1">  1        2 0.36215714E-01 0.10399336E+03</pdfrwt>
<pdfrwt beam="2">  1       -2 0.76050435E-02 0.10399336E+03</pdfrwt>
<totfact> 0.13372893E+04</totfact>
</mgrwt>
</event>
<event>
 8    1  0.6396648E-004  0.1157070E+03  0.7546771E-02  0.1251305E+00
         -1   -1    0    0    0  501 -0.00000000000E+00  0.00000000000E+00  0.45757418475E+02  0.45757418475E+02  0.00000000000E+00 0.  1.
          1   -1    0    0  501    0  0.00000000000E+00 -0.00000000000E+00 -0.30230730548E+03  0.30230730548E+03  0.00000000000E+00 0. -1.
         23    2    1    2    0    0 -0.55725353252E+02 -0.43718420405E+02 -0.16846004728E+03  0.20436953180E+03  0.91495916414E+02 0.  0.
         23    2    1    2    0    0  0.55725353252E+02  0.43718420405E+02 -0.88089839725E+02  0.14369519216E+03  0.88723576958E+02 0.  0.
          5    1    4    4  502    0 -0.18056174928E+02  0.32646043209E+02 -0.20055999199E+02  0.42615991061E+02  0.47000000000E+01 0. -1.
         -5    1    4    4    0  502  0.73781528180E+02  0.11072377196E+02 -0.68033840527E+02  0.10107920110E+03  0.47000000000E+01 0.  1.
          5    1    3    3  503    0 -0.73669078378E+02 -0.55131804194E+02 -0.14888006781E+03  0.17508287619E+03  0.47000000000E+01 0. -1.
         -5    1    3    3    0  503  0.17943725126E+02  0.11413383789E+02 -0.19579979468E+02  0.29286655611E+02  0.47000000000E+01 0.  1.
<mgrwt>
<rscale>  0 0.11515825E+03</rscale>
<asrwt>0</asrwt>
<pdfrwt beam="1">  1        1 0.46508816E-01 0.11570704E+03</pdfrwt>
<pdfrwt beam="2">  1       -1 0.70396029E-02 0.11570704E+03</pdfrwt>
<totfact> 0.85216476E+03</totfact>
</mgrwt>
</event>
<event>
 8    1  0.6396648E-004  0.1893413E+03  0.7546771E-02  0.1159210E+00
          2   -1    0    0  501    0  0.00000000000E+00  0.00000000000E+00  0.47597176148E+03  0.47597176148E+03  0.00000000000E+00 0. -1.
         -2   -1    0    0    0  501 -0.00000000000E+00 -0.00000000000E+00 -0.75128906725E+02  0.75128906725E+02  0.00000000000E+00 0.  1.
         23    2    1    2    0    0  0.73490975106E+02  0.14715525449E+03  0.20966959040E+03  0.28250920913E+03  0.93779122182E+02 0.  0.
         23    2    1    2    0    0 -0.73490975106E+02 -0.14715525449E+03  0.19117326435E+03  0.26859145908E+03  0.92404342648E+02 0.  0.
          5    1    3    3  502    0  0.30597344007E+02  0.77888017526E+02  0.17461936629E+03  0.19369242065E+03  0.47000000000E+01 0. -1.
         -5    1    4    4    0  503 -0.23799958541E+02  0.44212430176E+01  0.49033814365E+02  0.54885247267E+02  0.47000000000E+01 0.  1.
          5    1    4    4  503    0 -0.49691016565E+02 -0.15157649750E+03  0.14213944999E+03  0.21370621181E+03  0.47000000000E+01 0. -1.
         -5    1    3    3    0  502  0.42893631099E+02  0.69267236961E+02  0.35050224114E+02  0.88816788478E+02  0.47000000000E+01 0.  1.
<mgrwt>
<rscale>  0 0.18917176E+03</rscale>
<asrwt>0</asrwt>
<pdfrwt beam="1">  1        2 0.73226423E-01 0.18934127E+03</pdfrwt>
<pdfrwt beam="2">  1       -2 0.11558294E-01 0.18934127E+03</pdfrwt>
<totfact> 0.34021781E+03</totfact>
</mgrwt>
</event>
<event>
 8    1  0.6396648E-004  0.1139549E+03  0.7546771E-02  0.1253481E+00
         -1   -1    0    0    0  501 -0.00000000000E+00  0.00000000000E+00  0.57750441483E+03  0.57750441483E+03  0.00000000000E+00 0.  1.
          1   -1    0    0  501    0  0.00000000000E+00 -0.00000000000E+00 -0.26971432313E+02  0.26971432313E+02  0.00000000000E+00 0. -1.
         23    2    1    2    0    0 -0.15459265078E+02 -0.66089095415E+02  0.39876905025E+03  0.41469170682E+03  0.91354796563E+02 0.  0.
         23    2    1    2    0    0  0.15459265078E+02  0.66089095415E+02  0.15176393227E+03  0.18978414033E+03  0.91536721446E+02 0.  0.
          5    1    3    3  502    0 -0.49240067601E+02 -0.35396242537E+02  0.29539842170E+03  0.30159541738E+03  0.47000000000E+01 0. -1.
         -5    1    3    3    0  502  0.33780802523E+02 -0.30692852878E+02  0.10337062855E+03  0.11309628944E+03  0.47000000000E+01 0.  1.
          5    1    4    4  503    0  0.11849831391E+02  0.85775856622E+02  0.91295374993E+02  0.12591604973E+03  0.47000000000E+01 0. -1.
         -5    1    4    4    0  503  0.36094336865E+01 -0.19686761207E+02  0.60468557275E+02  0.63868090603E+02  0.47000000000E+01 0.  1.
<mgrwt>
<rscale>  0 0.11391840E+03</rscale>
<asrwt>0</asrwt>
<pdfrwt beam="1">  1        1 0.41494516E-02 0.11395494E+03</pdfrwt>
<pdfrwt beam="2">  1       -1 0.88846824E-01 0.11395494E+03</pdfrwt>
<totfact> 0.26969767E+03</totfact>
</mgrwt>
</event>
<event>
 8    1  0.6396648E-004  0.3069594E+03  0.7546771E-02  0.1081886E+00
         -1   -1    0    0    0  501 -0.00000000000E+00  0.00000000000E+00  0.10359513349E+03  0.10359513349E+03  0.00000000000E+00 0.  1.
          1   -1    0    0  501    0  0.00000000000E+00 -0.00000000000E+00 -0.12010367423E+04  0.12010367423E+04  0.00000000000E+00 0. -1.
         23    2    1    2    0    0 -0.33829426425E+02  0.29118217778E+03 -0.87065703883E+03  0.92298372584E+03  0.89015662434E+02 0.  0.
         23    2    1    2    0    0  0.33829426425E+02 -0.29118217778E+03 -0.22678457001E+03  0.38164814998E+03  0.91063595563E+02 0.  0.
          5    1    3    3  502    0 -0.61506421808E+02  0.14616947650E+03 -0.45012258718E+03  0.47726406661E+03  0.47000000000E+01 0. -1.
         -5    1    3    3    0  502  0.27676995383E+02  0.14501270128E+03 -0.42053445165E+03  0.44571965923E+03  0.47000000000E+01 0.  1.
          5    1    4    4  503    0  0.38550654800E+02 -0.67224469759E+02 -0.91165859997E+02  0.11974383637E+03  0.47000000000E+01 0. -1.
         -5    1    4    4    0  503 -0.47212283750E+01 -0.22395770802E+03 -0.13561871001E+03  0.26190431360E+03  0.47000000000E+01 0.  1.
<mgrwt>
<rscale>  0 0.30680896E+03</rscale>
<asrwt>0</asrwt>
<pdfrwt beam="1">  1        1 0.18477488E+00 0.30695939E+03</pdfrwt>
<pdfrwt beam="2">  1       -1 0.15937713E-01 0.30695939E+03</pdfrwt>
<totfact> 0.33364234E+02</totfact>
</mgrwt>
</event>
<event>
 8    1  0.6396648E-004  0.1225373E+03  0.7546771E-02  0.1239342E+00
         -2   -1    0    0    0  501 -0.00000000000E+00  0.00000000000E+00  0.26935665979E+03  0.26935665979E+03  0.00000000000E+00 0.  1.
          2   -1    0    0  501    0  0.00000000000E+00 -0.00000000000E+00 -0.13907204680E+03  0.13907204680E+03  0.00000000000E+00 0. -1.
         23    2    1    2    0    0  0.76921778838E+02  0.22958026292E+02  0.22351482497E+03  0.25445706470E+03  0.91353652174E+02 0.  0.
         23    2    1    2    0    0 -0.76921778838E+02 -0.22958026292E+02 -0.93230211973E+02  0.15397164189E+03  0.92581656118E+02 0.  0.
          5    1    4    4  502    0 -0.17402995703E+02 -0.46899305894E+02 -0.68732968569E+02  0.85139415790E+02  0.47000000000E+01 0. -1.
         -5    1    4    4    0  502 -0.59518783135E+02  0.23941279602E+02 -0.24497243404E+02  0.68832226096E+02  0.47000000000E+01 0.  1.
          5    1    3    3  503    0 -0.12519535018E+02 -0.17276265158E+02  0.58418495867E+02  0.62370014864E+02  0.47000000000E+01 0. -1.
         -5    1    3    3    0  503  0.89441313856E+02  0.40234291450E+02  0.16509632910E+03  0.19208704984E+03  0.47000000000E+01 0.  1.
<mgrwt>
<rscale>  0 0.12230537E+03</rscale>
<asrwt>0</asrwt>
<pdfrwt beam="1">  1        2 0.21395700E-01 0.12253732E+03</pdfrwt>
<pdfrwt beam="2">  1       -2 0.41439486E-01 0.12253732E+03</pdfrwt>
<totfact> 0.13923851E+03</totfact>
</mgrwt>
</event>
<event>
 8    1  0.6396648E-004  0.1557810E+03  0.7546771E-02  0.1193641E+00
          2   -1    0    0  501    0  0.00000000000E+00  0.00000000000E+00  0.18939653854E+04  0.18939653854E+04  0.00000000000E+00 0. -1.
         -2   -1    0    0    0  501 -0.00000000000E+00 -0.00000000000E+00 -0.18930431929E+02  0.18930431929E+02  0.00000000000E+00 0.  1.
         23    2    1    2    0    0 -0.64343123523E+02  0.10786577505E+03  0.14830949380E+04  0.14912539426E+04  0.92155645404E+02 0.  0.
         23    2    1    2    0    0  0.64343123523E+02 -0.10786577505E+03  0.39194001538E+03  0.42164187472E+03  0.91596025523E+02 0.  0.
          5    1    4    4  502    0 -0.17887130160E+02 -0.14000947813E+02  0.12240588327E+03  0.12458437391E+03  0.47000000000E+01 0. -1.
         -5    1    4    4    0  502  0.82230253684E+02 -0.93864827234E+02  0.26953413211E+03  0.29705750081E+03  0.47000000000E+01 0.  1.
          5    1    3    3  503    0  0.12891060006E+02  0.66346530117E+02  0.60708743488E+03  0.61085619018E+03  0.47000000000E+01 0. -1.
         -5    1    3    3    0  503 -0.77234183530E+02  0.41519244930E+02  0.87600750317E+03  0.88039775239E+03  0.47000000000E+01 0.  1.
<mgrwt>
<rscale>  0 0.15569835E+03</rscale>
<asrwt>0</asrwt>
<pdfrwt beam="1">  1        2 0.29137914E+00 0.15578102E+03</pdfrwt>
<pdfrwt beam="2">  1       -2 0.29123757E-02 0.15578102E+03</pdfrwt>
<totfact> 0.37316974E+03</totfact>
</mgrwt>
</event>
<event>
 8    1  0.6396648E-004  0.1184224E+03  0.7546771E-02  0.1250072E+00
          2   -1    0    0  501    0  0.00000000000E+00  0.00000000000E+00  0.90642266482E+02  0.90642266482E+02  0.00000000000E+00 0. -1.
         -2   -1    0    0    0  501 -0.00000000000E+00 -0.00000000000E+00 -0.14779693619E+03  0.14779693619E+03  0.00000000000E+00 0.  1.
         23    2    1    2    0    0 -0.35668904140E+01 -0.73595572770E+02 -0.53225246400E+02  0.12983369290E+03  0.92708305562E+02 0.  0.
         23    2    1    2    0    0  0.35668904140E+01  0.73595572770E+02 -0.39294233104E+01  0.10860550977E+03  0.79691187383E+02 0.  0.
          5    1    4    4  502    0  0.39287528265E+02  0.52175706138E+02  0.52668218475E+01  0.65693558289E+02  0.47000000000E+01 0. -1.
         -5    1    4    4    0  502 -0.35720637851E+02  0.21419866632E+02 -0.91962451579E+01  0.42911951482E+02  0.47000000000E+01 0.  1.
          5    1    3    3  503    0  0.43964911347E+02 -0.34958490169E+02 -0.18839746286E+02  0.59430930539E+02  0.47000000000E+01 0. -1.
         -5    1    3    3    0  503 -0.47531801761E+02 -0.38637082601E+02 -0.34385500113E+02  0.70402762365E+02  0.47000000000E+01 0.  1.
<mgrwt>
<rscale>  0 0.11586899E+03</rscale>
<asrwt>0</asrwt>
<pdfrwt beam="1">  1        2 0.13944964E-01 0.11842238E+03</pdfrwt>
<pdfrwt beam="2">  1       -2 0.22737990E-01 0.11842238E+03</pdfrwt>
<totfact> 0.67008776E+03</totfact>
</mgrwt>
</event>
<event>
 8    1  0.6396648E-004  0.1282773E+03  0.7546771E-02  0.1230492E+00
          2   -1    0    0  501    0  0.00000000000E+00  0.00000000000E+00  0.71610398387E+03  0.71610398387E+03  0.00000000000E+00 0. -1.
         -2   -1    0    0    0  501 -0.00000000000E+00 -0.00000000000E+00 -0.23186848262E+02  0.23186848262E+02  0.00000000000E+00 0.  1.
         23    2    1    2    0    0 -0.86424205929E+02 -0.16117735506E+02  0.29487224112E+03  0.32108657932E+03  0.91749812341E+02 0.  0.
         23    2    1    2    0    0  0.86424205929E+02  0.16117735506E+02  0.39804489448E+03  0.41820425281E+03  0.93413779920E+02 0.  0.
          5    1    4    4  502    0  0.29460417167E+02 -0.38389495824E+02  0.13130753854E+03  0.14001938883E+03  0.47000000000E+01 0. -1.
         -5    1    3    3    0  503 -0.86685114235E+02  0.13596105770E+02  0.15649549146E+03  0.17947727424E+03  0.47000000000E+01 0.  1.
          5    1    3    3  503    0  0.26090830601E+00 -0.29713841276E+02  0.13837674967E+03  0.14160930508E+03  0.47000000000E+01 0. -1.
         -5    1    4    4    0  502  0.56963788762E+02  0.54507231330E+02  0.26673735594E+03  0.27818486399E+03  0.47000000000E+01 0.  1.
<mgrwt>
<rscale>  0 0.12797455E+03</rscale>
<asrwt>0</asrwt>
<pdfrwt beam="1">  1        2 0.11016983E+00 0.12827727E+03</pdfrwt>
<pdfrwt beam="2">  1       -2 0.35672080E-02 0.12827727E+03</pdfrwt>
<totfact> 0.12660241E+04</totfact>
</mgrwt>
</event>
<event>
 8    1  0.6396648E-004  0.9474288E+02  0.7546771E-02  0.1292701E+00
         -3   -1    0    0    0  501 -0.00000000000E+00  0.00000000000E+00  0.32393769118E+03  0.32393769118E+03  0.00000000000E+00 0.  1.
          3   -1    0    0  501    0  0.00000000000E+00 -0.00000000000E+00 -0.27388697764E+02  0.27388697764E+02  0.00000000000E+00 0. -1.
         23    2    1    2    0    0  0.89910855396E+01 -0.16979126425E+02  0.13610264373E+03  0.16583166944E+03  0.92774363945E+02 0.  0.
         23    2    1    2    0    0 -0.89910855396E+01  0.16979126425E+02  0.16044634969E+03  0.18549471951E+03  0.91083091095E+02 0.  0.
          5    1    3    3  502    0 -0.27637299642E+02 -0.41440194722E+02  0.79897368909E+02  0.94269770492E+02  0.47000000000E+01 0. -1.
         -5    1    3    3    0  502  0.36628385181E+02  0.24461068297E+02  0.56205274825E+02  0.71561898950E+02  0.47000000000E+01 0.  1.
          5    1    4    4  503    0  0.59283411729E+01 -0.36470094361E+02  0.59198457485E+02  0.69941120812E+02  0.47000000000E+01 0. -1.
         -5    1    4    4    0  503 -0.14919426713E+02  0.53449220786E+02  0.10124789220E+03  0.11555359869E+03  0.47000000000E+01 0.  1.
<mgrwt>
<rscale>  0 0.94326263E+02</rscale>
<asrwt>0</asrwt>
<pdfrwt beam="1">  1        3 0.42136461E-02 0.94742878E+02</pdfrwt>
<pdfrwt beam="2">  1       -3 0.49836565E-01 0.94742878E+02</pdfrwt>
<totfact> 0.25681164E+03</totfact>
</mgrwt>
</event>
<event>
 8    1  0.6396648E-004  0.1469278E+03  0.7546771E-02  0.1204945E+00
         -1   -1    0    0    0  501 -0.00000000000E+00  0.00000000000E+00  0.51683766283E+02  0.51683766283E+02  0.00000000000E+00 0.  1.
          1   -1    0    0  501    0  0.00000000000E+00 -0.00000000000E+00 -0.49569278363E+03  0.49569278363E+03  0.00000000000E+00 0. -1.
         23    2    1    2    0    0  0.11145736467E+03 -0.10047055516E+02 -0.10822915843E+03  0.18085792235E+03  0.92045368583E+02 0.  0.
         23    2    1    2    0    0 -0.11145736467E+03  0.10047055516E+02 -0.33577985892E+03  0.36651862756E+03  0.95205584033E+02 0.  0.
          5    1    3    3  502    0  0.36197513483E+02  0.38002666993E+02 -0.57756941887E+02  0.78181948153E+02  0.47000000000E+01 0. -1.
         -5    1    4    4    0  503  0.74272641572E+01  0.24913388746E+02 -0.48673872322E+02  0.55381197518E+02  0.47000000000E+01 0.  1.
          5    1    4    4  503    0 -0.11888462883E+03 -0.14866333230E+02 -0.28710598659E+03  0.31113743004E+03  0.47000000000E+01 0. -1.
         -5    1    3    3    0  502  0.75259851191E+02 -0.48049722509E+02 -0.50472216542E+02  0.10267597420E+03  0.47000000000E+01 0.  1.
<mgrwt>
<rscale>  0 0.14641826E+03</rscale>
<asrwt>0</asrwt>
<pdfrwt beam="1">  1        1 0.76260429E-01 0.14692784E+03</pdfrwt>
<pdfrwt beam="2">  1       -1 0.79513485E-02 0.14692784E+03</pdfrwt>
<totfact> 0.38611341E+03</totfact>
</mgrwt>
</event>
<event>
 8    1  0.6396648E-004  0.1054820E+03  0.7546771E-02  0.1271670E+00
         -1   -1    0    0    0  501 -0.00000000000E+00  0.00000000000E+00  0.69152886323E+02  0.69152886323E+02  0.00000000000E+00 0.  1.
          1   -1    0    0  501    0  0.00000000000E+00 -0.00000000000E+00 -0.15385805415E+03  0.15385805415E+03  0.00000000000E+00 0. -1.
         23    2    1    2    0    0  0.29602902136E+01  0.44458835979E+02 -0.49420645527E+02  0.11648538279E+03  0.95609062247E+02 0.  0.
         23    2    1    2    0    0 -0.29602902136E+01 -0.44458835979E+02 -0.35284522305E+02  0.10652555769E+03  0.90096312424E+02 0.  0.
          5    1    3    3  502    0  0.33032194059E+02 -0.15362910217E+02 -0.79335844879E+01  0.37578938483E+02  0.47000000000E+01 0. -1.
         -5    1    3    3    0  502 -0.30071903845E+02  0.59821746197E+02 -0.41487061039E+02  0.78906444303E+02  0.47000000000E+01 0.  1.
          5    1    4    4  503    0 -0.22007867121E+02 -0.17369158372E+02 -0.59021645485E+02  0.65510903776E+02  0.47000000000E+01 0. -1.
         -5    1    4    4    0  503  0.19047576907E+02 -0.27089677607E+02  0.23737123180E+02  0.41014653915E+02  0.47000000000E+01 0.  1.
<mgrwt>
<rscale>  0 0.10421694E+03</rscale>
<asrwt>0</asrwt>
<pdfrwt beam="1">  1        1 0.23670470E-01 0.10548196E+03</pdfrwt>
<pdfrwt beam="2">  1       -1 0.10638906E-01 0.10548196E+03</pdfrwt>
<totfact> 0.10450951E+04</totfact>
</mgrwt>
</event>
<event>
 8    1  0.6396648E-004  0.9941579E+02  0.7546771E-02  0.1284901E+00
         -4   -1    0    0    0  501 -0.00000000000E+00  0.00000000000E+00  0.65877002673E+03  0.65877002673E+03  0.00000000000E+00 0.  1.
          4   -1    0    0  501    0  0.00000000000E+00 -0.00000000000E+00 -0.46630839340E+02  0.46630839340E+02  0.00000000000E+00 0. -1.
         23    2    1    2    0    0  0.13042399483E+02  0.38806550708E+01  0.59771037626E+03  0.60494346181E+03  0.92269899881E+02 0.  0.
         23    2    1    2    0    0 -0.13042399483E+02 -0.38806550708E+01  0.14428811133E+02  0.10045740427E+03  0.98480129028E+02 0.  0.
          5    1    4    4  502    0 -0.50724549424E+02 -0.23032950629E+02  0.12102026006E+01  0.55920043985E+02  0.47000000000E+01 0. -1.
         -5    1    4    4    0  502  0.37682149941E+02  0.19152295558E+02  0.13218608532E+02  0.44537360282E+02  0.47000000000E+01 0.  1.
          5    1    3    3  503    0 -0.33179559212E+02 -0.14577945924E+02  0.14723187536E+03  0.15169942248E+03  0.47000000000E+01 0. -1.
         -5    1    3    3    0  503  0.46221958696E+02  0.18458600995E+02  0.45047850090E+03  0.45324403933E+03  0.47000000000E+01 0.  1.
<mgrwt>
<rscale>  0 0.97841828E+02</rscale>
<asrwt>0</asrwt>
<pdfrwt beam="1">  1        4 0.71739758E-02 0.99415791E+02</pdfrwt>
<pdfrwt beam="2">  1       -4 0.10134923E+00 0.99415791E+02</pdfrwt>
<totfact> 0.17327748E+02</totfact>
</mgrwt>
</event>
<event>
 7    1  0.6396648E-004  0.2242912E+03  0.7546771E-02  0.1142712E+00
         -4   -1    0    0    0  501 -0.00000000000E+00  0.00000000000E+00  0.96076842761E+03  0.96076842761E+03  0.00000000000E+00 0.  1.
          4   -1    0    0  501    0  0.00000000000E+00 -0.00000000000E+00 -0.45217846888E+02  0.45217846888E+02  0.00000000000E+00 0. -1.
         23    2    1    2    0    0 -0.64021010200E+02  0.12353064840E+03  0.22969856737E+03  0.28439113827E+03  0.93586200034E+02 0.  0.
          5    1    1    2  502    0  0.99920563042E+02 -0.68572624877E+02  0.22084670915E+03  0.25195571583E+03  0.47000000000E+01 0. -1.
         -5    1    3    3    0  503 -0.60273829571E+02  0.20704432739E+02  0.10147581356E+03  0.11992096899E+03  0.47000000000E+01 0.  1.
          5    1    3    3  503    0 -0.37471806282E+01  0.10282621566E+03  0.12822275381E+03  0.16447016928E+03  0.47000000000E+01 0. -1.
         -5    1    1    2    0  502 -0.35899552843E+02 -0.54958023520E+02  0.46500530421E+03  0.46963942040E+03  0.47000000000E+01 0.  1.
<mgrwt>
<rscale>  0 0.20855957E+03</rscale>
<asrwt>0</asrwt>
<pdfrwt beam="1">  1        4 0.69565925E-02 0.22429123E+03</pdfrwt>
<pdfrwt beam="2">  1       -4 0.14781051E+00 0.22429123E+03</pdfrwt>
<totfact> 0.82785217E+01</totfact>
</mgrwt>
</event>
<event>
 8    1  0.6396648E-004  0.1005774E+03  0.7546771E-02  0.1283430E+00
         -1   -1    0    0    0  501 -0.00000000000E+00  0.00000000000E+00  0.14001936193E+03  0.14001936193E+03  0.00000000000E+00 0.  1.
          1   -1    0    0  501    0  0.00000000000E+00 -0.00000000000E+00 -0.99268194178E+02  0.99268194178E+02  0.00000000000E+00 0. -1.
         23    2    1    2    0    0  0.12271924484E+02 -0.37372660771E+02 -0.48744557699E+02  0.10465733039E+03  0.83843956219E+02 0.  0.
         23    2    1    2    0    0 -0.12271924484E+02  0.37372660771E+02  0.89495725455E+02  0.13463022573E+03  0.92566175791E+02 0.  0.
          5    1    3    3  502    0 -0.21979494914E+02 -0.37217573998E+02 -0.54384434426E+02  0.69627600267E+02  0.47000000000E+01 0. -1.
         -5    1    3    3    0  502  0.34251419398E+02 -0.15508677290E+00  0.56398767270E+01  0.35029730119E+02  0.47000000000E+01 0.  1.
          5    1    4    4  503    0  0.20988785813E+02 -0.16066500105E+02  0.22432434370E+01  0.26940372986E+02  0.47000000000E+01 0. -1.
         -5    1    4    4    0  503 -0.33260710297E+02  0.53439160877E+02  0.87252482018E+02  0.10768985274E+03  0.47000000000E+01 0.  1.
<mgrwt>
<rscale>  0 0.98524221E+02</rscale>
<asrwt>0</asrwt>
<pdfrwt beam="1">  1        1 0.15272030E-01 0.10057740E+03</pdfrwt>
<pdfrwt beam="2">  1       -1 0.21541440E-01 0.10057740E+03</pdfrwt>
<totfact> 0.60334342E+03</totfact>
</mgrwt>
</event>
<event>
 8    1  0.6396648E-004  0.9386426E+02  0.7546771E-02  0.1293773E+00
          1   -1    0    0  501    0  0.00000000000E+00  0.00000000000E+00  0.43960441705E+03  0.43960441705E+03  0.00000000000E+00 0. -1.
         -1   -1    0    0    0  501 -0.00000000000E+00 -0.00000000000E+00 -0.22128594152E+02  0.22128594152E+02  0.00000000000E+00 0.  1.
         23    2    1    2    0    0 -0.19618060598E+02 -0.59882808403E+01  0.13769778612E+03  0.16662921869E+03  0.91563575782E+02 0.  0.
         23    2    1    2    0    0  0.19618060598E+02  0.59882808403E+01  0.27977803678E+03  0.29510379252E+03  0.91595691393E+02 0.  0.
          5    1    4    4  502    0  0.24037742006E+02 -0.38438431507E+02  0.18018593571E+03  0.18586120489E+03  0.47000000000E+01 0. -1.
         -5    1    4    4    0  502 -0.44196814082E+01  0.44426712348E+02  0.99592101075E+02  0.10924258762E+03  0.47000000000E+01 0.  1.
          5    1    3    3  503    0  0.36517689667E+02 -0.17332633990E+01  0.62752426281E+02  0.72777076506E+02  0.47000000000E+01 0. -1.
         -5    1    3    3    0  503 -0.56135750265E+02 -0.42550174413E+01  0.74945359835E+02  0.93852142182E+02  0.47000000000E+01 0.  1.
<mgrwt>
<rscale>  0 0.93856420E+02</rscale>
<asrwt>0</asrwt>
<pdfrwt beam="1">  1        1 0.67631442E-01 0.93864256E+02</pdfrwt>
<pdfrwt beam="2">  1       -1 0.34043994E-02 0.93864256E+02</pdfrwt>
<totfact> 0.15287156E+04</totfact>
</mgrwt>
</event>
<event>
 8    1  0.6396648E-004  0.9497427E+02  0.7546771E-02  0.1291675E+00
         -1   -1    0    0    0  501 -0.00000000000E+00  0.00000000000E+00  0.33147269528E+03  0.33147269528E+03  0.00000000000E+00 0.  1.
          1   -1    0    0  501    0  0.00000000000E+00 -0.00000000000E+00 -0.28885057738E+02  0.28885057738E+02  0.00000000000E+00 0. -1.
         23    2    1    2    0    0  0.23321214824E+02  0.16683952360E+02  0.10455269275E+03  0.14072635290E+03  0.89724063178E+02 0.  0.
         23    2    1    2    0    0 -0.23321214824E+02 -0.16683952360E+02  0.19803494479E+03  0.21963140011E+03  0.90542140630E+02 0.  0.
          5    1    3    3  502    0  0.48497217497E+02  0.12782940352E+02  0.23407827036E+02  0.55546377340E+02  0.47000000000E+01 0. -1.
         -5    1    3    3    0  502 -0.25176002673E+02  0.39010120075E+01  0.81144865715E+02  0.85179975565E+02  0.47000000000E+01 0.  1.
          5    1    4    4  503    0 -0.49604112864E+02 -0.35709898037E+02  0.14275838356E+03  0.15536347997E+03  0.47000000000E+01 0. -1.
         -5    1    4    4    0  503  0.26282898040E+02  0.19025945677E+02  0.55276561228E+02  0.64267920143E+02  0.47000000000E+01 0.  1.
<mgrwt>
<rscale>  0 0.94778776E+02</rscale>
<asrwt>0</asrwt>
<pdfrwt beam="1">  1        1 0.44438553E-02 0.94974273E+02</pdfrwt>
<pdfrwt beam="2">  1       -1 0.50995797E-01 0.94974273E+02</pdfrwt>
<totfact> 0.71402157E+03</totfact>
</mgrwt>
</event>
<event>
 8    1  0.6396648E-004  0.9699346E+02  0.7546771E-02  0.1288212E+00
         -2   -1    0    0    0  501 -0.00000000000E+00  0.00000000000E+00  0.14987907588E+03  0.14987907588E+03  0.00000000000E+00 0.  1.
          2   -1    0    0  501    0  0.00000000000E+00 -0.00000000000E+00 -0.61167595864E+02  0.61167595864E+02  0.00000000000E+00 0. -1.
         23    2    1    2    0    0 -0.19576572527E+02 -0.12640038697E+02  0.47824636675E+02  0.10578763109E+03  0.91437488200E+02 0.  0.
         23    2    1    2    0    0  0.19576572527E+02  0.12640038697E+02  0.40886843339E+02  0.10525904065E+03  0.94152636239E+02 0.  0.
          5    1    3    3  502    0 -0.17012512374E+02 -0.36835863109E+02 -0.10707163322E+02  0.42226055163E+02  0.47000000000E+01 0. -1.
         -5    1    4    4    0  503  0.38564205613E+02  0.44116188996E+02  0.17090401874E+02  0.61217709221E+02  0.47000000000E+01 0.  1.
          5    1    4    4  503    0 -0.18987633086E+02 -0.31476150299E+02  0.23796441465E+02  0.44041331431E+02  0.47000000000E+01 0. -1.
         -5    1    3    3    0  502 -0.25640601533E+01  0.24195824412E+02  0.58531799997E+02  0.63561575927E+02  0.47000000000E+01 0.  1.
<mgrwt>
<rscale>  0 0.96328309E+02</rscale>
<asrwt>0</asrwt>
<pdfrwt beam="1">  1        2 0.94103994E-02 0.96993462E+02</pdfrwt>
<pdfrwt beam="2">  1       -2 0.23058319E-01 0.96993462E+02</pdfrwt>
<totfact> 0.10306005E+04</totfact>
</mgrwt>
</event>
<event>
 8    1  0.6396648E-004  0.1221159E+03  0.7546771E-02  0.1239789E+00
          2   -1    0    0  501    0  0.00000000000E+00  0.00000000000E+00  0.69398261483E+03  0.69398261483E+03  0.00000000000E+00 0. -1.
         -2   -1    0    0    0  501 -0.00000000000E+00 -0.00000000000E+00 -0.22050716211E+02  0.22050716211E+02  0.00000000000E+00 0.  1.
         23    2    1    2    0    0  0.80629753486E+02  0.11016949119E+01  0.27617955426E+03  0.30197256282E+03  0.91705570304E+02 0.  0.
         23    2    1    2    0    0 -0.80629753486E+02 -0.11016949119E+01  0.39575234436E+03  0.41406076823E+03  0.91236126820E+02 0.  0.
          5    1    4    4  502    0 -0.37133718587E+02 -0.10809733910E+02  0.34140243254E+03  0.34361821015E+03  0.47000000000E+01 0. -1.
         -5    1    4    4    0  502 -0.43496034899E+02  0.97080389981E+01  0.54349911825E+02  0.70442558078E+02  0.47000000000E+01 0.  1.
          5    1    3    3  503    0  0.68797426471E+02  0.39766974658E+02  0.15690087046E+03  0.17593882833E+03  0.47000000000E+01 0. -1.
         -5    1    3    3    0  503  0.11832327015E+02 -0.38665279746E+02  0.11927868379E+03  0.12603373448E+03  0.47000000000E+01 0.  1.
<mgrwt>
<rscale>  0 0.12202773E+03</rscale>
<asrwt>0</asrwt>
<pdfrwt beam="1">  1        2 0.10676654E+00 0.12211586E+03</pdfrwt>
<pdfrwt beam="2">  1       -2 0.33924184E-02 0.12211586E+03</pdfrwt>
<totfact> 0.14099750E+04</totfact>
</mgrwt>
</event>
<event>
 8    1  0.6396648E-004  0.9492779E+02  0.7546771E-02  0.1292383E+00
          1   -1    0    0  501    0  0.00000000000E+00  0.00000000000E+00  0.28606228789E+03  0.28606228789E+03  0.00000000000E+00 0. -1.
         -1   -1    0    0    0  501 -0.00000000000E+00 -0.00000000000E+00 -0.45178563238E+02  0.45178563238E+02  0.00000000000E+00 0.  1.
         23    2    1    2    0    0 -0.16245065381E+02 -0.14983911033E+02  0.28125918348E+02  0.99006835666E+02  0.92319372218E+02 0.  0.
         23    2    1    2    0    0  0.16245065381E+02  0.14983911033E+02  0.21275780631E+03  0.23223401546E+03  0.90434142086E+02 0.  0.
          5    1    3    3  502    0  0.58422782780E+01  0.27808236988E+02  0.39900787343E+02  0.49209684925E+02  0.47000000000E+01 0. -1.
         -5    1    4    4    0  503  0.53207319938E+02  0.10583356229E+02  0.14318238708E+03  0.15318718058E+03  0.47000000000E+01 0. -1.
          5    1    4    4  503    0 -0.36962254558E+02  0.44005548036E+01  0.69575419224E+02  0.79046834881E+02  0.47000000000E+01 0.  1.
         -5    1    3    3    0  502 -0.22087343659E+02 -0.42792148020E+02 -0.11774868995E+02  0.49797150741E+02  0.47000000000E+01 0.  1.
<mgrwt>
<rscale>  0 0.94466343E+02</rscale>
<asrwt>0</asrwt>
<pdfrwt beam="1">  1        1 0.44009582E-01 0.94927795E+02</pdfrwt>
<pdfrwt beam="2">  1       -1 0.69505483E-02 0.94927795E+02</pdfrwt>
<totfact> 0.91485444E+03</totfact>
</mgrwt>
</event>
<event>
 8    1  0.6396648E-004  0.1048981E+03  0.7546771E-02  0.1273249E+00
          2   -1    0    0  501    0  0.00000000000E+00  0.00000000000E+00  0.30253559813E+03  0.30253559813E+03  0.00000000000E+00 0. -1.
         -2   -1    0    0    0  501 -0.00000000000E+00 -0.00000000000E+00 -0.45977796354E+02  0.45977796354E+02  0.00000000000E+00 0.  1.
         23    2    1    2    0    0 -0.35303070411E+02  0.15836467459E+02  0.43577370978E+02  0.11358960549E+03  0.97501337074E+02 0.  0.
         23    2    1    2    0    0  0.35303070411E+02 -0.15836467459E+02  0.21298043080E+03  0.23492378900E+03  0.91276624893E+02 0.  0.
          5    1    3    3  502    0 -0.19394685502E+02  0.56277319228E+02  0.34449974453E+02  0.68936066214E+02  0.47000000000E+01 0. -1.
         -5    1    3    3    0  502 -0.15908384909E+02 -0.40440851769E+02  0.91273965245E+01  0.44653539273E+02  0.47000000000E+01 0.  1.
          5    1    4    4  503    0  0.42627210806E+02 -0.48423863509E+02  0.12602297322E+03  0.14165390725E+03  0.47000000000E+01 0. -1.
         -5    1    4    4    0  503 -0.73241403949E+01  0.32587396050E+02  0.86957457576E+02  0.93269881751E+02  0.47000000000E+01 0.  1.
<mgrwt>
<rscale>  0 0.10342767E+03</rscale>
<asrwt>0</asrwt>
<pdfrwt beam="1">  1        2 0.46543937E-01 0.10489810E+03</pdfrwt>
<pdfrwt beam="2">  1       -2 0.70735073E-02 0.10489810E+03</pdfrwt>
<totfact> 0.11475372E+04</totfact>
</mgrwt>
</event>
<event>
 8    1  0.6396648E-004  0.1719693E+03  0.7546771E-02  0.1182435E+00
          2   -1    0    0  501    0  0.00000000000E+00  0.00000000000E+00  0.11123013800E+04  0.11123013800E+04  0.00000000000E+00 0. -1.
         -2   -1    0    0    0  501 -0.00000000000E+00 -0.00000000000E+00 -0.27175876142E+02  0.27175876142E+02  0.00000000000E+00 0.  1.
         23    2    1    2    0    0 -0.12195170442E+03  0.31243935371E+02  0.35481178819E+03  0.39429028967E+03  0.11715385516E+03 0.  0.
         23    2    1    2    0    0  0.12195170442E+03 -0.31243935371E+02  0.73031371563E+03  0.74518696643E+03  0.78083865179E+02 0.  0.
          5    1    3    3  502    0  0.11948098338E+02  0.35673019955E+02  0.78657513770E+02  0.87317901253E+02  0.47000000000E+01 0. -1.
         -5    1    3    3    0  502 -0.13389980276E+03 -0.44290845844E+01  0.27615427442E+03  0.30697238841E+03  0.47000000000E+01 0.  1.
          5    1    4    4  503    0  0.75437264010E+02  0.17158901265E+02  0.31128760494E+03  0.32079163281E+03  0.47000000000E+01 0. -1.
         -5    1    4    4    0  503  0.46514440411E+02 -0.48402836635E+02  0.41902611069E+03  0.42439533362E+03  0.47000000000E+01 0.  1.
<mgrwt>
<rscale>  0 0.16567474E+03</rscale>
<asrwt>0</asrwt>
<pdfrwt beam="1">  1        2 0.17112325E+00 0.17196926E+03</pdfrwt>
<pdfrwt beam="2">  1       -2 0.41809049E-02 0.17196926E+03</pdfrwt>
<totfact> 0.56872777E+03</totfact>
</mgrwt>
</event>
<event>
 8    1  0.6396648E-004  0.1883051E+03  0.7546771E-02  0.1160112E+00
          1   -1    0    0  501    0  0.00000000000E+00  0.00000000000E+00  0.45884222769E+03  0.45884222769E+03  0.00000000000E+00 0. -1.
         -1   -1    0    0    0  501 -0.00000000000E+00 -0.00000000000E+00 -0.93071394257E+02  0.93071394257E+02  0.00000000000E+00 0.  1.
         23    2    1    2    0    0  0.20867838458E+02  0.16319515443E+03  0.29748775154E+03  0.35207635171E+03  0.91600600497E+02 0.  0.
         23    2    1    2    0    0 -0.20867838458E+02 -0.16319515443E+03  0.68283081899E+02  0.19983727024E+03  0.90577205693E+02 0.  0.
          5    1    3    3  502    0 -0.35391678225E+02  0.67794111327E+02  0.13806348483E+03  0.15789942452E+03  0.47000000000E+01 0. -1.
         -5    1    3    3    0  502  0.56259516683E+02  0.95401043101E+02  0.15942426670E+03  0.19417692720E+03  0.47000000000E+01 0.  1.
          5    1    4    4  503    0  0.16755256224E+02 -0.25562530392E+02  0.45882833618E+02  0.55330877383E+02  0.47000000000E+01 0. -1.
         -5    1    4    4    0  503 -0.37623094682E+02 -0.13763262404E+03  0.22400248281E+02  0.14450639285E+03  0.47000000000E+01 0.  1.
<mgrwt>
<rscale>  0 0.18818101E+03</rscale>
<asrwt>0</asrwt>
<pdfrwt beam="1">  1        1 0.70591111E-01 0.18830506E+03</pdfrwt>
<pdfrwt beam="2">  1       -1 0.14318676E-01 0.18830506E+03</pdfrwt>
<totfact> 0.17389260E+03</totfact>
</mgrwt>
</event>
<event>
 8    1  0.6396648E-004  0.9978741E+02  0.7546771E-02  0.1281661E+00
          4   -1    0    0  501    0  0.00000000000E+00  0.00000000000E+00  0.18295275749E+03  0.18295275749E+03  0.00000000000E+00 0. -1.
         -4   -1    0    0    0  501 -0.00000000000E+00 -0.00000000000E+00 -0.59537899822E+02  0.59537899822E+02  0.00000000000E+00 0.  1.
         23    2    1    2    0    0  0.93306762974E+01  0.33797730603E+02  0.99865266269E+02  0.13996207298E+03  0.91580360074E+02 0.  0.
         23    2    1    2    0    0 -0.93306762974E+01 -0.33797730603E+02  0.23549591396E+02  0.10252858433E+03  0.93424724971E+02 0.  0.
          5    1    4    4  502    0  0.38732099004E+02 -0.31736245628E+02  0.19787886436E+02  0.54046417360E+02  0.47000000000E+01 0. -1.
         -5    1    4    4    0  502 -0.48062775302E+02 -0.20614849759E+01  0.37617049601E+01  0.48482166971E+02  0.47000000000E+01 0.  1.
          5    1    3    3  503    0  0.47170599661E+02  0.20668700961E+02  0.79355052066E+02  0.94718398214E+02  0.47000000000E+01 0. -1.
         -5    1    3    3    0  503 -0.37839923364E+02  0.13129029642E+02  0.20510214203E+02  0.45243674764E+02  0.47000000000E+01 0.  1.
<mgrwt>
<rscale>  0 0.99353432E+02</rscale>
<asrwt>0</asrwt>
<pdfrwt beam="1">  1        4 0.28146578E-01 0.99787411E+02</pdfrwt>
<pdfrwt beam="2">  1       -4 0.91596770E-02 0.99787411E+02</pdfrwt>
<totfact> 0.16161580E+03</totfact>
</mgrwt>
</event>
<event>
 8    1  0.6396648E-004  0.1075349E+03  0.7546771E-02  0.1265283E+00
          2   -1    0    0  501    0  0.00000000000E+00  0.00000000000E+00  0.79750158843E+03  0.79750158843E+03  0.00000000000E+00 0. -1.
         -2   -1    0    0    0  501 -0.00000000000E+00 -0.00000000000E+00 -0.16913948952E+02  0.16913948952E+02  0.00000000000E+00 0.  1.
         23    2    1    2    0    0  0.30001772003E+02 -0.49812776461E+02  0.23600720996E+03  0.25935142564E+03  0.90456286697E+02 0.  0.
         23    2    1    2    0    0 -0.30001772003E+02  0.49812776461E+02  0.54458042951E+03  0.55506411174E+03  0.90260206711E+02 0.  0.
          5    1    4    4  502    0 -0.42375562789E+02  0.70070479458E+02  0.45148245027E+03  0.45887258941E+03  0.47000000000E+01 0. -1.
         -5    1    4    4    0  502  0.12373790786E+02 -0.20257702997E+02  0.93097979245E+02  0.96191522333E+02  0.47000000000E+01 0.  1.
          5    1    3    3  503    0  0.43169283848E+02  0.31682584676E+01  0.15890311587E+03  0.16476017469E+03  0.47000000000E+01 0. -1.
         -5    1    3    3    0  503 -0.13167511845E+02 -0.52981034929E+02  0.77104094094E+02  0.94591250950E+02  0.47000000000E+01 0.  1.
<mgrwt>
<rscale>  0 0.10749367E+03</rscale>
<asrwt>0</asrwt>
<pdfrwt beam="1">  1        2 0.12269252E+00 0.10753492E+03</pdfrwt>
<pdfrwt beam="2">  1       -2 0.26021466E-02 0.10753492E+03</pdfrwt>
<totfact> 0.17408362E+04</totfact>
</mgrwt>
</event>
<event>
 8    1  0.6396648E-004  0.2132799E+03  0.7546771E-02  0.1139555E+00
         -1   -1    0    0    0  501 -0.00000000000E+00  0.00000000000E+00  0.12781316095E+03  0.12781316095E+03  0.00000000000E+00 0.  1.
          1   -1    0    0  501    0  0.00000000000E+00 -0.00000000000E+00 -0.38311756785E+03  0.38311756785E+03  0.00000000000E+00 0. -1.
         23    2    1    2    0    0  0.19295138097E+03 -0.93836499062E+01 -0.20225971822E+03  0.29393415938E+03  0.90388097298E+02 0.  0.
         23    2    1    2    0    0 -0.19295138097E+03  0.93836499062E+01 -0.53044688680E+02  0.21699656941E+03  0.83399543364E+02 0.  0.
          5    1    3    3  502    0  0.10495129725E+03  0.35463659046E+02 -0.13326897100E+03  0.17336422508E+03  0.47000000000E+01 0. -1.
         -5    1    3    3    0  502  0.88000083723E+02 -0.44847308952E+02 -0.68990747227E+02  0.12056993431E+03  0.47000000000E+01 0.  1.
          5    1    4    4  503    0 -0.83340792167E+02  0.76525509221E+01 -0.65756684072E+02  0.10653769603E+03  0.47000000000E+01 0. -1.
         -5    1    4    4    0  503 -0.10961058881E+03  0.17310989841E+01  0.12711995391E+02  0.11045887338E+03  0.47000000000E+01 0.  1.
<mgrwt>
<rscale>  0 0.21255958E+03</rscale>
<asrwt>0</asrwt>
<pdfrwt beam="1">  1        1 0.58941164E-01 0.21327985E+03</pdfrwt>
<pdfrwt beam="2">  1       -1 0.19663563E-01 0.21327985E+03</pdfrwt>
<totfact> 0.13241550E+03</totfact>
</mgrwt>
</event>
<event>
 8    1  0.6396648E-004  0.9267372E+02  0.7546771E-02  0.1297941E+00
         -2   -1    0    0    0  501 -0.00000000000E+00  0.00000000000E+00  0.10788547246E+03  0.10788547246E+03  0.00000000000E+00 0.  1.
          2   -1    0    0  501    0  0.00000000000E+00 -0.00000000000E+00 -0.13119937059E+03  0.13119937059E+03  0.00000000000E+00 0. -1.
         23    2    1    2    0    0  0.14457509325E+02 -0.92984030850E+01  0.64705931013E+02  0.11302776306E+03  0.91065568897E+02 0.  0.
         23    2    1    2    0    0 -0.14457509325E+02  0.92984030850E+01 -0.88019829136E+02  0.12605707999E+03  0.88585649056E+02 0.  0.
          5    1    4    4  502    0 -0.17862459442E+02  0.35371852269E+02 -0.66999557978E+01  0.40462511019E+02  0.47000000000E+01 0. -1.
         -5    1    3    3    0  503  0.52204937423E+02 -0.13990706816E+02  0.40431355386E+02  0.67660031531E+02  0.47000000000E+01 0.  1.
          5    1    3    3  503    0 -0.37747428097E+02  0.46923037314E+01  0.24274575627E+02  0.45367731530E+02  0.47000000000E+01 0.  1.
         -5    1    4    4    0  502  0.34049501162E+01 -0.26073449184E+02 -0.81319873338E+02  0.85594568971E+02  0.47000000000E+01 0.  1.
<mgrwt>
<rscale>  0 0.92058693E+02</rscale>
<asrwt>0</asrwt>
<pdfrwt beam="1">  1        2 0.20184519E-01 0.92673716E+02</pdfrwt>
<pdfrwt beam="2">  1       -2 0.16597765E-01 0.92673716E+02</pdfrwt>
<totfact> 0.72883829E+03</totfact>
</mgrwt>
</event>
<event>
 8    1  0.6396648E-004  0.1468369E+03  0.7546771E-02  0.1205058E+00
         -1   -1    0    0    0  501 -0.00000000000E+00  0.00000000000E+00  0.76799538027E+02  0.76799538027E+02  0.00000000000E+00 0.  1.
          1   -1    0    0  501    0  0.00000000000E+00 -0.00000000000E+00 -0.78563202156E+03  0.78563202156E+03  0.00000000000E+00 0. -1.
         23    2    1    2    0    0  0.74210785835E+02  0.87964206088E+02 -0.70054984439E+03  0.71536124751E+03  0.87901579501E+02 0.  0.
         23    2    1    2    0    0 -0.74210785835E+02 -0.87964206088E+02 -0.82826391470E+01  0.14707031208E+03  0.91192830293E+02 0.  0.
          5    1    4    4  502    0 -0.37653034844E+02 -0.10073078575E+03 -0.93732012725E+01  0.10804808713E+03  0.47000000000E+01 0. -1.
         -5    1    4    4    0  502 -0.36557750991E+02  0.12766579665E+02  0.10905621255E+01  0.39022224945E+02  0.47000000000E+01 0.  1.
          5    1    3    3  503    0  0.62658421873E+02  0.10508453395E+03 -0.62597457930E+03  0.63783626507E+03  0.47000000000E+01 0. -1.
         -5    1    3    3    0  503  0.11552363962E+02 -0.17120327865E+02 -0.74575265086E+02  0.77524982438E+02  0.47000000000E+01 0.  1.
<mgrwt>
<rscale>  0 0.14632901E+03</rscale>
<asrwt>0</asrwt>
<pdfrwt beam="1">  1        1 0.12086647E+00 0.14683690E+03</pdfrwt>
<pdfrwt beam="2">  1       -1 0.11815313E-01 0.14683690E+03</pdfrwt>
<totfact> 0.11129314E+03</totfact>
</mgrwt>
</event>
<event>
 8    1  0.6396648E-004  0.1030930E+03  0.7546771E-02  0.1274756E+00
         -2   -1    0    0    0  501 -0.00000000000E+00  0.00000000000E+00  0.16888891906E+02  0.16888891906E+02  0.00000000000E+00 0.  1.
          2   -1    0    0  501    0  0.00000000000E+00 -0.00000000000E+00 -0.61990478058E+03  0.61990478058E+03  0.00000000000E+00 0. -1.
         23    2    1    2    0    0  0.31925822995E+02  0.29078170232E+02 -0.30855824878E+03  0.32481055253E+03  0.91809062663E+02 0.  0.
         23    2    1    2    0    0 -0.31925822995E+02 -0.29078170232E+02 -0.29445763990E+03  0.31198311996E+03  0.93612858556E+02 0.  0.
          5    1    3    3  502    0  0.31250676944E+02 -0.28949898698E+02 -0.14484870376E+03  0.15105607708E+03  0.47000000000E+01 0. -1.
         -5    1    3    3    0  502  0.67514605101E+00  0.58028068929E+02 -0.16370954502E+03  0.17375447544E+03  0.47000000000E+01 0.  1.
          5    1    4    4  503    0 -0.50655556298E+02 -0.49788060797E+02 -0.16917645243E+03  0.18354181660E+03  0.47000000000E+01 0. -1.
         -5    1    4    4    0  503  0.18729733302E+02  0.20709890565E+02 -0.12528118747E+03  0.12844130336E+03  0.47000000000E+01 0.  1.
<mgrwt>
<rscale>  0 0.10268176E+03</rscale>
<asrwt>0</asrwt>
<pdfrwt beam="1">  1        2 0.95369964E-01 0.10309299E+03</pdfrwt>
<pdfrwt beam="2">  1       -2 0.25982911E-02 0.10309299E+03</pdfrwt>
<totfact> 0.23384304E+04</totfact>
</mgrwt>
</event>
<event>
 8    1  0.6396648E-004  0.1332785E+03  0.7546771E-02  0.1224479E+00
         -1   -1    0    0    0  501 -0.00000000000E+00  0.00000000000E+00  0.20242828789E+03  0.20242828789E+03  0.00000000000E+00 0.  1.
          1   -1    0    0  501    0  0.00000000000E+00 -0.00000000000E+00 -0.14518575697E+03  0.14518575697E+03  0.00000000000E+00 0. -1.
         23    2    1    2    0    0  0.12889595627E+02  0.96405813407E+02  0.14126502267E+03  0.19421373788E+03  0.91120507112E+02 0.  0.
         23    2    1    2    0    0 -0.12889595627E+02 -0.96405813407E+02 -0.84022491753E+02  0.15340030699E+03  0.83735610876E+02 0.  0.
          5    1    4    4  502    0  0.14723623076E+02 -0.57329362118E+02 -0.86886114083E+02  0.10523653195E+03  0.47000000000E+01 0. -1.
         -5    1    3    3    0  503  0.24172142308E+02  0.43311067143E+02  0.12911219611E+03  0.13839143827E+03  0.47000000000E+01 0.  1.
          5    1    3    3  503    0 -0.11282546681E+02  0.53094746264E+02  0.12152826558E+02  0.55822299611E+02  0.47000000000E+01 0. -1.
         -5    1    4    4    0  502 -0.27613218703E+02 -0.39076451289E+02  0.28636223293E+01  0.48163775032E+02  0.47000000000E+01 0.  1.
<mgrwt>
<rscale>  0 0.13202709E+03</rscale>
<asrwt>0</asrwt>
<pdfrwt beam="1">  1        1 0.22336270E-01 0.13327854E+03</pdfrwt>
<pdfrwt beam="2">  1       -1 0.31142814E-01 0.13327854E+03</pdfrwt>
<totfact> 0.20635198E+03</totfact>
</mgrwt>
</event>
<event>
 8    1  0.6396648E-004  0.9950135E+02  0.7546771E-02  0.1284420E+00
          1   -1    0    0  501    0  0.00000000000E+00  0.00000000000E+00  0.18106586957E+03  0.18106586957E+03  0.00000000000E+00 0. -1.
         -1   -1    0    0    0  501 -0.00000000000E+00 -0.00000000000E+00 -0.56363988573E+02  0.56363988573E+02  0.00000000000E+00 0.  1.
         23    2    1    2    0    0 -0.63709851865E+01  0.24488562293E+02  0.29626608018E+02  0.10381837108E+03  0.96230136315E+02 0.  0.
         23    2    1    2    0    0  0.63709851865E+01 -0.24488562293E+02  0.95075272977E+02  0.13361148706E+03  0.90401564189E+02 0.  0.
          5    1    3    3  502    0  0.17617164095E+02  0.52313996060E+02 -0.15260112286E+01  0.55421452207E+02  0.47000000000E+01 0. -1.
         -5    1    4    4    0  503 -0.22376105762E+02 -0.45968258922E+02  0.78514685354E+02  0.93810536474E+02  0.47000000000E+01 0.  1.
          5    1    4    4  503    0  0.28747090949E+02  0.21479696629E+02  0.16560587623E+02  0.39800950588E+02  0.47000000000E+01 0. -1.
         -5    1    3    3    0  502 -0.23988149282E+02 -0.27825433767E+02  0.31152619247E+02  0.48396918871E+02  0.47000000000E+01 0.  1.
<mgrwt>
<rscale>  0 0.98064198E+02</rscale>
<asrwt>0</asrwt>
<pdfrwt beam="1">  1        1 0.27856287E-01 0.99501348E+02</pdfrwt>
<pdfrwt beam="2">  1       -1 0.86713830E-02 0.99501348E+02</pdfrwt>
<totfact> 0.11567332E+04</totfact>
</mgrwt>
</event>
<event>
 8    1  0.6396648E-004  0.9762378E+02  0.7546771E-02  0.1286101E+00
          4   -1    0    0  501    0  0.00000000000E+00  0.00000000000E+00  0.17264563559E+02  0.17264563559E+02  0.00000000000E+00 0. -1.
         -4   -1    0    0    0  501 -0.00000000000E+00 -0.00000000000E+00 -0.54593809513E+03  0.54593809513E+03  0.00000000000E+00 0.  1.
         23    2    1    2    0    0  0.33259662633E+02  0.63197750417E+01 -0.28046572513E+03  0.29697041224E+03  0.91565594277E+02 0.  0.
         23    2    1    2    0    0 -0.33259662633E+02 -0.63197750417E+01 -0.24820780644E+03  0.26623224645E+03  0.90146265363E+02 0.  0.
          5    1    3    3  502    0  0.16729901791E+02  0.28632444697E+02 -0.30117051100E+02  0.45042571754E+02  0.47000000000E+01 0. -1.
         -5    1    4    4    0  503  0.16099419889E+02 -0.34669792284E+02 -0.84967926471E+02  0.93288929389E+02  0.47000000000E+01 0.  1.
          5    1    4    4  503    0 -0.49359082522E+02  0.28350017242E+02 -0.16323987997E+03  0.17294331706E+03  0.47000000000E+01 0. -1.
         -5    1    3    3    0  502  0.16529760842E+02 -0.22312669656E+02 -0.25034867403E+03  0.25192784048E+03  0.47000000000E+01 0.  1.
<mgrwt>
<rscale>  0 0.97289571E+02</rscale>
<asrwt>0</asrwt>
<pdfrwt beam="1">  1        4 0.26560865E-02 0.97623782E+02</pdfrwt>
<pdfrwt beam="2">  1       -4 0.83990482E-01 0.97623782E+02</pdfrwt>
<totfact> 0.12750055E+03</totfact>
</mgrwt>
</event>
<event>
 8    1  0.6396648E-004  0.9576578E+02  0.7546771E-02  0.1289700E+00
         -2   -1    0    0    0  501 -0.00000000000E+00  0.00000000000E+00  0.69296582727E+01  0.69296582727E+01  0.00000000000E+00 0.  1.
          2   -1    0    0  501    0  0.00000000000E+00 -0.00000000000E+00 -0.13666125529E+04  0.13666125529E+04  0.00000000000E+00 0. -1.
         23    2    1    2    0    0 -0.10558578722E+02  0.30515496797E+02 -0.81145243596E+03  0.81708392526E+03  0.90157672835E+02 0.  0.
         23    2    1    2    0    0  0.10558578722E+02 -0.30515496797E+02 -0.54823045867E+03  0.55645828591E+03  0.89702335621E+02 0.  0.
          5    1    4    4  502    0  0.41711460475E+02 -0.27910904600E+02 -0.45965061422E+03  0.46240635991E+03  0.47000000000E+01 0. -1.
         -5    1    3    3    0  503 -0.50176774798E+02  0.13185762324E+02 -0.46671200422E+03  0.46961021916E+03  0.47000000000E+01 0.  1.
          5    1    3    3  503    0  0.39618196076E+02  0.17329734472E+02 -0.34474043174E+03  0.34747370610E+03  0.47000000000E+01 0. -1.
         -5    1    4    4    0  502 -0.31152881753E+02 -0.26045921963E+01 -0.88579844448E+02  0.94051926001E+02  0.47000000000E+01 0.  1.
<mgrwt>
<rscale>  0 0.95658465E+02</rscale>
<asrwt>0</asrwt>
<pdfrwt beam="1">  1        2 0.21024815E+00 0.95765783E+02</pdfrwt>
<pdfrwt beam="2">  1       -2 0.10661010E-02 0.95765783E+02</pdfrwt>
<totfact> 0.29110353E+04</totfact>
</mgrwt>
</event>
<event>
 8    1  0.6396648E-004  0.9318596E+02  0.7546771E-02  0.1295829E+00
         -2   -1    0    0    0  501 -0.00000000000E+00  0.00000000000E+00  0.87186603306E+02  0.87186603306E+02  0.00000000000E+00 0.  1.
          2   -1    0    0  501    0  0.00000000000E+00 -0.00000000000E+00 -0.10055110370E+03  0.10055110370E+03  0.00000000000E+00 0. -1.
         23    2    1    2    0    0  0.13954322293E+02  0.31438398768E+01  0.61782288569E+01  0.93390545474E+02  0.92081575966E+02 0.  0.
         23    2    1    2    0    0 -0.13954322293E+02 -0.31438398768E+01 -0.19542729253E+02  0.94347161534E+02  0.91185863943E+02 0.  0.
          5    1    3    3  502    0 -0.17763527229E+02 -0.34600492508E+02 -0.11459307286E+02  0.40818411347E+02  0.47000000000E+01 0. -1.
         -5    1    4    4    0  503 -0.33441367486E+02  0.34408898238E+02 -0.18464226061E+01  0.48247244623E+02  0.47000000000E+01 0.  1.
          5    1    4    4  503    0  0.19487045193E+02 -0.37552738115E+02 -0.17696306647E+02  0.46099916911E+02  0.47000000000E+01 0. -1.
         -5    1    3    3    0  502  0.31717849522E+02  0.37744332385E+02  0.17637536143E+02  0.52572134127E+02  0.47000000000E+01 0.  1.
<mgrwt>
<rscale>  0 0.92963921E+02</rscale>
<asrwt>0</asrwt>
<pdfrwt beam="1">  1        2 0.15469401E-01 0.93185962E+02</pdfrwt>
<pdfrwt beam="2">  1       -2 0.13413324E-01 0.93185962E+02</pdfrwt>
<totfact> 0.13919796E+04</totfact>
</mgrwt>
</event>
<event>
 8    1  0.6396648E-004  0.1065087E+03  0.7546771E-02  0.1267275E+00
         -1   -1    0    0    0  501 -0.00000000000E+00  0.00000000000E+00  0.36944434713E+02  0.36944434713E+02  0.00000000000E+00 0.  1.
          1   -1    0    0  501    0  0.00000000000E+00 -0.00000000000E+00 -0.49024936872E+03  0.49024936872E+03  0.00000000000E+00 0. -1.
         23    2    1    2    0    0 -0.53065765333E+02  0.11390351853E+02 -0.38818429870E+03  0.40253092884E+03  0.91642693958E+02 0.  0.
         23    2    1    2    0    0  0.53065765333E+02 -0.11390351853E+02 -0.65120635306E+02  0.12466287458E+03  0.91402514142E+02 0.  0.
          5    1    4    4  502    0 -0.19260606525E+02  0.17080573673E+02 -0.58834936280E+01  0.26822051711E+02  0.47000000000E+01 0. -1.
         -5    1    3    3    0  503 -0.24732937938E+02 -0.39915073842E+02 -0.15329387867E+03  0.16039337448E+03  0.47000000000E+01 0.  1.
          5    1    3    3  503    0 -0.28332827394E+02  0.51305425695E+02 -0.23489042003E+03  0.24213755437E+03  0.47000000000E+01 0. -1.
         -5    1    4    4    0  502  0.72326371858E+02 -0.28470925526E+02 -0.59237141678E+02  0.97840822874E+02  0.47000000000E+01 0.  1.
<mgrwt>
<rscale>  0 0.10645700E+03</rscale>
<asrwt>0</asrwt>
<pdfrwt beam="1">  1        1 0.75422980E-01 0.10650868E+03</pdfrwt>
<pdfrwt beam="2">  1       -1 0.56837592E-02 0.10650868E+03</pdfrwt>
<totfact> 0.63559867E+03</totfact>
</mgrwt>
</event>
<event>
 8    1  0.6396648E-004  0.1587461E+03  0.7546771E-02  0.1190361E+00
          2   -1    0    0  501    0  0.00000000000E+00  0.00000000000E+00  0.50900681669E+03  0.50900681669E+03  0.00000000000E+00 0. -1.
         -2   -1    0    0    0  501 -0.00000000000E+00 -0.00000000000E+00 -0.49279885886E+02  0.49279885886E+02  0.00000000000E+00 0.  1.
         23    2    1    2    0    0  0.12034070605E+03 -0.53180557813E+02  0.22319946836E+03  0.27389471188E+03  0.88827097553E+02 0.  0.
         23    2    1    2    0    0 -0.12034070605E+03  0.53180557813E+02  0.23652746245E+03  0.28439199070E+03  0.87312694478E+02 0.  0.
          5    1    3    3  502    0  0.12555351827E+02  0.17787358716E+02  0.70375988365E+02  0.73816642622E+02  0.47000000000E+01 0. -1.
         -5    1    3    3    0  502  0.10778535423E+03 -0.70967916529E+02  0.15282347999E+03  0.20007806926E+03  0.47000000000E+01 0.  1.
          5    1    4    4  503    0 -0.11594511628E+03  0.21420257119E+02  0.21570959042E+03  0.24587560840E+03  0.47000000000E+01 0. -1.
         -5    1    4    4    0  503 -0.43955897706E+01  0.31760300694E+02  0.20817872025E+02  0.38516382298E+02  0.47000000000E+01 0.  1.
<mgrwt>
<rscale>  0 0.15853504E+03</rscale>
<asrwt>0</asrwt>
<pdfrwt beam="1">  1        2 0.78308737E-01 0.15874606E+03</pdfrwt>
<pdfrwt beam="2">  1       -2 0.75815213E-02 0.15874606E+03</pdfrwt>
<totfact> 0.60835173E+03</totfact>
</mgrwt>
</event>
<event>
 8    1  0.6396648E-004  0.1092847E+03  0.7546771E-02  0.1265032E+00
         -1   -1    0    0    0  501 -0.00000000000E+00  0.00000000000E+00  0.17733871022E+02  0.17733871022E+02  0.00000000000E+00 0.  1.
          1   -1    0    0  501    0  0.00000000000E+00 -0.00000000000E+00 -0.66439789910E+03  0.66439789910E+03  0.00000000000E+00 0. -1.
         23    2    1    2    0    0 -0.48586589147E+02  0.74839408057E+01 -0.40561230132E+03  0.42007677028E+03  0.97603729124E+02 0.  0.
         23    2    1    2    0    0  0.48586589147E+02 -0.74839408057E+01 -0.24105172676E+03  0.26205499983E+03  0.90278579682E+02 0.  0.
          5    1    3    3  502    0 -0.56484684072E+02 -0.25549905004E+02 -0.34393406511E+03  0.34950829507E+03  0.47000000000E+01 0. -1.
         -5    1    4    4    0  503  0.56174700202E+02  0.29848704286E+02 -0.16410318124E+03  0.17606386961E+03  0.47000000000E+01 0.  1.
          5    1    4    4  503    0 -0.75881110555E+01 -0.37332645092E+02 -0.76948545522E+02  0.85991130222E+02  0.47000000000E+01 0. -1.
         -5    1    3    3    0  502  0.78980949255E+01  0.33033845809E+02 -0.61678236203E+02  0.70568475211E+02  0.47000000000E+01 0.  1.
<mgrwt>
<rscale>  0 0.10762497E+03</rscale>
<asrwt>0</asrwt>
<pdfrwt beam="1">  1        1 0.10221508E+00 0.10928474E+03</pdfrwt>
<pdfrwt beam="2">  1       -1 0.27282875E-02 0.10928474E+03</pdfrwt>
<totfact> 0.12386854E+04</totfact>
</mgrwt>
</event>
<event>
 8    1  0.6396648E-004  0.9471502E+02  0.7546771E-02  0.1292774E+00
         -1   -1    0    0    0  501 -0.00000000000E+00  0.00000000000E+00  0.42326808864E+03  0.42326808864E+03  0.00000000000E+00 0.  1.
          1   -1    0    0  501    0  0.00000000000E+00 -0.00000000000E+00 -0.35597769273E+02  0.35597769273E+02  0.00000000000E+00 0. -1.
         23    2    1    2    0    0 -0.12960042087E+02 -0.71273221910E+00  0.45013398113E+02  0.10335959850E+03  0.92133218299E+02 0.  0.
         23    2    1    2    0    0  0.12960042087E+02  0.71273221910E+00  0.34265692126E+03  0.35550625942E+03  0.93821448082E+02 0.  0.
          5    1    3    3  502    0 -0.36554197025E+02 -0.29927789972E+02  0.41407997413E+01  0.47656249907E+02  0.47000000000E+01 0. -1.
         -5    1    4    4    0  503 -0.32715600261E+02  0.13689453818E+02  0.69020258049E+02  0.77740579284E+02  0.47000000000E+01 0. -1.
          5    1    4    4  503    0  0.45675642348E+02 -0.12976721599E+02  0.27363666321E+03  0.27776568013E+03  0.47000000000E+01 0.  1.
         -5    1    3    3    0  502  0.23594154938E+02  0.29215057753E+02  0.40872598371E+02  0.55703348592E+02  0.47000000000E+01 0.  1.
<mgrwt>
<rscale>  0 0.94294219E+02</rscale>
<asrwt>0</asrwt>
<pdfrwt beam="1">  1        1 0.54765802E-02 0.94715019E+02</pdfrwt>
<pdfrwt beam="2">  1       -1 0.65118164E-01 0.94715019E+02</pdfrwt>
<totfact> 0.34104541E+03</totfact>
</mgrwt>
</event>
<event>
 8    1  0.6396648E-004  0.9530839E+02  0.7546771E-02  0.1291013E+00
          2   -1    0    0  501    0  0.00000000000E+00  0.00000000000E+00  0.50205040368E+03  0.50205040368E+03  0.00000000000E+00 0. -1.
         -2   -1    0    0    0  501 -0.00000000000E+00 -0.00000000000E+00 -0.18094886221E+02  0.18094886221E+02  0.00000000000E+00 0.  1.
         23    2    1    2    0    0  0.21920060510E+02  0.17265390053E+02  0.26671417669E+03  0.28291651897E+03  0.90148332828E+02 0.  0.
         23    2    1    2    0    0 -0.21920060510E+02 -0.17265390053E+02  0.21724134077E+03  0.23722877093E+03  0.91132359082E+02 0.  0.
          5    1    3    3  502    0 -0.66371209880E+01 -0.33982544862E+02  0.11479096596E+03  0.11999133550E+03  0.47000000000E+01 0. -1.
         -5    1    4    4    0  503  0.19766226892E+02  0.99520722589E+01  0.15840555940E+03  0.16001299546E+03  0.47000000000E+01 0.  1.
          5    1    4    4  503    0 -0.41686287401E+02 -0.27217462312E+02  0.58835781369E+02  0.77215775470E+02  0.47000000000E+01 0. -1.
         -5    1    3    3    0  502  0.28557181498E+02  0.51247934916E+02  0.15192321073E+03  0.16292518347E+03  0.47000000000E+01 0.  1.
<mgrwt>
<rscale>  0 0.95072400E+02</rscale>
<asrwt>0</asrwt>
<pdfrwt beam="1">  1        2 0.77238513E-01 0.95308392E+02</pdfrwt>
<pdfrwt beam="2">  1       -2 0.27838290E-02 0.95308392E+02</pdfrwt>
<totfact> 0.26505639E+04</totfact>
</mgrwt>
</event>
<event>
 8    1  0.6396648E-004  0.9831052E+02  0.7546771E-02  0.1285318E+00
          1   -1    0    0  501    0  0.00000000000E+00  0.00000000000E+00  0.10417607271E+04  0.10417607271E+04  0.00000000000E+00 0. -1.
         -1   -1    0    0    0  501 -0.00000000000E+00 -0.00000000000E+00 -0.11996996602E+02  0.11996996602E+02  0.00000000000E+00 0.  1.
         23    2    1    2    0    0 -0.24851351012E+02  0.18639449961E+02  0.77155905936E+03  0.77747053403E+03  0.90509836335E+02 0.  0.
         23    2    1    2    0    0  0.24851351012E+02 -0.18639449961E+02  0.25820467111E+03  0.27628718963E+03  0.93273470140E+02 0.  0.
          5    1    3    3  502    0 -0.27233513760E+02 -0.32389363402E+02  0.27624075528E+03  0.27950273704E+03  0.47000000000E+01 0. -1.
         -5    1    4    4    0  503  0.20878822156E+02  0.36537616284E+02  0.12492428110E+03  0.13190560498E+03  0.47000000000E+01 0.  1.
          5    1    4    4  503    0  0.39725288569E+01 -0.55177066245E+02  0.13328039001E+03  0.14438158465E+03  0.47000000000E+01 0. -1.
         -5    1    3    3    0  502  0.23821627479E+01  0.51028813364E+02  0.49531830407E+03  0.49796779699E+03  0.47000000000E+01 0.  1.
<mgrwt>
<rscale>  0 0.97649371E+02</rscale>
<asrwt>0</asrwt>
<pdfrwt beam="1">  1        1 0.16027081E+00 0.98310523E+02</pdfrwt>
<pdfrwt beam="2">  1       -1 0.18456926E-02 0.98310523E+02</pdfrwt>
<totfact> 0.10839022E+04</totfact>
</mgrwt>
</event>
<event>
 8    1  0.6396648E-004  0.1137954E+03  0.7546771E-02  0.1264610E+00
         -1   -1    0    0    0  501 -0.00000000000E+00  0.00000000000E+00  0.76579833933E+02  0.76579833933E+02  0.00000000000E+00 0.  1.
          1   -1    0    0  501    0  0.00000000000E+00 -0.00000000000E+00 -0.16246862752E+03  0.16246862752E+03  0.00000000000E+00 0. -1.
         23    2    1    2    0    0 -0.54313433573E+01 -0.10146007973E+02 -0.68293935629E+00  0.11379744333E+03  0.11321197257E+03 0.  0.
         23    2    1    2    0    0  0.54313433573E+01  0.10146007973E+02 -0.85205854229E+02  0.12525101813E+03  0.91078751518E+02 0.  0.
          5    1    4    4  502    0  0.36975419957E+02 -0.24208121991E+02 -0.35067844109E+02  0.56613236454E+02  0.47000000000E+01 0. -1.
         -5    1    4    4    0  502 -0.31544076599E+02  0.34354129963E+02 -0.50138010120E+02  0.68637781672E+02  0.47000000000E+01 0.  1.
          5    1    3    3  503    0  0.32326404394E+02  0.31980089884E+02 -0.24929749660E+02  0.52070192895E+02  0.47000000000E+01 0. -1.
         -5    1    3    3    0  503 -0.37757747751E+02 -0.42126097857E+02  0.24246810303E+02  0.61727250431E+02  0.47000000000E+01 0.  1.
<mgrwt>
<rscale>  0 0.10784690E+03</rscale>
<asrwt>0</asrwt>
<pdfrwt beam="1">  1        1 0.24995173E-01 0.11379539E+03</pdfrwt>
<pdfrwt beam="2">  1       -1 0.11781513E-01 0.11379539E+03</pdfrwt>
<totfact> 0.84083207E+03</totfact>
</mgrwt>
</event>
<event>
 8    1  0.6396648E-004  0.9978262E+02  0.7546771E-02  0.1282866E+00
         -1   -1    0    0    0  501 -0.00000000000E+00  0.00000000000E+00  0.61005688370E+03  0.61005688370E+03  0.00000000000E+00 0.  1.
          1   -1    0    0  501    0  0.00000000000E+00 -0.00000000000E+00 -0.16944150282E+02  0.16944150282E+02  0.00000000000E+00 0. -1.
         23    2    1    2    0    0 -0.29900040668E+02 -0.20753578177E+02  0.38747741773E+03  0.40011913369E+03  0.92907741637E+02 0.  0.
         23    2    1    2    0    0  0.29900040668E+02  0.20753578177E+02  0.20563531569E+03  0.22688190029E+03  0.88683652285E+02 0.  0.
          5    1    4    4  502    0  0.49604734208E+02  0.15741329965E+02  0.59182791148E+02  0.78950059487E+02  0.47000000000E+01 0. -1.
         -5    1    4    4    0  502 -0.19704693540E+02  0.50122482119E+01  0.14645252454E+03  0.14793184080E+03  0.47000000000E+01 0.  1.
          5    1    3    3  503    0  0.12418749839E+02  0.28249748947E+02  0.80229468762E+02  0.86087927847E+02  0.47000000000E+01 0. -1.
         -5    1    3    3    0  503 -0.42318790507E+02 -0.49003327124E+02  0.30724794897E+03  0.31403120585E+03  0.47000000000E+01 0.  1.
<mgrwt>
<rscale>  0 0.98787673E+02</rscale>
<asrwt>0</asrwt>
<pdfrwt beam="1">  1        1 0.26067928E-02 0.99782623E+02</pdfrwt>
<pdfrwt beam="2">  1       -1 0.93854889E-01 0.99782623E+02</pdfrwt>
<totfact> 0.45036289E+03</totfact>
</mgrwt>
</event>
<event>
 8    1  0.6396648E-004  0.1101294E+03  0.7546771E-02  0.1261522E+00
         -3   -1    0    0    0  501 -0.00000000000E+00  0.00000000000E+00  0.27513758122E+03  0.27513758122E+03  0.00000000000E+00 0.  1.
          3   -1    0    0  501    0  0.00000000000E+00 -0.00000000000E+00 -0.46052050829E+02  0.46052050829E+02  0.00000000000E+00 0. -1.
         23    2    1    2    0    0 -0.58431084976E+02 -0.16547560938E+02  0.72414345124E+02  0.12968418830E+03  0.88803929254E+02 0.  0.
         23    2    1    2    0    0  0.58431084976E+02  0.16547560938E+02  0.15667118527E+03  0.19150544375E+03  0.91871982824E+02 0.  0.
          5    1    4    4  502    0  0.62374395067E+02 -0.67494934922E+01  0.45218030522E+02  0.77478262155E+02  0.47000000000E+01 0. -1.
         -5    1    3    3    0  503  0.23536983756E+01  0.30206522136E+02  0.18248487118E+02  0.35680122725E+02  0.47000000000E+01 0.  1.
          5    1    3    3  503    0 -0.60784783352E+02 -0.46754083074E+02  0.54165858006E+02  0.94004065576E+02  0.47000000000E+01 0. -1.
         -5    1    4    4    0  502 -0.39433100903E+01  0.23297054431E+02  0.11145315474E+03  0.11402718159E+03  0.47000000000E+01 0.  1.
<mgrwt>
<rscale>  0 0.10948723E+03</rscale>
<asrwt>0</asrwt>
<pdfrwt beam="1">  1        3 0.70849311E-02 0.11012935E+03</pdfrwt>
<pdfrwt beam="2">  1       -3 0.42328858E-01 0.11012935E+03</pdfrwt>
<totfact> 0.16016125E+03</totfact>
</mgrwt>
</event>
<event>
 8    1  0.6396648E-004  0.1011451E+03  0.7546771E-02  0.1278295E+00
         -2   -1    0    0    0  501 -0.00000000000E+00  0.00000000000E+00  0.77432252447E+02  0.77432252447E+02  0.00000000000E+00 0.  1.
          2   -1    0    0  501    0  0.00000000000E+00 -0.00000000000E+00 -0.13637476817E+03  0.13637476817E+03  0.00000000000E+00 0. -1.
         23    2    1    2    0    0 -0.34768218731E+02  0.29579580228E+02 -0.86399662591E+01  0.10151349622E+03  0.90258297666E+02 0.  0.
         23    2    1    2    0    0  0.34768218731E+02 -0.29579580228E+02 -0.50302549460E+02  0.11229352439E+03  0.89418725882E+02 0.  0.
          5    1    4    4  502    0  0.58084922318E+02  0.13117871476E+01 -0.16208138715E+02  0.60501014428E+02  0.47000000000E+01 0. -1.
         -5    1    3    3    0  503 -0.47888318916E+02 -0.77358673507E+01  0.19763256513E+02  0.52590978697E+02  0.47000000000E+01 0.  1.
          5    1    3    3  503    0  0.13120100185E+02  0.37315447579E+02 -0.28403222772E+02  0.48922517522E+02  0.47000000000E+01 0. -1.
         -5    1    4    4    0  502 -0.23316703587E+02 -0.30891367376E+02 -0.34094410745E+02  0.51792509965E+02  0.47000000000E+01 0.  1.
<mgrwt>
<rscale>  0 0.10095750E+03</rscale>
<asrwt>0</asrwt>
<pdfrwt beam="1">  1        2 0.20980733E-01 0.10114515E+03</pdfrwt>
<pdfrwt beam="2">  1       -2 0.11912654E-01 0.10114515E+03</pdfrwt>
<totfact> 0.11997037E+04</totfact>
</mgrwt>
</event>
<event>
 8    1  0.6396648E-004  0.1018903E+03  0.7546771E-02  0.1278591E+00
          1   -1    0    0  501    0  0.00000000000E+00  0.00000000000E+00  0.70427452445E+03  0.70427452445E+03  0.00000000000E+00 0. -1.
         -1   -1    0    0    0  501 -0.00000000000E+00 -0.00000000000E+00 -0.28029212538E+02  0.28029212538E+02  0.00000000000E+00 0.  1.
         23    2    1    2    0    0 -0.19967134203E+02  0.34771806541E+02  0.83974003694E+02  0.13203508006E+03  0.93668906744E+02 0.  0.
         23    2    1    2    0    0  0.19967134203E+02 -0.34771806541E+02  0.59227130822E+03  0.60026865693E+03  0.89047139084E+02 0.  0.
          5    1    4    4  502    0 -0.33737609098E+02 -0.20096805051E+02  0.18480610380E+03  0.18899072422E+03  0.47000000000E+01 0. -1.
         -5    1    3    3    0  503  0.22020411460E+02 -0.20158461329E+02  0.13186576660E+02  0.32973290525E+02  0.47000000000E+01 0.  1.
          5    1    3    3  503    0 -0.41987545662E+02  0.54930267870E+02  0.70787427034E+02  0.99061789531E+02  0.47000000000E+01 0. -1.
         -5    1    4    4    0  502  0.53704743301E+02 -0.14675001490E+02  0.40746520442E+03  0.41127793271E+03  0.47000000000E+01 0.  1.
<mgrwt>
<rscale>  0 0.10081541E+03</rscale>
<asrwt>0</asrwt>
<pdfrwt beam="1">  1        1 0.10834991E+00 0.10189028E+03</pdfrwt>
<pdfrwt beam="2">  1       -1 0.43121870E-02 0.10189028E+03</pdfrwt>
<totfact> 0.58437768E+03</totfact>
</mgrwt>
</event>
<event>
 8    1  0.6396648E-004  0.1003655E+03  0.7546771E-02  0.1281439E+00
          1   -1    0    0  501    0  0.00000000000E+00  0.00000000000E+00  0.87162298138E+02  0.87162298138E+02  0.00000000000E+00 0. -1.
         -1   -1    0    0    0  501 -0.00000000000E+00 -0.00000000000E+00 -0.19300898067E+03  0.19300898067E+03  0.00000000000E+00 0.  1.
         23    2    1    2    0    0  0.25293298433E+02  0.21765426444E+02 -0.14451385115E+03  0.17594740851E+03  0.94655969985E+02 0.  0.
         23    2    1    2    0    0 -0.25293298433E+02 -0.21765426444E+02  0.38667168624E+02  0.10422387029E+03  0.90851419774E+02 0.  0.
          5    1    4    4  502    0 -0.41670927302E+02  0.23001584358E+02  0.26998703105E+02  0.54923210344E+02  0.47000000000E+01 0. -1.
         -5    1    3    3    0  503  0.53029606689E+02 -0.12904753457E+02 -0.91424971435E+02  0.10657995707E+03  0.47000000000E+01 0.  1.
          5    1    3    3  503    0 -0.27736308255E+02  0.34670179901E+02 -0.53088879718E+02  0.69367451443E+02  0.47000000000E+01 0. -1.
         -5    1    4    4    0  502  0.16377628869E+02 -0.44767010803E+02  0.11668465519E+02  0.49300659946E+02  0.47000000000E+01 0.  1.
<mgrwt>
<rscale>  0 0.99458330E+02</rscale>
<asrwt>0</asrwt>
<pdfrwt beam="1">  1        1 0.13409584E-01 0.10036552E+03</pdfrwt>
<pdfrwt beam="2">  1       -1 0.29693689E-01 0.10036552E+03</pdfrwt>
<totfact> 0.42224998E+03</totfact>
</mgrwt>
</event>
<event>
 7    1  0.6396648E-004  0.3671560E+03  0.7546771E-02  0.1057003E+00
          2   -1    0    0  501    0  0.00000000000E+00  0.00000000000E+00  0.23060825747E+04  0.23060825747E+04  0.00000000000E+00 0. -1.
         -2   -1    0    0    0  501 -0.00000000000E+00 -0.00000000000E+00 -0.64162136729E+02  0.64162136729E+02  0.00000000000E+00 0.  1.
         23    2    1    2    0    0  0.33666074182E+03  0.63708760815E+02  0.69455875413E+03  0.77992030184E+03  0.92003005433E+02 0.  0.
          5    1    3    3  502    0  0.12486288731E+03  0.34638242333E+02  0.36224579300E+03  0.38475271669E+03  0.47000000000E+01 0. -1.
         -5    1    1    2    0  503 -0.52213752392E+02  0.36789738986E+02  0.22197639725E+03  0.23103110563E+03  0.47000000000E+01 0.  1.
          5    1    1    2  503    0 -0.28444698943E+03 -0.10049849980E+03  0.13253852866E+04  0.13592933040E+04  0.47000000000E+01 0. -1.
         -5    1    3    3    0  502  0.21179785451E+03  0.29070518482E+02  0.33231296113E+03  0.39516758515E+03  0.47000000000E+01 0.  1.
<mgrwt>
<rscale>  0 0.36402030E+03</rscale>
<asrwt>0</asrwt>
<pdfrwt beam="1">  1        2 0.35478187E+00 0.36715603E+03</pdfrwt>
<pdfrwt beam="2">  1       -2 0.98710997E-02 0.36715603E+03</pdfrwt>
<totfact> 0.34041755E+02</totfact>
</mgrwt>
</event>
<event>
 8    1  0.6396648E-004  0.1552284E+03  0.7546771E-02  0.1199234E+00
         -1   -1    0    0    0  501 -0.00000000000E+00  0.00000000000E+00  0.10876673575E+03  0.10876673575E+03  0.00000000000E+00 0.  1.
          1   -1    0    0  501    0  0.00000000000E+00 -0.00000000000E+00 -0.19921547116E+03  0.19921547116E+03  0.00000000000E+00 0. -1.
         23    2    1    2    0    0 -0.23940090134E+02  0.10177774388E+03 -0.38114079480E+02  0.14416897457E+03  0.91652458278E+02 0.  0.
         23    2    1    2    0    0  0.23940090134E+02 -0.10177774388E+03 -0.52334655929E+02  0.16381323234E+03  0.11473457114E+03 0.  0.
          5    1    4    4  502    0 -0.32303742319E+02 -0.83618132849E+02 -0.86736293358E+01  0.90182291803E+02  0.47000000000E+01 0. -1.
         -5    1    3    3    0  503 -0.41048788862E+01  0.78702984497E+02 -0.65790449434E+02  0.10276907626E+03  0.47000000000E+01 0. -1.
          5    1    3    3  503    0 -0.19835211248E+02  0.23074759386E+02  0.27676369954E+02  0.41399898306E+02  0.47000000000E+01 0.  1.
         -5    1    4    4    0  502  0.56243832453E+02 -0.18159611034E+02 -0.43661026593E+02  0.73630940542E+02  0.47000000000E+01 0.  1.
<mgrwt>
<rscale>  0 0.15101255E+03</rscale>
<asrwt>0</asrwt>
<pdfrwt beam="1">  1        1 0.30648534E-01 0.15522841E+03</pdfrwt>
<pdfrwt beam="2">  1       -1 0.16733344E-01 0.15522841E+03</pdfrwt>
<totfact> 0.38494871E+03</totfact>
</mgrwt>
</event>
<event>
 8    1  0.6396648E-004  0.9456552E+02  0.7546771E-02  0.1294393E+00
          2   -1    0    0  501    0  0.00000000000E+00  0.00000000000E+00  0.33736557386E+03  0.33736557386E+03  0.00000000000E+00 0. -1.
         -2   -1    0    0    0  501 -0.00000000000E+00 -0.00000000000E+00 -0.26814773950E+02  0.26814773950E+02  0.00000000000E+00 0.  1.
         23    2    1    2    0    0  0.13388825802E+01 -0.12572250747E+02  0.19960714237E+03  0.22087473550E+03  0.93716505490E+02 0.  0.
         23    2    1    2    0    0 -0.13388825802E+01  0.12572250747E+02  0.11094365754E+03  0.14330561231E+03  0.89822877243E+02 0.  0.
          5    1    3    3  502    0 -0.19941042017E+02 -0.37441460505E+02  0.17370316279E+03  0.17886974838E+03  0.47000000000E+01 0. -1.
         -5    1    4    4    0  503  0.12281498923E+02 -0.36134723385E+02  0.60739417431E+02  0.71888248552E+02  0.47000000000E+01 0.  1.
          5    1    4    4  503    0 -0.13620381504E+02  0.48706974133E+02  0.50204240106E+02  0.71417363757E+02  0.47000000000E+01 0. -1.
         -5    1    3    3    0  502  0.21279924598E+02  0.24869209758E+02  0.25903979576E+02  0.42004987117E+02  0.47000000000E+01 0.  1.
<mgrwt>
<rscale>  0 0.93586115E+02</rscale>
<asrwt>0</asrwt>
<pdfrwt beam="1">  1        2 0.51902393E-01 0.94565520E+02</pdfrwt>
<pdfrwt beam="2">  1       -2 0.41253501E-02 0.94565520E+02</pdfrwt>
<totfact> 0.22708605E+04</totfact>
</mgrwt>
</event>
<event>
 8    1  0.6396648E-004  0.1635030E+03  0.7546771E-02  0.1185173E+00
         -2   -1    0    0    0  501 -0.00000000000E+00  0.00000000000E+00  0.16075101086E+02  0.16075101086E+02  0.00000000000E+00 0.  1.
          2   -1    0    0  501    0  0.00000000000E+00 -0.00000000000E+00 -0.19429250721E+04  0.19429250721E+04  0.00000000000E+00 0. -1.
         23    2    1    2    0    0 -0.82624692113E+02  0.10636621523E+03 -0.13408404174E+04  0.13506085008E+04  0.90275610357E+02 0.  0.
         23    2    1    2    0    0  0.82624692113E+02 -0.10636621523E+03 -0.58600955357E+03  0.60839167241E+03  0.92696379081E+02 0.  0.
          5    1    3    3  502    0 -0.56849778849E+02  0.11181970939E+03 -0.12378248822E+04  0.12441736510E+04  0.47000000000E+01 0. -1.
         -5    1    3    3    0  502 -0.25774913264E+02 -0.54534941561E+01 -0.10301553521E+03  0.10643484978E+03  0.47000000000E+01 0.  1.
          5    1    4    4  503    0  0.44483573215E+02 -0.27248165417E+01 -0.26795336769E+03  0.27167500836E+03  0.47000000000E+01 0. -1.
         -5    1    4    4    0  503  0.38141118897E+02 -0.10364139869E+03 -0.31805618588E+03  0.33671666405E+03  0.47000000000E+01 0.  1.
<mgrwt>
<rscale>  0 0.16316189E+03</rscale>
<asrwt>0</asrwt>
<pdfrwt beam="1">  1        2 0.29891136E+00 0.16350300E+03</pdfrwt>
<pdfrwt beam="2">  1       -2 0.24730940E-02 0.16350300E+03</pdfrwt>
<totfact> 0.44799682E+03</totfact>
</mgrwt>
</event>
<event>
 8    1  0.6396648E-004  0.9276611E+02  0.7546771E-02  0.1296741E+00
          2   -1    0    0  501    0  0.00000000000E+00  0.00000000000E+00  0.48620713047E+02  0.48620713047E+02  0.00000000000E+00 0. -1.
         -2   -1    0    0    0  501 -0.00000000000E+00 -0.00000000000E+00 -0.33469652717E+03  0.33469652717E+03  0.00000000000E+00 0.  1.
         23    2    1    2    0    0  0.18286282750E+02 -0.57075148873E+00 -0.11179093436E+02  0.93437271920E+02  0.90944146375E+02 0.  0.
         23    2    1    2    0    0 -0.18286282750E+02  0.57075148873E+00 -0.27489672069E+03  0.28987996830E+03  0.90152510120E+02 0.  0.
          5    1    4    4  502    0  0.35858896011E+02 -0.77871409525E+01 -0.11244276977E+03  0.11837215239E+03  0.47000000000E+01 0. -1.
         -5    1    3    3    0  503 -0.21878837178E+02 -0.22839128126E+02  0.20013670159E+02  0.37721960223E+02  0.47000000000E+01 0.  1.
          5    1    3    3  503    0  0.40165119928E+02  0.22268376637E+02 -0.31192763595E+02  0.55715311698E+02  0.47000000000E+01 0. -1.
         -5    1    4    4    0  502 -0.54145178761E+02  0.83578924413E+01 -0.16245395092E+03  0.17150781591E+03  0.47000000000E+01 0.  1.
<mgrwt>
<rscale>  0 0.92571512E+02</rscale>
<asrwt>0</asrwt>
<pdfrwt beam="1">  1        2 0.74801097E-02 0.92766113E+02</pdfrwt>
<pdfrwt beam="2">  1       -2 0.51491773E-01 0.92766113E+02</pdfrwt>
<totfact> 0.31279209E+03</totfact>
</mgrwt>
</event>
<event>
 8    1  0.6396648E-004  0.9686300E+02  0.7546771E-02  0.1287922E+00
          2   -1    0    0  501    0  0.00000000000E+00  0.00000000000E+00  0.28445605053E+03  0.28445605053E+03  0.00000000000E+00 0. -1.
         -2   -1    0    0    0  501 -0.00000000000E+00 -0.00000000000E+00 -0.38771852861E+02  0.38771852861E+02  0.00000000000E+00 0.  1.
         23    2    1    2    0    0 -0.26225489983E+02  0.18500404895E+01  0.58390671745E+02  0.11310133157E+03  0.93226829191E+02 0.  0.
         23    2    1    2    0    0  0.26225489983E+02 -0.18500404895E+01  0.18729352593E+03  0.21012657183E+03  0.91559337910E+02 0.  0.
          5    1    4    4  502    0 -0.15731208157E+02  0.32024681387E+02  0.11020423414E+03  0.11593150715E+03  0.47000000000E+01 0. -1.
         -5    1    3    3    0  503 -0.40997725810E+02  0.23465547186E+02  0.69590539409E+02  0.84240005945E+02  0.47000000000E+01 0.  1.
          5    1    3    3  503    0  0.14772235827E+02 -0.21615506697E+02 -0.11199867663E+02  0.28861325624E+02  0.47000000000E+01 0. -1.
         -5    1    4    4    0  502  0.41956698140E+02 -0.33874721876E+02  0.77089291791E+02  0.94195064679E+02  0.47000000000E+01 0.  1.
<mgrwt>
<rscale>  0 0.96459531E+02</rscale>
<asrwt>0</asrwt>
<pdfrwt beam="1">  1        2 0.43762468E-01 0.96862999E+02</pdfrwt>
<pdfrwt beam="2">  1       -2 0.59649006E-02 0.96862999E+02</pdfrwt>
<totfact> 0.15725256E+04</totfact>
</mgrwt>
</event>
<event>
 8    1  0.6396648E-004  0.9985373E+02  0.7546771E-02  0.1284863E+00
          2   -1    0    0  501    0  0.00000000000E+00  0.00000000000E+00  0.25555931990E+03  0.25555931990E+03  0.00000000000E+00 0. -1.
         -2   -1    0    0    0  501 -0.00000000000E+00 -0.00000000000E+00 -0.36337784349E+02  0.36337784349E+02  0.00000000000E+00 0.  1.
         23    2    1    2    0    0  0.27503363754E+02 -0.29897755646E+02  0.10100269845E+03  0.14202926783E+03  0.91216539161E+02 0.  0.
         23    2    1    2    0    0 -0.27503363754E+02  0.29897755646E+02  0.11821883710E+03  0.14986783641E+03  0.82670213110E+02 0.  0.
          5    1    3    3  502    0 -0.24250948566E+02  0.16655524576E+02  0.25374263727E+02  0.39133850627E+02  0.47000000000E+01 0.  1.
         -5    1    3    3    0  502  0.51754312320E+02 -0.46553280222E+02  0.75628434720E+02  0.10289541720E+03  0.47000000000E+01 0. -1.
          5    1    4    4  503    0 -0.62489151180E+01  0.56766315556E+02  0.78785215785E+02  0.97420037714E+02  0.47000000000E+01 0. -1.
         -5    1    4    4    0  503 -0.21254448636E+02 -0.26868559910E+02  0.39433621316E+02  0.52447798700E+02  0.47000000000E+01 0.  1.
<mgrwt>
<rscale>  0 0.97859418E+02</rscale>
<asrwt>0</asrwt>
<pdfrwt beam="1">  1        2 0.39316817E-01 0.99853732E+02</pdfrwt>
<pdfrwt beam="2">  1       -2 0.55904285E-02 0.99853732E+02</pdfrwt>
<totfact> 0.19452900E+04</totfact>
</mgrwt>
</event>
<event>
 8    1  0.6396648E-004  0.1789932E+03  0.7546771E-02  0.1170239E+00
         -4   -1    0    0    0  501 -0.00000000000E+00  0.00000000000E+00  0.17087116701E+03  0.17087116701E+03  0.00000000000E+00 0.  1.
          4   -1    0    0  501    0  0.00000000000E+00 -0.00000000000E+00 -0.31197930329E+03  0.31197930329E+03  0.00000000000E+00 0. -1.
         23    2    1    2    0    0  0.79678299604E+02 -0.13145058398E+03  0.86311950817E+02  0.19343992787E+03  0.79632690426E+02 0.  0.
         23    2    1    2    0    0 -0.79678299604E+02  0.13145058398E+03 -0.22742008710E+03  0.28941054242E+03  0.91709751911E+02 0.  0.
          5    1    4    4  502    0 -0.61654220928E+02  0.10701875235E+03 -0.22725078060E+03  0.25868757913E+03  0.47000000000E+01 0. -1.
         -5    1    3    3    0  503 -0.30663318257E+01 -0.64624656925E+02  0.46341139016E+02  0.79720385341E+02  0.47000000000E+01 0.  1.
          5    1    3    3  503    0  0.82744631430E+02 -0.66825927053E+02  0.39970811801E+02  0.11371954253E+03  0.47000000000E+01 0. -1.
         -5    1    4    4    0  502 -0.18024078677E+02  0.24431831623E+02 -0.16930649278E+00  0.30722963290E+02  0.47000000000E+01 0.  1.
<mgrwt>
<rscale>  0 0.17750553E+03</rscale>
<asrwt>0</asrwt>
<pdfrwt beam="1">  1        4 0.47996816E-01 0.17899320E+03</pdfrwt>
<pdfrwt beam="2">  1       -4 0.26287872E-01 0.17899320E+03</pdfrwt>
<totfact> 0.10065214E+02</totfact>
</mgrwt>
</event>
<event>
 8    1  0.6396648E-004  0.9175324E+02  0.7546771E-02  0.1304270E+00
          3   -1    0    0  501    0  0.00000000000E+00  0.00000000000E+00  0.24702504564E+02  0.24702504564E+02  0.00000000000E+00 0. -1.
         -3   -1    0    0    0  501 -0.00000000000E+00 -0.00000000000E+00 -0.33622885059E+03  0.33622885059E+03  0.00000000000E+00 0.  1.
         23    2    1    2    0    0  0.21375049005E+02 -0.36313657075E+00 -0.11109315276E+03  0.14408450864E+03  0.89227980194E+02 0.  0.
         23    2    1    2    0    0 -0.21375049005E+02  0.36313657075E+00 -0.20043319326E+03  0.21684684652E+03  0.79950392720E+02 0.  0.
          5    1    4    4  502    0  0.21130683532E+02  0.11974028978E+02 -0.13850800135E+03  0.14069982088E+03  0.47000000000E+01 0. -1.
         -5    1    3    3    0  503  0.65767783373E+01 -0.32927659506E+02 -0.10112271896E+03  0.10665542210E+03  0.47000000000E+01 0.  1.
          5    1    3    3  503    0  0.14798270668E+02  0.32564522935E+02 -0.99704338089E+01  0.37429086538E+02  0.47000000000E+01 0. -1.
         -5    1    4    4    0  502 -0.42505732537E+02 -0.11610892407E+02 -0.61925191911E+02  0.76147025643E+02  0.47000000000E+01 0.  1.
<mgrwt>
<rscale>  0 0.89417014E+02</rscale>
<asrwt>0</asrwt>
<pdfrwt beam="1">  1        3 0.38003857E-02 0.91753240E+02</pdfrwt>
<pdfrwt beam="2">  1       -3 0.51727510E-01 0.91753240E+02</pdfrwt>
<totfact> 0.27811541E+03</totfact>
</mgrwt>
</event>
<event>
 8    1  0.6396648E-004  0.1026822E+03  0.7546771E-02  0.1283129E+00
         -1   -1    0    0    0  501 -0.00000000000E+00  0.00000000000E+00  0.41337385359E+03  0.41337385359E+03  0.00000000000E+00 0.  1.
          1   -1    0    0  501    0  0.00000000000E+00 -0.00000000000E+00 -0.22341325753E+02  0.22341325753E+02  0.00000000000E+00 0. -1.
         23    2    1    2    0    0  0.25495487505E+01  0.16616856677E+01  0.24191569688E+03  0.26280570623E+03  0.10263709579E+03 0.  0.
         23    2    1    2    0    0 -0.25495487505E+01 -0.16616856677E+01  0.14911683096E+03  0.17290947312E+03  0.87479113043E+02 0.  0.
          5    1    4    4  502    0  0.91768613483E+01  0.41050334666E+02  0.62047964475E+02  0.75109151612E+02  0.47000000000E+01 0. -1.
         -5    1    3    3    0  503 -0.10264035443E+02  0.35498293286E+02  0.30158016048E+02  0.47927812194E+02  0.47000000000E+01 0.  1.
          5    1    3    3  503    0  0.12813584193E+02 -0.33836607618E+02  0.21175768083E+03  0.21487789403E+03  0.47000000000E+01 0. -1.
         -5    1    4    4    0  502 -0.11726410099E+02 -0.42712020334E+02  0.87068866487E+02  0.97800321503E+02  0.47000000000E+01 0.  1.
<mgrwt>
<rscale>  0 0.98665004E+02</rscale>
<asrwt>0</asrwt>
<pdfrwt beam="1">  1        1 0.34371273E-02 0.10268220E+03</pdfrwt>
<pdfrwt beam="2">  1       -1 0.63595972E-01 0.10268220E+03</pdfrwt>
<totfact> 0.67654675E+03</totfact>
</mgrwt>
</event>
<event>
 8    1  0.6396648E-004  0.9977627E+02  0.7546771E-02  0.1282970E+00
          1   -1    0    0  501    0  0.00000000000E+00  0.00000000000E+00  0.21525928762E+03  0.21525928762E+03  0.00000000000E+00 0. -1.
         -1   -1    0    0    0  501 -0.00000000000E+00 -0.00000000000E+00 -0.95571632899E+02  0.95571632899E+02  0.00000000000E+00 0.  1.
         23    2    1    2    0    0 -0.29288886901E+02 -0.20005727571E+02 -0.53314811546E+02  0.11312723965E+03  0.93258968410E+02 0.  0.
         23    2    1    2    0    0  0.29288886901E+02  0.20005727571E+02  0.17300246627E+03  0.19770368088E+03  0.88875328770E+02 0.  0.
          5    1    4    4  502    0 -0.14385346472E+02  0.42328934512E+02  0.99871800384E+02  0.10952234202E+03  0.47000000000E+01 0.  1.
         -5    1    3    3    0  503 -0.58226509108E+02 -0.27682495922E+01 -0.53288153593E+02  0.79118309399E+02  0.47000000000E+01 0.  1.
          5    1    3    3  503    0  0.28937622207E+02 -0.17237477979E+02 -0.26657952563E-01  0.34008930250E+02  0.47000000000E+01 0. -1.
         -5    1    4    4    0  502  0.43674233372E+02 -0.22323206941E+02  0.73130665887E+02  0.88181338853E+02  0.47000000000E+01 0. -1.
<mgrwt>
<rscale>  0 0.98739051E+02</rscale>
<asrwt>0</asrwt>
<pdfrwt beam="1">  1        1 0.33116813E-01 0.99776266E+02</pdfrwt>
<pdfrwt beam="2">  1       -1 0.14703328E-01 0.99776266E+02</pdfrwt>
<totfact> 0.41785265E+03</totfact>
</mgrwt>
</event>
<event>
 8    1  0.6396648E-004  0.2023043E+03  0.7546771E-02  0.1147978E+00
         -3   -1    0    0    0  501 -0.00000000000E+00  0.00000000000E+00  0.12596910559E+04  0.12596910559E+04  0.00000000000E+00 0.  1.
          3   -1    0    0  501    0  0.00000000000E+00 -0.00000000000E+00 -0.32765286634E+02  0.32765286634E+02  0.00000000000E+00 0. -1.
         23    2    1    2    0    0 -0.15262542669E+03  0.96055975799E+02  0.54275786564E+03  0.57923496435E+03  0.91682996536E+02 0.  0.
         23    2    1    2    0    0  0.15262542669E+03 -0.96055975799E+02  0.68416790363E+03  0.71322137818E+03  0.89876262622E+02 0.  0.
          5    1    3    3  502    0 -0.44444246865E+02 -0.14445499447E+02  0.10806151163E+03  0.11782760215E+03  0.47000000000E+01 0. -1.
         -5    1    3    3    0  502 -0.10818117983E+03  0.11050147525E+03  0.43469635401E+03  0.46140736220E+03  0.47000000000E+01 0.  1.
          5    1    4    4  503    0  0.93316534028E+02 -0.10329355258E+03  0.42614794597E+03  0.44833212620E+03  0.47000000000E+01 0. -1.
         -5    1    4    4    0  503  0.59308892666E+02  0.72375767818E+01  0.25801995766E+03  0.26488925198E+03  0.47000000000E+01 0.  1.
<mgrwt>
<rscale>  0 0.20210094E+03</rscale>
<asrwt>0</asrwt>
<pdfrwt beam="1">  1        3 0.50408143E-02 0.20230433E+03</pdfrwt>
<pdfrwt beam="2">  1       -3 0.19379859E+00 0.20230433E+03</pdfrwt>
<totfact> 0.96154935E+01</totfact>
</mgrwt>
</event>
<event>
 8    1  0.6396648E-004  0.1395543E+03  0.7546771E-02  0.1214031E+00
          3   -1    0    0  501    0  0.00000000000E+00  0.00000000000E+00  0.64964718878E+02  0.64964718878E+02  0.00000000000E+00 0. -1.
         -3   -1    0    0    0  501 -0.00000000000E+00 -0.00000000000E+00 -0.31760184187E+03  0.31760184187E+03  0.00000000000E+00 0.  1.
         23    2    1    2    0    0  0.10560055183E+03 -0.40527940484E+01 -0.80072430050E+02  0.16063422130E+03  0.90685485667E+02 0.  0.
         23    2    1    2    0    0 -0.10560055183E+03  0.40527940484E+01 -0.17256469294E+03  0.22193233945E+03  0.91145424228E+02 0.  0.
          5    1    3    3  502    0  0.76308905462E+02 -0.38747676436E+01 -0.99224655945E+02  0.12532232532E+03  0.47000000000E+01 0.  1.
         -5    1    4    4    0  503 -0.94019030230E+01  0.32800819301E+02 -0.21896579587E+02  0.40814699862E+02  0.47000000000E+01 0.  1.
          5    1    4    4  503    0 -0.96198648808E+02 -0.28748025252E+02 -0.15066811335E+03  0.18111763959E+03  0.47000000000E+01 0. -1.
         -5    1    3    3    0  502  0.29291646369E+02 -0.17802640485E+00  0.19152225895E+02  0.35311895972E+02  0.47000000000E+01 0. -1.
<mgrwt>
<rscale>  0 0.13947920E+03</rscale>
<asrwt>0</asrwt>
<pdfrwt beam="1">  1        3 0.99945722E-02 0.13955425E+03</pdfrwt>
<pdfrwt beam="2">  1       -3 0.48861822E-01 0.13955425E+03</pdfrwt>
<totfact> 0.71752305E+02</totfact>
</mgrwt>
</event>
<event>
 8    1  0.6396648E-004  0.9795905E+02  0.7546771E-02  0.1286467E+00
         -2   -1    0    0    0  501 -0.00000000000E+00  0.00000000000E+00  0.89400719962E+02  0.89400719962E+02  0.00000000000E+00 0.  1.
          2   -1    0    0  501    0  0.00000000000E+00 -0.00000000000E+00 -0.11425244377E+03  0.11425244377E+03  0.00000000000E+00 0. -1.
         23    2    1    2    0    0  0.27486128738E+02 -0.13060971865E+02 -0.43107760162E+02  0.10400749780E+03  0.89628144868E+02 0.  0.
         23    2    1    2    0    0 -0.27486128738E+02  0.13060971865E+02  0.18256036355E+02  0.99645665935E+02  0.93112295735E+02 0.  0.
          5    1    4    4  502    0 -0.27657438246E+02 -0.37612166350E+02  0.11474408630E+02  0.48304875543E+02  0.47000000000E+01 0. -1.
         -5    1    4    4    0  502  0.17130950817E+00  0.50673138214E+02  0.67816277249E+01  0.51340790392E+02  0.47000000000E+01 0.  1.
          5    1    3    3  503    0 -0.24796298382E+02 -0.29845246088E+01  0.11231811209E+02  0.27785020850E+02  0.47000000000E+01 0. -1.
         -5    1    3    3    0  503  0.52282427120E+02 -0.10076447256E+02 -0.54339571372E+02  0.76222476945E+02  0.47000000000E+01 0.  1.
<mgrwt>
<rscale>  0 0.97121990E+02</rscale>
<asrwt>0</asrwt>
<pdfrwt beam="1">  1        2 0.17577299E-01 0.97959052E+02</pdfrwt>
<pdfrwt beam="2">  1       -2 0.13753957E-01 0.97959052E+02</pdfrwt>
<totfact> 0.11607860E+04</totfact>
</mgrwt>
</event>
<event>
 7    1  0.6396648E-004  0.1534350E+03  0.7546771E-02  0.1208383E+00
         -2   -1    0    0    0  501 -0.00000000000E+00  0.00000000000E+00  0.20206339295E+02  0.20206339295E+02  0.00000000000E+00 0.  1.
          2   -1    0    0  501    0  0.00000000000E+00 -0.00000000000E+00 -0.10911936245E+04  0.10911936245E+04  0.00000000000E+00 0. -1.
         23    2    1    2    0    0 -0.75346095488E+02  0.78732588753E+01 -0.25422166815E+03  0.28034739945E+03  0.90702731557E+02 0.  0.
          5    1    3    3  502    0 -0.94474590926E+00  0.37150011170E+02 -0.94951740446E+02  0.10207320358E+03  0.47000000000E+01 0. -1.
         -5    1    3    3    0  502 -0.74401349579E+02 -0.29276752295E+02 -0.15926992771E+03  0.17827419588E+03  0.47000000000E+01 0.  1.
          5    1    1    2  503    0  0.31148583098E+02  0.60640750643E+02 -0.46075462185E+03  0.46579442507E+03  0.47000000000E+01 0. -1.
         -5    1    1    2    0  503  0.44197512390E+02 -0.68514009518E+02 -0.35601099524E+03  0.36525813931E+03  0.47000000000E+01 0.  1.
<mgrwt>
<rscale>  0 0.14373989E+03</rscale>
<asrwt>0</asrwt>
<pdfrwt beam="1">  1        2 0.16787596E+00 0.15343497E+03</pdfrwt>
<pdfrwt beam="2">  1       -2 0.31086672E-02 0.15343497E+03</pdfrwt>
<totfact> 0.90446723E+03</totfact>
</mgrwt>
</event>
<event>
 8    1  0.6396648E-004  0.9052532E+02  0.7546771E-02  0.1301869E+00
          1   -1    0    0  501    0  0.00000000000E+00  0.00000000000E+00  0.10265078673E+03  0.10265078673E+03  0.00000000000E+00 0. -1.
         -1   -1    0    0    0  501 -0.00000000000E+00 -0.00000000000E+00 -0.85360208746E+02  0.85360208746E+02  0.00000000000E+00 0.  1.
         23    2    1    2    0    0  0.23589510797E+02  0.22931841825E+01  0.33472955552E+02  0.96515653989E+02  0.87367665633E+02 0.  0.
         23    2    1    2    0    0 -0.23589510797E+02 -0.22931841825E+01 -0.16182377564E+02  0.91495341492E+02  0.86878101140E+02 0.  0.
          5    1    3    3  502    0  0.95911823334E+00  0.39745228844E+02 -0.18605558934E+01  0.40076861054E+02  0.47000000000E+01 0. -1.
         -5    1    3    3    0  502  0.22630392564E+02 -0.37452044662E+02  0.35333511446E+02  0.56438792936E+02  0.47000000000E+01 0.  1.
          5    1    4    4  503    0  0.12881380142E+02  0.15451343445E+02  0.25720479766E+02  0.32989499057E+02  0.47000000000E+01 0. -1.
         -5    1    4    4    0  503 -0.36470890940E+02 -0.17744527627E+02 -0.41902857330E+02  0.58505842435E+02  0.47000000000E+01 0.  1.
<mgrwt>
<rscale>  0 0.90406984E+02</rscale>
<asrwt>0</asrwt>
<pdfrwt beam="1">  1        1 0.15792429E-01 0.90525315E+02</pdfrwt>
<pdfrwt beam="2">  1       -1 0.13132340E-01 0.90525315E+02</pdfrwt>
<totfact> 0.12442181E+04</totfact>
</mgrwt>
</event>
<event>
 8    1  0.6396648E-004  0.1238210E+03  0.7546771E-02  0.1237176E+00
         -2   -1    0    0    0  501 -0.00000000000E+00  0.00000000000E+00  0.69060368567E+03  0.69060368567E+03  0.00000000000E+00 0.  1.
          2   -1    0    0  501    0  0.00000000000E+00 -0.00000000000E+00 -0.32538064474E+02  0.32538064474E+02  0.00000000000E+00 0. -1.
         23    2    1    2    0    0  0.44961500140E+02  0.68816496184E+02  0.53338071185E+03  0.54742044252E+03  0.91743721703E+02 0.  0.
         23    2    1    2    0    0 -0.44961500140E+02 -0.68816496184E+02  0.12468490935E+03  0.17572130763E+03  0.92598081475E+02 0.  0.
          5    1    4    4  502    0 -0.63695052151E+02 -0.13568239068E+02  0.66007290244E+02  0.92845081427E+02  0.47000000000E+01 0. -1.
         -5    1    4    4    0  502  0.18733552011E+02 -0.55248257116E+02  0.58677619104E+02  0.82876226199E+02  0.47000000000E+01 0.  1.
          5    1    3    3  503    0  0.27219967325E+02  0.78361884459E+02  0.50765057473E+03  0.51440519785E+03  0.47000000000E+01 0. -1.
         -5    1    3    3    0  503  0.17741532816E+02 -0.95453882752E+01  0.25730137121E+02  0.33015244664E+02  0.47000000000E+01 0.  1.
<mgrwt>
<rscale>  0 0.12366133E+03</rscale>
<asrwt>0</asrwt>
<pdfrwt beam="1">  1        2 0.50058566E-02 0.12382105E+03</pdfrwt>
<pdfrwt beam="2">  1       -2 0.10624671E+00 0.12382105E+03</pdfrwt>
<totfact> 0.11253721E+03</totfact>
</mgrwt>
</event>
<event>
 8    1  0.6396648E-004  0.1070146E+03  0.7546771E-02  0.1266232E+00
          1   -1    0    0  501    0  0.00000000000E+00  0.00000000000E+00  0.13575409236E+03  0.13575409236E+03  0.00000000000E+00 0. -1.
         -1   -1    0    0    0  501 -0.00000000000E+00 -0.00000000000E+00 -0.87534289726E+02  0.87534289726E+02  0.00000000000E+00 0.  1.
         23    2    1    2    0    0  0.37700814499E+02 -0.41945434203E+02  0.26648899232E+01  0.10698109949E+03  0.90868493690E+02 0.  0.
         23    2    1    2    0    0 -0.37700814499E+02  0.41945434203E+02  0.45554912714E+02  0.11630728260E+03  0.90947034306E+02 0.  0.
          5    1    3    3  502    0  0.46725120800E+02  0.10031767675E+02 -0.16319509607E+02  0.50717745122E+02  0.47000000000E+01 0. -1.
         -5    1    4    4    0  503 -0.58034653119E+02  0.91382905389E+01  0.35139854294E+01  0.59042081689E+02  0.47000000000E+01 0.  1.
          5    1    4    4  503    0  0.20333838620E+02  0.32807143664E+02  0.42040927285E+02  0.57265200911E+02  0.47000000000E+01 0. -1.
         -5    1    3    3    0  502 -0.90243063013E+01 -0.51977201877E+02  0.18984399530E+02  0.56263354368E+02  0.47000000000E+01 0.  1.
<mgrwt>
<rscale>  0 0.10699795E+03</rscale>
<asrwt>0</asrwt>
<pdfrwt beam="1">  1        1 0.20885245E-01 0.10701464E+03</pdfrwt>
<pdfrwt beam="2">  1       -1 0.13466814E-01 0.10701464E+03</pdfrwt>
<totfact> 0.85300060E+03</totfact>
</mgrwt>
</event>
<event>
 8    1  0.6396648E-004  0.9450458E+02  0.7546771E-02  0.1292551E+00
          1   -1    0    0  501    0  0.00000000000E+00  0.00000000000E+00  0.14790857133E+03  0.14790857133E+03  0.00000000000E+00 0. -1.
         -1   -1    0    0    0  501 -0.00000000000E+00 -0.00000000000E+00 -0.68044947091E+02  0.68044947091E+02  0.00000000000E+00 0.  1.
         23    2    1    2    0    0 -0.37375477641E+01 -0.30574192889E+02  0.76920387341E+02  0.12185180049E+03  0.89344080720E+02 0.  0.
         23    2    1    2    0    0  0.37375477641E+01  0.30574192889E+02  0.29432369007E+01  0.94101717934E+02  0.88869118037E+02 0.  0.
          5    1    4    4  502    0 -0.32157446080E+01  0.52066513083E+02 -0.24855291270E+02  0.57975324942E+02  0.47000000000E+01 0. -1.
         -5    1    3    3    0  503  0.28421092255E+02 -0.31242583758E+02  0.48285289364E+01  0.42769875105E+02  0.47000000000E+01 0.  1.
          5    1    3    3  503    0 -0.32158640019E+02  0.66839086886E+00  0.72091858404E+02  0.79081925384E+02  0.47000000000E+01 0. -1.
         -5    1    4    4    0  502  0.69532923721E+01 -0.21492320194E+02  0.27798528171E+02  0.36126392992E+02  0.47000000000E+01 0.  1.
<mgrwt>
<rscale>  0 0.94392153E+02</rscale>
<asrwt>0</asrwt>
<pdfrwt beam="1">  1        1 0.22755165E-01 0.94504578E+02</pdfrwt>
<pdfrwt beam="2">  1       -1 0.10468453E-01 0.94504578E+02</pdfrwt>
<totfact> 0.11139239E+04</totfact>
</mgrwt>
</event>
<event>
 8    1  0.6396648E-004  0.1036574E+03  0.7546771E-02  0.1274495E+00
         -1   -1    0    0    0  501 -0.00000000000E+00  0.00000000000E+00  0.13317445516E+02  0.13317445516E+02  0.00000000000E+00 0.  1.
          1   -1    0    0  501    0  0.00000000000E+00 -0.00000000000E+00 -0.10813070044E+04  0.10813070044E+04  0.00000000000E+00 0. -1.
         23    2    1    2    0    0 -0.43433395812E+02  0.20977753647E+02 -0.82873968976E+03  0.83519718508E+03  0.91751504371E+02 0.  0.
         23    2    1    2    0    0  0.43433395812E+02 -0.20977753647E+02 -0.23924986908E+03  0.25942726479E+03  0.87951576705E+02 0.  0.
          5    1    3    3  502    0  0.11338133854E+02  0.42785421755E+02 -0.36033456765E+03  0.36307332074E+03  0.47000000000E+01 0. -1.
         -5    1    3    3    0  502 -0.54771529666E+02 -0.21807668108E+02 -0.46840512211E+03  0.47212386433E+03  0.47000000000E+01 0.  1.
          5    1    4    4  503    0  0.17678102009E+02  0.19546313517E+02 -0.16355773880E+02  0.31371563588E+02  0.47000000000E+01 0. -1.
         -5    1    4    4    0  503  0.25755293803E+02 -0.40524067164E+02 -0.22289409520E+03  0.22805570120E+03  0.47000000000E+01 0.  1.
<mgrwt>
<rscale>  0 0.10281013E+03</rscale>
<asrwt>0</asrwt>
<pdfrwt beam="1">  1        1 0.16635496E+00 0.10365744E+03</pdfrwt>
<pdfrwt beam="2">  1       -1 0.20488374E-02 0.10365744E+03</pdfrwt>
<totfact> 0.87837714E+03</totfact>
</mgrwt>
</event>
<event>
 8    1  0.6396648E-004  0.9787134E+02  0.7546771E-02  0.1287059E+00
          1   -1    0    0  501    0  0.00000000000E+00  0.00000000000E+00  0.78249944711E+03  0.78249944711E+03  0.00000000000E+00 0. -1.
         -1   -1    0    0    0  501 -0.00000000000E+00 -0.00000000000E+00 -0.11744200281E+02  0.11744200281E+02  0.00000000000E+00 0.  1.
         23    2    1    2    0    0  0.19259778369E+02  0.24303115696E+02  0.37673503876E+03  0.38825014553E+03  0.88585018907E+02 0.  0.
         23    2    1    2    0    0 -0.19259778369E+02 -0.24303115696E+02  0.39402020807E+03  0.40599350187E+03  0.92828975523E+02 0.  0.
          5    1    3    3  502    0  0.30932559579E+02  0.53529183697E+02  0.24401538593E+03  0.25176932959E+03  0.47000000000E+01 0. -1.
         -5    1    4    4    0  503 -0.48958830485E+02 -0.25229795428E+02  0.33720245133E+03  0.34170322334E+03  0.47000000000E+01 0.  1.
          5    1    4    4  503    0  0.29699052116E+02  0.92667973203E+00  0.56817756737E+02  0.64290278523E+02  0.47000000000E+01 0. -1.
         -5    1    3    3    0  502 -0.11672781210E+02 -0.29226068001E+02  0.13271965283E+03  0.13648081594E+03  0.47000000000E+01 0.  1.
<mgrwt>
<rscale>  0 0.96851594E+02</rscale>
<asrwt>0</asrwt>
<pdfrwt beam="1">  1        1 0.12038449E+00 0.97871340E+02</pdfrwt>
<pdfrwt beam="2">  1       -1 0.18068007E-02 0.97871340E+02</pdfrwt>
<totfact> 0.17549328E+04</totfact>
</mgrwt>
</event>
<event>
 8    1  0.6396648E-004  0.1182712E+03  0.7546771E-02  0.1247436E+00
         -1   -1    0    0    0  501 -0.00000000000E+00  0.00000000000E+00  0.17480741315E+02  0.17480741315E+02  0.00000000000E+00 0.  1.
          1   -1    0    0  501    0  0.00000000000E+00 -0.00000000000E+00 -0.79274289498E+03  0.79274289498E+03  0.00000000000E+00 0. -1.
         23    2    1    2    0    0 -0.65389172531E+02 -0.25174532364E+02 -0.33656485867E+03  0.35674076887E+03  0.95281536079E+02 0.  0.
         23    2    1    2    0    0  0.65389172531E+02  0.25174532364E+02 -0.43869729500E+03  0.45348286743E+03  0.91004908927E+02 0.  0.
          5    1    3    3  502    0 -0.27395920591E+02 -0.55825877606E+02 -0.24564718345E+03  0.25343972422E+03  0.47000000000E+01 0. -1.
         -5    1    3    3    0  502 -0.37993251940E+02  0.30651345242E+02 -0.90917675216E+02  0.10330104465E+03  0.47000000000E+01 0. -1.
          5    1    4    4  503    0  0.59367622558E+02  0.16712751200E+01 -0.41496376993E+03  0.41921871156E+03  0.47000000000E+01 0. -1.
         -5    1    4    4    0  503  0.60215499735E+01  0.23503257244E+02 -0.23733525068E+02  0.34264155868E+02  0.47000000000E+01 0.  1.
<mgrwt>
<rscale>  0 0.11740742E+03</rscale>
<asrwt>0</asrwt>
<pdfrwt beam="1">  1        1 0.12196046E+00 0.11827118E+03</pdfrwt>
<pdfrwt beam="2">  1       -1 0.26893445E-02 0.11827118E+03</pdfrwt>
<totfact> 0.98629737E+03</totfact>
</mgrwt>
</event>
<event>
 7    1  0.6396648E-004  0.2437050E+03  0.7546771E-02  0.1117349E+00
          2   -1    0    0  501    0  0.00000000000E+00  0.00000000000E+00  0.94232105835E+03  0.94232105835E+03  0.00000000000E+00 0. -1.
         -2   -1    0    0    0  501 -0.00000000000E+00 -0.00000000000E+00 -0.15756871204E+02  0.15756871204E+02  0.00000000000E+00 0.  1.
         23    2    1    2    0    0 -0.23975172252E+02  0.30387220015E+02  0.45780517107E+03  0.46847381706E+03  0.91563915328E+02 0.  0.
          5    1    1    2  502    0  0.66922373191E+02 -0.57602762408E+02  0.25739126692E+03  0.27215627231E+03  0.47000000000E+01 0. -1.
         -5    1    3    3    0  503 -0.13813047566E+02 -0.24171462258E+02  0.54873171299E+02  0.61710734878E+02  0.47000000000E+01 0.  1.
          5    1    3    3  503    0 -0.10162124687E+02  0.54558682273E+02  0.40293199977E+03  0.40676308219E+03  0.47000000000E+01 0. -1.
         -5    1    1    2    0  502 -0.42947200939E+02  0.27215542393E+02  0.21136774915E+03  0.21744784017E+03  0.47000000000E+01 0.  1.
<mgrwt>
<rscale>  0 0.24370500E+03</rscale>
<asrwt>0</asrwt>
<pdfrwt beam="1">  1        2 0.14497243E+00 0.24370500E+03</pdfrwt>
<pdfrwt beam="2">  1       -2 0.24241348E-02 0.24370500E+03</pdfrwt>
<totfact> 0.16447157E+04</totfact>
</mgrwt>
</event>
<event>
 8    1  0.6396648E-004  0.1633822E+03  0.7546771E-02  0.1185030E+00
         -2   -1    0    0    0  501 -0.00000000000E+00  0.00000000000E+00  0.41456792178E+02  0.41456792178E+02  0.00000000000E+00 0.  1.
          2   -1    0    0  501    0  0.00000000000E+00 -0.00000000000E+00 -0.67268245763E+03  0.67268245763E+03  0.00000000000E+00 0. -1.
         23    2    1    2    0    0 -0.13410473566E+03 -0.22320869479E+02 -0.39162707271E+03  0.42434126024E+03  0.90616994686E+02 0.  0.
         23    2    1    2    0    0  0.13410473566E+03  0.22320869479E+02 -0.23959859275E+03  0.28979798957E+03  0.89961590532E+02 0.  0.
          5    1    3    3  502    0 -0.10241959715E+03  0.25566931107E+02 -0.26053200405E+03  0.28114490389E+03  0.47000000000E+01 0.  1.
         -5    1    3    3    0  502 -0.31685138503E+02 -0.47887800585E+02 -0.13109506866E+03  0.14319635636E+03  0.47000000000E+01 0. -1.
          5    1    4    4  503    0  0.94488958258E+02 -0.41761503818E+01 -0.21716190692E+03  0.23691134899E+03  0.47000000000E+01 0. -1.
         -5    1    4    4    0  503  0.39615777400E+02  0.26497019861E+02 -0.22436685830E+02  0.52886640577E+02  0.47000000000E+01 0.  1.
<mgrwt>
<rscale>  0 0.16329147E+03</rscale>
<asrwt>0</asrwt>
<pdfrwt beam="1">  1        2 0.10348962E+00 0.16338219E+03</pdfrwt>
<pdfrwt beam="2">  1       -2 0.63779676E-02 0.16338219E+03</pdfrwt>
<totfact> 0.57805721E+03</totfact>
</mgrwt>
</event>
<event>
 8    1  0.6396648E-004  0.1185455E+03  0.7546771E-02  0.1246800E+00
         -4   -1    0    0    0  501 -0.00000000000E+00  0.00000000000E+00  0.49629889953E+02  0.49629889953E+02  0.00000000000E+00 0.  1.
          4   -1    0    0  501    0  0.00000000000E+00 -0.00000000000E+00 -0.39889444460E+03  0.39889444460E+03  0.00000000000E+00 0. -1.
         23    2    1    2    0    0  0.11382847294E+01  0.72384184783E+02 -0.51713906831E+02  0.12933432374E+03  0.93873708982E+02 0.  0.
         23    2    1    2    0    0 -0.11382847294E+01 -0.72384184783E+02 -0.29755064781E+03  0.31919001081E+03  0.90028379361E+02 0.  0.
          5    1    4    4  502    0  0.38863444058E+02 -0.50509213118E+02 -0.12161448887E+03  0.13738166470E+03  0.47000000000E+01 0. -1.
         -5    1    4    4    0  502 -0.40001728787E+02 -0.21874971665E+02 -0.17593615895E+03  0.18180834611E+03  0.47000000000E+01 0.  1.
          5    1    3    3  503    0 -0.29228113476E+02  0.42743530677E+02 -0.66265287455E+02  0.84228678926E+02  0.47000000000E+01 0. -1.
         -5    1    3    3    0  503  0.30366398205E+02  0.29640654106E+02  0.14551380624E+02  0.45105644811E+02  0.47000000000E+01 0.  1.
<mgrwt>
<rscale>  0 0.11778290E+03</rscale>
<asrwt>0</asrwt>
<pdfrwt beam="1">  1        4 0.61368377E-01 0.11854552E+03</pdfrwt>
<pdfrwt beam="2">  1       -4 0.76353675E-02 0.11854552E+03</pdfrwt>
<totfact> 0.48763971E+02</totfact>
</mgrwt>
</event>
<event>
 7    1  0.6396648E-004  0.1525254E+03  0.7546771E-02  0.1208301E+00
          2   -1    0    0  501    0  0.00000000000E+00  0.00000000000E+00  0.63687107661E+03  0.63687107661E+03  0.00000000000E+00 0. -1.
         -2   -1    0    0    0  501 -0.00000000000E+00 -0.00000000000E+00 -0.39870381895E+02  0.39870381895E+02  0.00000000000E+00 0.  1.
         23    2    1    2    0    0 -0.62314786994E+02  0.48045310670E+02  0.99182926342E+02  0.15608173979E+03  0.91284018657E+02 0.  0.
          5    1    1    2  502    0  0.50119436641E+02 -0.89854424340E+02  0.40700244147E+03  0.41983193407E+03  0.47000000000E+01 0. -1.
         -5    1    1    2    0  502  0.12195350353E+02  0.41809113670E+02  0.90815326897E+02  0.10082778464E+03  0.47000000000E+01 0.  1.
          5    1    3    3  503    0 -0.13229739299E+02 -0.15350878035E+02  0.65966421724E+02  0.69168882118E+02  0.47000000000E+01 0. -1.
         -5    1    3    3    0  503 -0.49085047695E+02  0.63396188704E+02  0.33216504617E+02  0.86912857670E+02  0.47000000000E+01 0.  1.
<mgrwt>
<rscale>  0 0.14380317E+03</rscale>
<asrwt>0</asrwt>
<pdfrwt beam="1">  1        2 0.97980158E-01 0.15252545E+03</pdfrwt>
<pdfrwt beam="2">  1       -2 0.61339054E-02 0.15252545E+03</pdfrwt>
<totfact> 0.65189855E+03</totfact>
</mgrwt>
</event>
<event>
 8    1  0.6396648E-004  0.1000712E+03  0.7546771E-02  0.1280421E+00
          1   -1    0    0  501    0  0.00000000000E+00  0.00000000000E+00  0.93741854741E+03  0.93741854741E+03  0.00000000000E+00 0. -1.
         -1   -1    0    0    0  501 -0.00000000000E+00 -0.00000000000E+00 -0.10649300592E+02  0.10649300592E+02  0.00000000000E+00 0.  1.
         23    2    1    2    0    0 -0.39169821330E+02 -0.11044719984E+02  0.44295156802E+03  0.45411490260E+03  0.91422056437E+02 0.  0.
         23    2    1    2    0    0  0.39169821330E+02  0.11044719984E+02  0.48381767879E+03  0.49395294540E+03  0.90849904888E+02 0.  0.
          5    1    3    3  502    0  0.13406585921E+02  0.29118437824E+02  0.11250577336E+03  0.11707800394E+03  0.47000000000E+01 0. -1.
         -5    1    4    4    0  503  0.19151812134E+02 -0.35249836911E+02  0.11975671163E+03  0.12638474153E+03  0.47000000000E+01 0.  1.
          5    1    4    4  503    0  0.20018009196E+02  0.46294556895E+02  0.36406096716E+03  0.36756820387E+03  0.47000000000E+01 0. -1.
         -5    1    3    3    0  502 -0.52576407251E+02 -0.40163157808E+02  0.33044579467E+03  0.33703689866E+03  0.47000000000E+01 0.  1.
<mgrwt>
<rscale>  0 0.99940377E+02</rscale>
<asrwt>0</asrwt>
<pdfrwt beam="1">  1        1 0.14421817E+00 0.10007124E+03</pdfrwt>
<pdfrwt beam="2">  1       -1 0.16383547E-02 0.10007124E+03</pdfrwt>
<totfact> 0.15316612E+04</totfact>
</mgrwt>
</event>
<event>
 8    1  0.6396648E-004  0.1198287E+03  0.7546771E-02  0.1243543E+00
         -2   -1    0    0    0  501 -0.00000000000E+00  0.00000000000E+00  0.23150656908E+02  0.23150656908E+02  0.00000000000E+00 0.  1.
          2   -1    0    0  501    0  0.00000000000E+00 -0.00000000000E+00 -0.10006020511E+04  0.10006020511E+04  0.00000000000E+00 0. -1.
         23    2    1    2    0    0 -0.77434630183E+02 -0.46573285098E+01 -0.17278022753E+03  0.21026631991E+03  0.91329653477E+02 0.  0.
         23    2    1    2    0    0  0.77434630183E+02  0.46573285098E+01 -0.80467116671E+03  0.81348638814E+03  0.90810817071E+02 0.  0.
          5    1    3    3  502    0 -0.13627203506E+02 -0.39117892422E+02 -0.95404602862E+02  0.10411550523E+03  0.47000000000E+01 0. -1.
         -5    1    4    4    0  503  0.20813470530E+01 -0.28846096558E+02 -0.10688248029E+03  0.11082591703E+03  0.47000000000E+01 0.  1.
          5    1    4    4  503    0  0.75353283130E+02  0.33503425068E+02 -0.69778868642E+03  0.70266047111E+03  0.47000000000E+01 0. -1.
         -5    1    3    3    0  502 -0.63807426677E+02  0.34460563912E+02 -0.77375624666E+02  0.10615081468E+03  0.47000000000E+01 0.  1.
<mgrwt>
<rscale>  0 0.11972984E+03</rscale>
<asrwt>0</asrwt>
<pdfrwt beam="1">  1        2 0.15393876E+00 0.11982870E+03</pdfrwt>
<pdfrwt beam="2">  1       -2 0.35616399E-02 0.11982870E+03</pdfrwt>
<totfact> 0.82576888E+03</totfact>
</mgrwt>
</event>
<event>
 8    1  0.6396648E-004  0.9234162E+02  0.7546771E-02  0.1297939E+00
          1   -1    0    0  501    0  0.00000000000E+00  0.00000000000E+00  0.62603389414E+02  0.62603389414E+02  0.00000000000E+00 0. -1.
         -1   -1    0    0    0  501 -0.00000000000E+00 -0.00000000000E+00 -0.13477937927E+03  0.13477937927E+03  0.00000000000E+00 0.  1.
         23    2    1    2    0    0  0.23855957739E+01  0.75475048426E+01 -0.40334906918E+02  0.10076646232E+03  0.92001735399E+02 0.  0.
         23    2    1    2    0    0 -0.23855957739E+01 -0.75475048426E+01 -0.31841082941E+02  0.96616306365E+02  0.90874640006E+02 0.  0.
          5    1    3    3  502    0 -0.12917093427E+02  0.30980763175E+02 -0.58115840686E+02  0.67277038640E+02  0.47000000000E+01 0. -1.
         -5    1    3    3    0  502  0.15302689201E+02 -0.23433258332E+02  0.17780933769E+02  0.33489423682E+02  0.47000000000E+01 0.  1.
          5    1    4    4  503    0 -0.39379608977E+02  0.20357381426E+02 -0.13764828071E+02  0.46655514931E+02  0.47000000000E+01 0.  1.
         -5    1    4    4    0  503  0.36994013203E+02 -0.27904886269E+02 -0.18076254870E+02  0.49960791434E+02  0.47000000000E+01 0.  1.
<mgrwt>
<rscale>  0 0.92059609E+02</rscale>
<asrwt>0</asrwt>
<pdfrwt beam="1">  1        1 0.96312908E-02 0.92341622E+02</pdfrwt>
<pdfrwt beam="2">  1       -1 0.20735289E-01 0.92341622E+02</pdfrwt>
<totfact> 0.11577456E+04</totfact>
</mgrwt>
</event>
<event>
 8    1  0.6396648E-004  0.1119073E+03  0.7546771E-02  0.1264740E+00
         -1   -1    0    0    0  501 -0.00000000000E+00  0.00000000000E+00  0.72534872075E+02  0.72534872075E+02  0.00000000000E+00 0.  1.
          1   -1    0    0  501    0  0.00000000000E+00 -0.00000000000E+00 -0.18015865980E+03  0.18015865980E+03  0.00000000000E+00 0. -1.
         23    2    1    2    0    0  0.42984221097E+02  0.27305671592E+02 -0.10925539321E+03  0.15639688424E+03  0.99649392820E+02 0.  0.
         23    2    1    2    0    0 -0.42984221097E+02 -0.27305671592E+02  0.16316054822E+01  0.96296647640E+02  0.81713764115E+02 0.  0.
          5    1    3    3  502    0 -0.52216845759E+01  0.45712365251E+02 -0.89875359659E+02  0.10107698353E+03  0.47000000000E+01 0. -1.
         -5    1    3    3    0  502  0.48205905673E+02 -0.18406693659E+02 -0.19380033548E+02  0.55319900701E+02  0.47000000000E+01 0.  1.
          5    1    4    4  503    0 -0.64094676152E+02 -0.13448110978E+02 -0.12710638472E+02  0.66877720732E+02  0.47000000000E+01 0. -1.
         -5    1    4    4    0  503  0.21110455055E+02 -0.13857560614E+02  0.14342243954E+02  0.29418926908E+02  0.47000000000E+01 0.  1.
<mgrwt>
<rscale>  0 0.10777822E+03</rscale>
<asrwt>0</asrwt>
<pdfrwt beam="1">  1        1 0.27716717E-01 0.11190730E+03</pdfrwt>
<pdfrwt beam="2">  1       -1 0.11159211E-01 0.11190730E+03</pdfrwt>
<totfact> 0.80234049E+03</totfact>
</mgrwt>
</event>
<event>
 8    1  0.6396648E-004  0.9347371E+02  0.7546771E-02  0.1295240E+00
          2   -1    0    0  501    0  0.00000000000E+00  0.00000000000E+00  0.79889636649E+03  0.79889636649E+03  0.00000000000E+00 0. -1.
         -2   -1    0    0    0  501 -0.00000000000E+00 -0.00000000000E+00 -0.10943893478E+02  0.10943893478E+02  0.00000000000E+00 0.  1.
         23    2    1    2    0    0  0.41332884065E+01  0.18904126684E+02  0.34841114577E+03  0.36046968668E+03  0.90408066256E+02 0.  0.
         23    2    1    2    0    0 -0.41332884065E+01 -0.18904126684E+02  0.43954132724E+03  0.44937057328E+03  0.91448803708E+02 0.  0.
          5    1    3    3  502    0  0.27034368492E+02 -0.28521124866E+02  0.15071731773E+03  0.15582718475E+03  0.47000000000E+01 0.  1.
         -5    1    4    4    0  503  0.45881622648E+01 -0.54876832637E+02  0.23117665071E+03  0.23769150559E+03  0.47000000000E+01 0.  1.
          5    1    4    4  503    0 -0.87214506713E+01  0.35972705953E+02  0.20836467653E+03  0.21167906770E+03  0.47000000000E+01 0. -1.
         -5    1    3    3    0  502 -0.22901080086E+02  0.47425251550E+02  0.19769382804E+03  0.20464250193E+03  0.47000000000E+01 0. -1.
<mgrwt>
<rscale>  0 0.93218175E+02</rscale>
<asrwt>0</asrwt>
<pdfrwt beam="1">  1        2 0.12290709E+00 0.93473706E+02</pdfrwt>
<pdfrwt beam="2">  1       -2 0.16836765E-02 0.93473706E+02</pdfrwt>
<totfact> 0.32129448E+04</totfact>
</mgrwt>
</event>
<event>
 8    1  0.6396648E-004  0.9130434E+02  0.7546771E-02  0.1301236E+00
         -1   -1    0    0    0  501 -0.00000000000E+00  0.00000000000E+00  0.44076484152E+03  0.44076484152E+03  0.00000000000E+00 0.  1.
          1   -1    0    0  501    0  0.00000000000E+00 -0.00000000000E+00 -0.18399162373E+02  0.18399162373E+02  0.00000000000E+00 0. -1.
         23    2    1    2    0    0  0.14813016272E+01  0.74985703428E+01  0.20604097762E+03  0.22436013004E+03  0.88465590373E+02 0.  0.
         23    2    1    2    0    0 -0.14813016272E+01 -0.74985703428E+01  0.21632470153E+03  0.23480387386E+03  0.90983844033E+02 0.  0.
          5    1    4    4  502    0 -0.17306579682E+02 -0.40052014099E+02  0.60368037728E+02  0.74632911727E+02  0.47000000000E+01 0. -1.
         -5    1    4    4    0  502  0.15825278055E+02  0.32553443756E+02  0.15595666380E+03  0.16017096213E+03  0.47000000000E+01 0.  1.
          5    1    3    3  503    0  0.14246025055E+02 -0.17528180327E+02  0.19053874087E+03  0.19193042517E+03  0.47000000000E+01 0. -1.
         -5    1    3    3    0  503 -0.12764723428E+02  0.25026750670E+02  0.15502236751E+02  0.32429704863E+02  0.47000000000E+01 0.  1.
<mgrwt>
<rscale>  0 0.90670480E+02</rscale>
<asrwt>0</asrwt>
<pdfrwt beam="1">  1        1 0.28306407E-02 0.91304341E+02</pdfrwt>
<pdfrwt beam="2">  1       -1 0.67809968E-01 0.91304341E+02</pdfrwt>
<totfact> 0.77198730E+03</totfact>
</mgrwt>
</event>
<event>
 8    1  0.6396648E-004  0.9899348E+02  0.7546771E-02  0.1286831E+00
          3   -1    0    0  501    0  0.00000000000E+00  0.00000000000E+00  0.79600229475E+02  0.79600229475E+02  0.00000000000E+00 0. -1.
         -3   -1    0    0    0  501 -0.00000000000E+00 -0.00000000000E+00 -0.35721559269E+03  0.35721559269E+03  0.00000000000E+00 0.  1.
         23    2    1    2    0    0 -0.37298138913E+02 -0.83733553607E+01  0.43386454039E+02  0.10089637409E+03  0.82682704744E+02 0.  0.
         23    2    1    2    0    0  0.37298138913E+02  0.83733553607E+01 -0.32100181725E+03  0.33591944807E+03  0.91315084563E+02 0.  0.
          5    1    3    3  502    0 -0.39725710894E+02 -0.37666762136E+02  0.45093217539E+02  0.71080273943E+02  0.47000000000E+01 0. -1.
         -5    1    4    4    0  503 -0.24157184845E+02  0.10587840683E+01 -0.32299551859E+02  0.40620704740E+02  0.47000000000E+01 0. -1.
          5    1    4    4  503    0  0.61455323758E+02  0.73145712924E+01 -0.28870226539E+03  0.29529874333E+03  0.47000000000E+01 0.  1.
         -5    1    3    3    0  502  0.24275719804E+01  0.29293406776E+02 -0.17067634998E+01  0.29816100146E+02  0.47000000000E+01 0.  1.
<mgrwt>
<rscale>  0 0.96955984E+02</rscale>
<asrwt>0</asrwt>
<pdfrwt beam="1">  1        3 0.12246189E-01 0.98993479E+02</pdfrwt>
<pdfrwt beam="2">  1       -3 0.54956244E-01 0.98993479E+02</pdfrwt>
<totfact> 0.38404359E+02</totfact>
</mgrwt>
</event>
<event>
 8    1  0.6396648E-004  0.1159766E+03  0.7546771E-02  0.1250189E+00
          1   -1    0    0  501    0  0.00000000000E+00  0.00000000000E+00  0.10221219804E+03  0.10221219804E+03  0.00000000000E+00 0. -1.
         -1   -1    0    0    0  501 -0.00000000000E+00 -0.00000000000E+00 -0.38726820799E+03  0.38726820799E+03  0.00000000000E+00 0.  1.
         23    2    1    2    0    0 -0.39029594694E+02 -0.60979088149E+02 -0.34183904736E+03  0.36097714013E+03  0.90602444447E+02 0.  0.
         23    2    1    2    0    0  0.39029594694E+02  0.60979088149E+02  0.56783037411E+02  0.12850326591E+03  0.89705170186E+02 0.  0.
          5    1    3    3  502    0 -0.28481582022E+02  0.18826354414E+02 -0.83068004259E+02  0.89933394612E+02  0.47000000000E+01 0. -1.
         -5    1    3    3    0  502 -0.10548012672E+02 -0.79805442563E+02 -0.25877104310E+03  0.27104374551E+03  0.47000000000E+01 0.  1.
          5    1    4    4  503    0  0.38467716233E+02  0.34755213640E+02  0.78456033424E+02  0.94154815320E+02  0.47000000000E+01 0. -1.
         -5    1    4    4    0  503  0.56187846033E+00  0.26223874509E+02 -0.21672996013E+02  0.34348450588E+02  0.47000000000E+01 0.  1.
<mgrwt>
<rscale>  0 0.11580126E+03</rscale>
<asrwt>0</asrwt>
<pdfrwt beam="1">  1        1 0.15724954E-01 0.11597656E+03</pdfrwt>
<pdfrwt beam="2">  1       -1 0.59579724E-01 0.11597656E+03</pdfrwt>
<totfact> 0.10141660E+03</totfact>
</mgrwt>
</event>
<event>
 8    1  0.6396648E-004  0.1135992E+03  0.7546771E-02  0.1255277E+00
         -1   -1    0    0    0  501 -0.00000000000E+00  0.00000000000E+00  0.69666565114E+02  0.69666565114E+02  0.00000000000E+00 0.  1.
          1   -1    0    0  501    0  0.00000000000E+00 -0.00000000000E+00 -0.19884045806E+03  0.19884045806E+03  0.00000000000E+00 0. -1.
         23    2    1    2    0    0 -0.89811785676E+01 -0.65831311007E+02 -0.10431042866E+03  0.15221873791E+03  0.88743763535E+02 0.  0.
         23    2    1    2    0    0  0.89811785676E+01  0.65831311007E+02 -0.24863464292E+02  0.11628828527E+03  0.92143097174E+02 0.  0.
          5    1    3    3  502    0  0.30408828720E+02 -0.54505273317E+02 -0.35413399265E+02  0.71914675352E+02  0.47000000000E+01 0. -1.
         -5    1    3    3    0  502 -0.39390007288E+02 -0.11326037690E+02 -0.68897029394E+02  0.80304062557E+02  0.47000000000E+01 0.  1.
          5    1    4    4  503    0  0.25743717993E+02  0.80557688250E+02 -0.34597778158E+02  0.91495226136E+02  0.47000000000E+01 0. -1.
         -5    1    4    4    0  503 -0.16762539425E+02 -0.14726377243E+02  0.97343138666E+01  0.24793059132E+02  0.47000000000E+01 0.  1.
<mgrwt>
<rscale>  0 0.11290803E+03</rscale>
<asrwt>0</asrwt>
<pdfrwt beam="1">  1        1 0.30590839E-01 0.11359918E+03</pdfrwt>
<pdfrwt beam="2">  1       -1 0.10717933E-01 0.11359918E+03</pdfrwt>
<totfact> 0.75604401E+03</totfact>
</mgrwt>
</event>
<event>
 8    1  0.6396648E-004  0.9289795E+02  0.7546771E-02  0.1296189E+00
         -3   -1    0    0    0  501 -0.00000000000E+00  0.00000000000E+00  0.22295506724E+02  0.22295506724E+02  0.00000000000E+00 0.  1.
          3   -1    0    0  501    0  0.00000000000E+00 -0.00000000000E+00 -0.56120715079E+03  0.56120715079E+03  0.00000000000E+00 0. -1.
         23    2    1    2    0    0  0.29572163540E+01 -0.17157298888E+02 -0.43301786966E+03  0.44287075403E+03  0.91251911227E+02 0.  0.
         23    2    1    2    0    0 -0.29572163540E+01  0.17157298888E+02 -0.10589377441E+03  0.14063190349E+03  0.90888518442E+02 0.  0.
          5    1    4    4  502    0 -0.42841282033E+01  0.46711084163E+02 -0.99355300046E+02  0.10997201819E+03  0.47000000000E+01 0. -1.
         -5    1    4    4    0  502  0.13269118493E+01 -0.29553785275E+02 -0.65384743686E+01  0.30659885293E+02  0.47000000000E+01 0.  1.
          5    1    3    3  503    0  0.55777114110E+01  0.35329568654E+02 -0.24302209260E+03  0.24568499502E+03  0.47000000000E+01 0. -1.
         -5    1    3    3    0  503 -0.26204950569E+01 -0.52486867542E+02 -0.18999577705E+03  0.19718575901E+03  0.47000000000E+01 0.  1.
<mgrwt>
<rscale>  0 0.92808590E+02</rscale>
<asrwt>0</asrwt>
<pdfrwt beam="1">  1        3 0.86339558E-01 0.92897951E+02</pdfrwt>
<pdfrwt beam="2">  1       -3 0.34300781E-02 0.92897951E+02</pdfrwt>
<totfact> 0.11253451E+03</totfact>
</mgrwt>
</event>
<event>
 8    1  0.6396648E-004  0.1022061E+03  0.7546771E-02  0.1277861E+00
         -4   -1    0    0    0  501 -0.00000000000E+00  0.00000000000E+00  0.90369493241E+03  0.90369493241E+03  0.00000000000E+00 0.  1.
          4   -1    0    0  501    0  0.00000000000E+00 -0.00000000000E+00 -0.11567005976E+02  0.11567005976E+02  0.00000000000E+00 0. -1.
         23    2    1    2    0    0 -0.17681789385E+02 -0.40767005472E+02  0.54666566140E+03  0.55613796814E+03  0.92040750951E+02 0.  0.
         23    2    1    2    0    0  0.17681789385E+02  0.40767005472E+02  0.34546226503E+03  0.35912397025E+03  0.87471452688E+02 0.  0.
          5    1    3    3  502    0 -0.47913913747E+02 -0.46187918466E+02  0.44032824562E+03  0.44535392761E+03  0.47000000000E+01 0. -1.
         -5    1    4    4    0  503  0.44750555861E+02  0.28960665345E+02  0.29982325502E+03  0.30456100643E+03  0.47000000000E+01 0.  1.
          5    1    4    4  503    0 -0.27068766476E+02  0.11806340128E+02  0.45639010008E+02  0.54562963815E+02  0.47000000000E+01 0. -1.
         -5    1    3    3    0  502  0.30232124362E+02  0.54209129936E+01  0.10633741578E+03  0.11078404053E+03  0.47000000000E+01 0.  1.
<mgrwt>
<rscale>  0 0.10116671E+03</rscale>
<asrwt>0</asrwt>
<pdfrwt beam="1">  1        4 0.17795401E-02 0.10220614E+03</pdfrwt>
<pdfrwt beam="2">  1       -4 0.13902993E+00 0.10220614E+03</pdfrwt>
<totfact> 0.73548323E+02</totfact>
</mgrwt>
</event>
<event>
 8    1  0.6396648E-004  0.1206160E+03  0.7546771E-02  0.1254474E+00
          1   -1    0    0  501    0  0.00000000000E+00  0.00000000000E+00  0.67072509404E+02  0.67072509404E+02  0.00000000000E+00 0. -1.
         -1   -1    0    0    0  501 -0.00000000000E+00 -0.00000000000E+00 -0.21109497613E+03  0.21109497613E+03  0.00000000000E+00 0.  1.
         23    2    1    2    0    0  0.29909751717E+02  0.17556341724E+02 -0.13884996555E+03  0.18392265502E+03  0.11552234292E+03 0.  0.
         23    2    1    2    0    0 -0.29909751717E+02 -0.17556341724E+02 -0.51725011749E+01  0.94244830515E+02  0.87478654127E+02 0.  0.
          5    1    3    3  502    0 -0.13734983386E+02  0.39241738891E+02 -0.12676543444E+03  0.13349205672E+03  0.47000000000E+01 0.  1.
         -5    1    4    4    0  503  0.29353423658E+02  0.95043204874E+00  0.75706348106E+01  0.30690899514E+02  0.47000000000E+01 0. -1.
          5    1    4    4  503    0 -0.59263175375E+02 -0.18506773773E+02 -0.12743135985E+02  0.63553931001E+02  0.47000000000E+01 0. -1.
         -5    1    3    3    0  502  0.43644735103E+02 -0.21685397167E+02 -0.12084531116E+02  0.50430598299E+02  0.47000000000E+01 0.  1.
<mgrwt>
<rscale>  0 0.11335859E+03</rscale>
<asrwt>0</asrwt>
<pdfrwt beam="1">  1        1 0.10318848E-01 0.12061604E+03</pdfrwt>
<pdfrwt beam="2">  1       -1 0.32476150E-01 0.12061604E+03</pdfrwt>
<totfact> 0.51797179E+03</totfact>
</mgrwt>
</event>
<event>
 8    1  0.6396648E-004  0.1451372E+03  0.7546771E-02  0.1207539E+00
         -2   -1    0    0    0  501 -0.00000000000E+00  0.00000000000E+00  0.17791914069E+03  0.17791914069E+03  0.00000000000E+00 0.  1.
          2   -1    0    0  501    0  0.00000000000E+00 -0.00000000000E+00 -0.14477239648E+03  0.14477239648E+03  0.00000000000E+00 0. -1.
         23    2    1    2    0    0 -0.77433290760E+02 -0.77097445745E+02  0.88645310613E+02  0.17006705345E+03  0.95524242557E+02 0.  0.
         23    2    1    2    0    0  0.77433290760E+02  0.77097445745E+02 -0.55498566409E+02  0.15262448372E+03  0.90962692901E+02 0.  0.
          5    1    4    4  502    0  0.17554009544E+02  0.70594152712E+02 -0.56458033563E+02  0.92202370913E+02  0.47000000000E+01 0. -1.
         -5    1    3    3    0  503 -0.47635640989E+02 -0.45912672855E+02  0.10458548130E+03  0.12384401770E+03  0.47000000000E+01 0.  1.
          5    1    3    3  503    0 -0.29797649771E+02 -0.31184772890E+02 -0.15940170688E+02  0.46223035747E+02  0.47000000000E+01 0. -1.
         -5    1    4    4    0  502  0.59879281216E+02  0.65032930333E+01  0.95946715359E+00  0.60422112810E+02  0.47000000000E+01 0.  1.
<mgrwt>
<rscale>  0 0.14439129E+03</rscale>
<asrwt>0</asrwt>
<pdfrwt beam="1">  1        2 0.22272676E-01 0.14513722E+03</pdfrwt>
<pdfrwt beam="2">  1       -2 0.27372175E-01 0.14513722E+03</pdfrwt>
<totfact> 0.28702219E+03</totfact>
</mgrwt>
</event>
<event>
 8    1  0.6396648E-004  0.1071951E+03  0.7546771E-02  0.1269291E+00
          1   -1    0    0  501    0  0.00000000000E+00  0.00000000000E+00  0.92429961946E+03  0.92429961946E+03  0.00000000000E+00 0. -1.
         -1   -1    0    0    0  501 -0.00000000000E+00 -0.00000000000E+00 -0.15187331280E+02  0.15187331280E+02  0.00000000000E+00 0.  1.
         23    2    1    2    0    0 -0.26099155227E+02  0.22294275399E+02  0.23932774712E+03  0.26223761401E+03  0.10155094799E+03 0.  0.
         23    2    1    2    0    0  0.26099155227E+02 -0.22294275399E+02  0.66978454105E+03  0.67724933673E+03  0.94218533463E+02 0.  0.
          5    1    4    4  502    0  0.60406803561E+02 -0.32418358935E+01  0.39252644593E+03  0.39718835855E+03  0.47000000000E+01 0. -1.
         -5    1    4    4    0  502 -0.34307648335E+02 -0.19052439505E+02  0.27725809512E+03  0.28006097818E+03  0.47000000000E+01 0.  1.
          5    1    3    3  503    0  0.15421147065E+02  0.52961730638E+02  0.12448741178E+03  0.13624229292E+03  0.47000000000E+01 0. -1.
         -5    1    3    3    0  503 -0.41520302292E+02 -0.30667455240E+02  0.11484033534E+03  0.12599532108E+03  0.47000000000E+01 0.  1.
<mgrwt>
<rscale>  0 0.10542190E+03</rscale>
<asrwt>0</asrwt>
<pdfrwt beam="1">  1        1 0.14219990E+00 0.10719513E+03</pdfrwt>
<pdfrwt beam="2">  1       -1 0.23365132E-02 0.10719513E+03</pdfrwt>
<totfact> 0.94717217E+03</totfact>
</mgrwt>
</event>
<event>
 8    1  0.6396648E-004  0.1456539E+03  0.7546771E-02  0.1205981E+00
          1   -1    0    0  501    0  0.00000000000E+00  0.00000000000E+00  0.32627345437E+03  0.32627345437E+03  0.00000000000E+00 0. -1.
         -1   -1    0    0    0  501 -0.00000000000E+00 -0.00000000000E+00 -0.14358650404E+03  0.14358650404E+03  0.00000000000E+00 0.  1.
         23    2    1    2    0    0  0.66913101480E+02  0.92107323284E+02 -0.82503722390E+02  0.16739747549E+03  0.90851133406E+02 0.  0.
         23    2    1    2    0    0 -0.66913101480E+02 -0.92107323284E+02  0.26519067272E+03  0.30246248291E+03  0.90533631969E+02 0.  0.
          5    1    4    4  502    0 -0.33502198323E+02 -0.70387318158E+02  0.24577773537E+03  0.25788671361E+03  0.47000000000E+01 0. -1.
         -5    1    3    3    0  503  0.46070739728E+02  0.42238601173E+01 -0.56729852511E+02  0.73353392691E+02  0.47000000000E+01 0.  1.
          5    1    3    3  503    0  0.20842361752E+02  0.87883463166E+02 -0.25773869879E+02  0.94044082802E+02  0.47000000000E+01 0. -1.
         -5    1    4    4    0  502 -0.33410903157E+02 -0.21720005125E+02  0.19412937347E+02  0.44575769302E+02  0.47000000000E+01 0.  1.
<mgrwt>
<rscale>  0 0.14560439E+03</rscale>
<asrwt>0</asrwt>
<pdfrwt beam="1">  1        1 0.50195916E-01 0.14565387E+03</pdfrwt>
<pdfrwt beam="2">  1       -1 0.22090231E-01 0.14565387E+03</pdfrwt>
<totfact> 0.13328110E+03</totfact>
</mgrwt>
</event>
<event>
 8    1  0.6396648E-004  0.9673455E+02  0.7546771E-02  0.1288012E+00
         -2   -1    0    0    0  501 -0.00000000000E+00  0.00000000000E+00  0.89712020096E+02  0.89712020096E+02  0.00000000000E+00 0.  1.
          2   -1    0    0  501    0  0.00000000000E+00 -0.00000000000E+00 -0.14302592067E+03  0.14302592067E+03  0.00000000000E+00 0. -1.
         23    2    1    2    0    0 -0.24521654711E+02  0.22088900845E+02 -0.88124723329E+02  0.12993051368E+03  0.89592077952E+02 0.  0.
         23    2    1    2    0    0  0.24521654711E+02 -0.22088900845E+02  0.34810822751E+02  0.10280742709E+03  0.90930427223E+02 0.  0.
          5    1    4    4  502    0 -0.30802341680E+02 -0.23263462060E+02  0.25489437217E+02  0.46494884984E+02  0.47000000000E+01 0. -1.
         -5    1    3    3    0  503  0.20283472392E+02  0.36542995523E+02 -0.18966881721E+02  0.46137212490E+02  0.47000000000E+01 0.  1.
          5    1    3    3  503    0 -0.44805127103E+02 -0.14454094678E+02 -0.69157841608E+02  0.83793301185E+02  0.47000000000E+01 0. -1.
         -5    1    4    4    0  502  0.55323996391E+02  0.11745612150E+01  0.93213855342E+01  0.56312542111E+02  0.47000000000E+01 0.  1.
<mgrwt>
<rscale>  0 0.96418771E+02</rscale>
<asrwt>0</asrwt>
<pdfrwt beam="1">  1        2 0.22003988E-01 0.96734553E+02</pdfrwt>
<pdfrwt beam="2">  1       -2 0.13801849E-01 0.96734553E+02</pdfrwt>
<totfact> 0.89623800E+03</totfact>
</mgrwt>
</event>
