<event>
 8    1  0.3629925E-004  0.1573748E+03  0.7546771E-02  0.1199357E+00
          3   -1    0    0  501    0  0.00000000000E+00  0.00000000000E+00  0.10517658678E+03  0.10517658678E+03  0.00000000000E+00 0. -1.
         -3   -1    0    0    0  501 -0.00000000000E+00 -0.00000000000E+00 -0.22967717146E+03  0.22967717146E+03  0.00000000000E+00 0.  1.
         25    2    1    2    0    0  0.89350747921E+02 -0.34035091524E+02 -0.12627053202E+03  0.20176985298E+03  0.12499953082E+03 0.  0.
         23    2    1    2    0    0 -0.89350747921E+02  0.34035091524E+02  0.17699473401E+01  0.13308390526E+03  0.92554035656E+02 0.  0.
          5    1    3    3  502    0  0.39619409759E+02  0.44607674901E+02 -0.73190683465E+02  0.94543685330E+02  0.47000000000E+01 0. -1.
         -5    1    4    4    0  503 -0.61846280736E+01 -0.19865751498E+02 -0.22435475164E+02  0.30957038825E+02  0.47000000000E+01 0.  1.
          5    1    4    4  503    0 -0.83166119847E+02  0.53900843022E+02  0.24205422504E+02  0.10212686643E+03  0.47000000000E+01 0. -1.
         -5    1    3    3    0  502  0.49731338162E+02 -0.78642766425E+02 -0.53079848559E+02  0.10722616765E+03  0.47000000000E+01 0. -1.
<mgrwt>
<rscale>  0 0.15091179E+03</rscale>
<asrwt>0</asrwt>
<pdfrwt beam="1">  1        3 0.16181013E-01 0.15737480E+03</pdfrwt>
<pdfrwt beam="2">  1       -3 0.35334949E-01 0.15737480E+03</pdfrwt>
<totfact> 0.60718078E+02</totfact>
</mgrwt>
</event>
<event>
 8    1  0.3629925E-004  0.1427590E+03  0.7546771E-02  0.1220293E+00
          1   -1    0    0  501    0  0.00000000000E+00  0.00000000000E+00  0.42851073409E+03  0.42851073409E+03  0.00000000000E+00 0. -1.
         -1   -1    0    0    0  501 -0.00000000000E+00 -0.00000000000E+00 -0.38534571682E+02  0.38534571682E+02  0.00000000000E+00 0.  1.
         25    2    1    2    0    0  0.68819252229E+02 -0.43641538935E+01  0.20643186716E+03  0.25098657442E+03  0.12500003778E+03 0.  0.
         23    2    1    2    0    0 -0.68819252229E+02  0.43641538935E+01  0.18354429525E+03  0.21605873135E+03  0.90761951044E+02 0.  0.
          5    1    3    3  502    0 -0.12826393513E+02 -0.28037029997E+02  0.40801435493E+01  0.31453600637E+02  0.47000000000E+01 0.  1.
         -5    1    3    3    0  502  0.81645645743E+02  0.23672876104E+02  0.20235172361E+03  0.21953297378E+03  0.47000000000E+01 0.  1.
          5    1    4    4  503    0 -0.47600827519E+02 -0.37658537278E+02  0.13591584793E+03  0.14892686772E+03  0.47000000000E+01 0. -1.
         -5    1    4    4    0  503 -0.21218424711E+02  0.42022691172E+02  0.47628447327E+02  0.67131863636E+02  0.47000000000E+01 0.  1.
<mgrwt>
<rscale>  0 0.13494781E+03</rscale>
<asrwt>0</asrwt>
<pdfrwt beam="1">  1        1 0.65924725E-01 0.14275904E+03</pdfrwt>
<pdfrwt beam="2">  1       -1 0.59283959E-02 0.14275904E+03</pdfrwt>
<totfact> 0.72260199E+03</totfact>
</mgrwt>
</event>
<event>
 8    1  0.3629925E-004  0.1256979E+03  0.7546771E-02  0.1249643E+00
         -1   -1    0    0    0  501 -0.00000000000E+00  0.00000000000E+00  0.37490596449E+02  0.37490596449E+02  0.00000000000E+00 0.  1.
          1   -1    0    0  501    0  0.00000000000E+00 -0.00000000000E+00 -0.31893934266E+03  0.31893934266E+03  0.00000000000E+00 0. -1.
         25    2    1    2    0    0 -0.92256670961E+01  0.94751928474E+01 -0.18287344254E+03  0.22190687081E+03  0.12500028446E+03 0.  0.
         23    2    1    2    0    0  0.92256670961E+01 -0.94751928474E+01 -0.98575303674E+02  0.13452306830E+03  0.90578547118E+02 0.  0.
          5    1    4    4  502    0 -0.23646289561E+02 -0.35499337893E+02 -0.24871737993E+02  0.49598824096E+02  0.47000000000E+01 0. -1.
         -5    1    4    4    0  502  0.32871956658E+02  0.26024145046E+02 -0.73703565681E+02  0.84924244206E+02  0.47000000000E+01 0.  1.
          5    1    3    3  503    0 -0.36950310758E+02 -0.48139412410E+02 -0.10094492715E+03  0.11787576854E+03  0.47000000000E+01 0. -1.
         -5    1    3    3    0  503  0.27724643662E+02  0.57614605257E+02 -0.81928515390E+02  0.10403110227E+03  0.47000000000E+01 0. -1.
<mgrwt>
<rscale>  0 0.11611743E+03</rscale>
<asrwt>0</asrwt>
<pdfrwt beam="1">  1        1 0.49067592E-01 0.12569791E+03</pdfrwt>
<pdfrwt beam="2">  1       -1 0.57677840E-02 0.12569791E+03</pdfrwt>
<totfact> 0.10799777E+04</totfact>
</mgrwt>
</event>
<event>
 8    1  0.3629925E-004  0.1277322E+03  0.7546771E-02  0.1246001E+00
          1   -1    0    0  501    0  0.00000000000E+00  0.00000000000E+00  0.36576580686E+02  0.36576580686E+02  0.00000000000E+00 0. -1.
         -1   -1    0    0    0  501 -0.00000000000E+00 -0.00000000000E+00 -0.34596415526E+03  0.34596415526E+03  0.00000000000E+00 0.  1.
         25    2    1    2    0    0 -0.24102520364E+02  0.10401849399E+02 -0.21041916833E+03  0.24615388807E+03  0.12500552088E+03 0.  0.
         23    2    1    2    0    0  0.24102520364E+02 -0.10401849399E+02 -0.98968406245E+02  0.13638684788E+03  0.90097152460E+02 0.  0.
          5    1    3    3  502    0  0.12101458238E+02 -0.49713604314E+02 -0.53412932788E+02  0.74114230310E+02  0.47000000000E+01 0. -1.
         -5    1    3    3    0  502 -0.36203978602E+02  0.60115453713E+02 -0.15700623554E+03  0.17203965776E+03  0.47000000000E+01 0. -1.
          5    1    4    4  503    0  0.49800349710E+02  0.19262781666E+02 -0.48552510907E+02  0.72322651390E+02  0.47000000000E+01 0. -1.
         -5    1    4    4    0  503 -0.25697829346E+02 -0.29664631064E+02 -0.50415895338E+02  0.64064196491E+02  0.47000000000E+01 0.  1.
<mgrwt>
<rscale>  0 0.11825689E+03</rscale>
<asrwt>0</asrwt>
<pdfrwt beam="1">  1        1 0.56271662E-02 0.12773218E+03</pdfrwt>
<pdfrwt beam="2">  1       -1 0.53225255E-01 0.12773218E+03</pdfrwt>
<totfact> 0.49050386E+03</totfact>
</mgrwt>
</event>
<event>
 8    1  0.3629925E-004  0.1615462E+03  0.7546771E-02  0.1195038E+00
          2   -1    0    0  501    0  0.00000000000E+00  0.00000000000E+00  0.51519827841E+03  0.51519827841E+03  0.00000000000E+00 0. -1.
         -2   -1    0    0    0  501 -0.00000000000E+00 -0.00000000000E+00 -0.52405200765E+02  0.52405200765E+02  0.00000000000E+00 0.  1.
         25    2    1    2    0    0 -0.64482020549E+02 -0.79471066035E+02  0.36972564973E+03  0.40347769027E+03  0.12499443655E+03 0.  0.
         23    2    1    2    0    0  0.64482020549E+02  0.79471066035E+02  0.93067427919E+02  0.16412578891E+03  0.88329763581E+02 0.  0.
          5    1    3    3  502    0 -0.94388624372E+02 -0.27126784706E+02  0.19136732573E+03  0.21514789847E+03  0.47000000000E+01 0.  1.
         -5    1    3    3    0  502  0.29906603822E+02 -0.52344281329E+02  0.17835832400E+03  0.18832979180E+03  0.47000000000E+01 0.  1.
          5    1    4    4  503    0  0.29273143546E+02  0.40633126321E+02  0.99114530351E+02  0.11114741569E+03  0.47000000000E+01 0. -1.
         -5    1    4    4    0  503  0.35208877003E+02  0.38837939714E+02 -0.60471024317E+01  0.52978373219E+02  0.47000000000E+01 0.  1.
<mgrwt>
<rscale>  0 0.15451014E+03</rscale>
<asrwt>0</asrwt>
<pdfrwt beam="1">  1        2 0.79261270E-01 0.16154625E+03</pdfrwt>
<pdfrwt beam="2">  1       -2 0.80623389E-02 0.16154625E+03</pdfrwt>
<totfact> 0.54623079E+03</totfact>
</mgrwt>
</event>
<event>
 8    1  0.3629925E-004  0.2542007E+03  0.7546771E-02  0.1113147E+00
          2   -1    0    0  501    0  0.00000000000E+00  0.00000000000E+00  0.92838761526E+03  0.92838761526E+03  0.00000000000E+00 0. -1.
         -2   -1    0    0    0  501 -0.00000000000E+00 -0.00000000000E+00 -0.67090829051E+02  0.67090829051E+02  0.00000000000E+00 0.  1.
         25    2    1    2    0    0  0.10236747115E+03 -0.19624841052E+03  0.36573752309E+03  0.44540089258E+03  0.12500192612E+03 0.  0.
         23    2    1    2    0    0 -0.10236747115E+03  0.19624841052E+03  0.49555926312E+03  0.55007755173E+03  0.89519784820E+02 0.  0.
          5    1    3    3  502    0  0.12502211040E+03 -0.11974591321E+03  0.26887546316E+03  0.31982138219E+03  0.47000000000E+01 0.  1.
         -5    1    4    4    0  503 -0.55919586627E+02  0.17873704064E+03  0.41517809772E+03  0.45548751102E+03  0.47000000000E+01 0.  1.
          5    1    4    4  503    0 -0.46447884520E+02  0.17511369879E+02  0.80381165400E+02  0.94590040715E+02  0.47000000000E+01 0. -1.
         -5    1    3    3    0  502 -0.22654639254E+02 -0.76502497313E+02  0.96862059929E+02  0.12557951039E+03  0.47000000000E+01 0.  1.
<mgrwt>
<rscale>  0 0.25024937E+03</rscale>
<asrwt>0</asrwt>
<pdfrwt beam="1">  1        2 0.14282885E+00 0.25420075E+03</pdfrwt>
<pdfrwt beam="2">  1       -2 0.10321667E-01 0.25420075E+03</pdfrwt>
<totfact> 0.18352241E+03</totfact>
</mgrwt>
</event>
<event>
 8    1  0.3629925E-004  0.1396889E+03  0.7546771E-02  0.1224799E+00
          2   -1    0    0  501    0  0.00000000000E+00  0.00000000000E+00  0.12757689876E+03  0.12757689876E+03  0.00000000000E+00 0. -1.
         -2   -1    0    0    0  501 -0.00000000000E+00 -0.00000000000E+00 -0.14317790541E+03  0.14317790541E+03  0.00000000000E+00 0.  1.
         25    2    1    2    0    0 -0.61911805167E+02  0.74677244689E+01  0.42096383975E+02  0.14589410167E+03  0.12499657927E+03 0.  0.
         23    2    1    2    0    0  0.61911805167E+02 -0.74677244689E+01 -0.57697390628E+02  0.12486070251E+03  0.91500642720E+02 0.  0.
          5    1    3    3  502    0  0.30932059053E+02 -0.13334713534E+02  0.37349368456E+02  0.50514079090E+02  0.47000000000E+01 0. -1.
         -5    1    3    3    0  502 -0.92843864220E+02  0.20802438002E+02  0.47470155189E+01  0.95380022575E+02  0.47000000000E+01 0. -1.
          5    1    4    4  503    0  0.94533412839E+01  0.37506522323E+02 -0.84261379520E+01  0.39864704677E+02  0.47000000000E+01 0. -1.
         -5    1    4    4    0  503  0.52458463883E+02 -0.44974246791E+02 -0.49271252676E+02  0.84995997833E+02  0.47000000000E+01 0.  1.
<mgrwt>
<rscale>  0 0.13180686E+03</rscale>
<asrwt>0</asrwt>
<pdfrwt beam="1">  1        2 0.19627215E-01 0.13968888E+03</pdfrwt>
<pdfrwt beam="2">  1       -2 0.22027370E-01 0.13968888E+03</pdfrwt>
<totfact> 0.48234741E+03</totfact>
</mgrwt>
</event>
<event>
 8    1  0.3629925E-004  0.1304454E+03  0.7546771E-02  0.1239867E+00
         -2   -1    0    0    0  501 -0.00000000000E+00  0.00000000000E+00  0.12357526107E+03  0.12357526107E+03  0.00000000000E+00 0.  1.
          2   -1    0    0  501    0  0.00000000000E+00 -0.00000000000E+00 -0.15744856650E+03  0.15744856650E+03  0.00000000000E+00 0. -1.
         25    2    1    2    0    0  0.23509981692E+02  0.28923832434E+02  0.60430074471E+02  0.14376298873E+03  0.12500678264E+03 0.  0.
         23    2    1    2    0    0 -0.23509981692E+02 -0.28923832434E+02 -0.94303379895E+02  0.13726083884E+03  0.92510016203E+02 0.  0.
          5    1    4    4  502    0 -0.37210846669E+02  0.90140683328E+01 -0.88107779313E+02  0.96181969793E+02  0.47000000000E+01 0. -1.
         -5    1    4    4    0  502  0.13700864977E+02 -0.37937900767E+02 -0.61956005820E+01  0.41078869048E+02  0.47000000000E+01 0.  1.
          5    1    3    3  503    0 -0.43112890349E+01  0.38814649891E+02 -0.29386849872E+02  0.49100317766E+02  0.47000000000E+01 0. -1.
         -5    1    3    3    0  503  0.27821270727E+02 -0.98908174572E+01  0.89816924343E+02  0.94662670959E+02  0.47000000000E+01 0. -1.
<mgrwt>
<rscale>  0 0.12197908E+03</rscale>
<asrwt>0</asrwt>
<pdfrwt beam="1">  1        2 0.24222856E-01 0.13044540E+03</pdfrwt>
<pdfrwt beam="2">  1       -2 0.19011579E-01 0.13044540E+03</pdfrwt>
<totfact> 0.48726468E+03</totfact>
</mgrwt>
</event>
<event>
 8    1  0.3629925E-004  0.1362407E+03  0.7546771E-02  0.1230720E+00
         -2   -1    0    0    0  501 -0.00000000000E+00  0.00000000000E+00  0.40951135634E+02  0.40951135634E+02  0.00000000000E+00 0.  1.
          2   -1    0    0  501    0  0.00000000000E+00 -0.00000000000E+00 -0.39109883071E+03  0.39109883071E+03  0.00000000000E+00 0. -1.
         25    2    1    2    0    0  0.97050264094E+01 -0.53310510705E+02 -0.13198831174E+03  0.18969041153E+03  0.12500135880E+03 0.  0.
         23    2    1    2    0    0 -0.97050264094E+01  0.53310510705E+02 -0.21815938334E+03  0.24235955481E+03  0.90600436986E+02 0.  0.
          5    1    4    4  502    0  0.92839454212E+01  0.44709248291E+02 -0.21606527518E+03  0.22088775807E+03  0.47000000000E+01 0. -1.
         -5    1    4    4    0  502 -0.18988971831E+02  0.86012624141E+01 -0.20941081507E+01  0.21471796740E+02  0.47000000000E+01 0.  1.
          5    1    3    3  503    0 -0.33923814429E+02 -0.77862360663E+02 -0.93232226859E+02  0.12620503365E+03  0.47000000000E+01 0. -1.
         -5    1    3    3    0  503  0.43628840839E+02  0.24551849958E+02 -0.38756084878E+02  0.63485377879E+02  0.47000000000E+01 0. -1.
<mgrwt>
<rscale>  0 0.12782432E+03</rscale>
<asrwt>0</asrwt>
<pdfrwt beam="1">  1        2 0.60169049E-01 0.13624073E+03</pdfrwt>
<pdfrwt beam="2">  1       -2 0.63001749E-02 0.13624073E+03</pdfrwt>
<totfact> 0.10649840E+04</totfact>
</mgrwt>
</event>
<event>
 8    1  0.3629925E-004  0.1263641E+03  0.7546771E-02  0.1247636E+00
         -2   -1    0    0    0  501 -0.00000000000E+00  0.00000000000E+00  0.15632327489E+02  0.15632327489E+02  0.00000000000E+00 0.  1.
          2   -1    0    0  501    0  0.00000000000E+00 -0.00000000000E+00 -0.81322374804E+03  0.81322374804E+03  0.00000000000E+00 0. -1.
         25    2    1    2    0    0  0.16181283003E+02  0.90676746686E+01 -0.36629246141E+03  0.38747653198E+03  0.12499535554E+03 0.  0.
         23    2    1    2    0    0 -0.16181283003E+02 -0.90676746686E+01 -0.43129895914E+03  0.44137954354E+03  0.91940484345E+02 0.  0.
          5    1    3    3  502    0 -0.32446112994E+02  0.51837739282E+02 -0.17029821056E+03  0.18100682855E+03  0.47000000000E+01 0. -1.
         -5    1    3    3    0  502  0.48627395997E+02 -0.42770064613E+02 -0.19599425085E+03  0.20646970343E+03  0.47000000000E+01 0. -1.
          5    1    4    4  503    0 -0.19279231302E+02  0.39311391754E+02 -0.23794602105E+03  0.24198651453E+03  0.47000000000E+01 0. -1.
         -5    1    4    4    0  503  0.30979482995E+01 -0.48379066422E+02 -0.19335293809E+03  0.19939302901E+03  0.47000000000E+01 0.  1.
<mgrwt>
<rscale>  0 0.11728984E+03</rscale>
<asrwt>0</asrwt>
<pdfrwt beam="1">  1        2 0.12511133E+00 0.12636414E+03</pdfrwt>
<pdfrwt beam="2">  1       -2 0.24049737E-02 0.12636414E+03</pdfrwt>
<totfact> 0.19304894E+04</totfact>
</mgrwt>
</event>
<event>
 8    1  0.3629925E-004  0.1266786E+03  0.7546771E-02  0.1247592E+00
         -1   -1    0    0    0  501 -0.00000000000E+00  0.00000000000E+00  0.23557471752E+03  0.23557471752E+03  0.00000000000E+00 0.  1.
          1   -1    0    0  501    0  0.00000000000E+00 -0.00000000000E+00 -0.52835190478E+02  0.52835190478E+02  0.00000000000E+00 0. -1.
         25    2    1    2    0    0  0.14364151766E+02  0.14927821892E+02  0.12921243026E+03  0.18095117043E+03  0.12497321803E+03 0.  0.
         23    2    1    2    0    0 -0.14364151766E+02 -0.14927821892E+02  0.53527096782E+02  0.10745873756E+03  0.90846361875E+02 0.  0.
          5    1    4    4  502    0  0.24059208494E+02 -0.39258252810E+02  0.18420576630E+02  0.49814290826E+02  0.47000000000E+01 0. -1.
         -5    1    3    3    0  503  0.30282289179E+02 -0.13658335553E+02  0.14169852065E+03  0.14561637244E+03  0.47000000000E+01 0. -1.
          5    1    3    3  503    0 -0.15918137413E+02  0.28586157445E+02 -0.12486090391E+02  0.35334797996E+02  0.47000000000E+01 0. -1.
         -5    1    4    4    0  502 -0.38423360260E+02  0.24330430918E+02  0.35106520151E+02  0.57644446735E+02  0.47000000000E+01 0.  1.
<mgrwt>
<rscale>  0 0.11731578E+03</rscale>
<asrwt>0</asrwt>
<pdfrwt beam="1">  1        1 0.81284910E-02 0.12667862E+03</pdfrwt>
<pdfrwt beam="2">  1       -1 0.36242264E-01 0.12667862E+03</pdfrwt>
<totfact> 0.59174011E+03</totfact>
</mgrwt>
</event>
<event>
 8    1  0.3629925E-004  0.2942202E+03  0.7546771E-02  0.1089843E+00
         -1   -1    0    0    0  501 -0.00000000000E+00  0.00000000000E+00  0.45182448914E+03  0.45182448914E+03  0.00000000000E+00 0.  1.
          1   -1    0    0  501    0  0.00000000000E+00 -0.00000000000E+00 -0.19775481152E+03  0.19775481152E+03  0.00000000000E+00 0. -1.
         25    2    1    2    0    0  0.25392124082E+03  0.80417094434E+02  0.21725732524E+03  0.36574075110E+03  0.12499058376E+03 0.  0.
         23    2    1    2    0    0 -0.25392124082E+03 -0.80417094434E+02  0.36812352383E+02  0.28383854956E+03  0.90919015116E+02 0.  0.
          5    1    4    4  502    0 -0.20497963991E+03 -0.53203694807E+02 -0.79820235249E+01  0.21197426405E+03  0.47000000000E+01 0. -1.
         -5    1    4    4    0  502 -0.48941600912E+02 -0.27213399626E+02  0.44794375908E+02  0.71864285511E+02  0.47000000000E+01 0.  1.
          5    1    3    3  503    0  0.48695692558E+02  0.61086785304E+02  0.10505283109E+03  0.13100020280E+03  0.47000000000E+01 0.  1.
         -5    1    3    3    0  503  0.20522554826E+03  0.19330309129E+02  0.11220449415E+03  0.23474054830E+03  0.47000000000E+01 0.  1.
<mgrwt>
<rscale>  0 0.29097210E+03</rscale>
<asrwt>0</asrwt>
<pdfrwt beam="1">  1        1 0.30423817E-01 0.29422024E+03</pdfrwt>
<pdfrwt beam="2">  1       -1 0.69511460E-01 0.29422024E+03</pdfrwt>
<totfact> 0.32482118E+02</totfact>
</mgrwt>
</event>
<event>
 8    1  0.3629925E-004  0.1348166E+03  0.7546771E-02  0.1233004E+00
         -1   -1    0    0    0  501 -0.00000000000E+00  0.00000000000E+00  0.65258229594E+02  0.65258229594E+02  0.00000000000E+00 0.  1.
          1   -1    0    0  501    0  0.00000000000E+00 -0.00000000000E+00 -0.47858744835E+03  0.47858744835E+03  0.00000000000E+00 0. -1.
         25    2    1    2    0    0  0.47726742297E+02  0.16499732292E+02 -0.41859299099E+03  0.43976766561E+03  0.12500169804E+03 0.  0.
         23    2    1    2    0    0 -0.47726742297E+02 -0.16499732292E+02  0.52637722316E+01  0.10407801234E+03  0.90853961156E+02 0.  0.
          5    1    4    4  502    0 -0.67984531042E+02 -0.29092349239E+02 -0.10884744425E+02  0.74892115115E+02  0.47000000000E+01 0. -1.
         -5    1    3    3    0  503 -0.36590434977E+02 -0.10881112537E+02 -0.20300857950E+03  0.20662001813E+03  0.47000000000E+01 0. -1.
          5    1    3    3  503    0  0.84317177274E+02  0.27380844830E+02 -0.21558441149E+03  0.23314764747E+03  0.47000000000E+01 0. -1.
         -5    1    4    4    0  502  0.20257788745E+02  0.12592616946E+02  0.16148516656E+02  0.29185897221E+02  0.47000000000E+01 0.  1.
<mgrwt>
<rscale>  0 0.12633049E+03</rscale>
<asrwt>0</asrwt>
<pdfrwt beam="1">  1        1 0.73628840E-01 0.13481657E+03</pdfrwt>
<pdfrwt beam="2">  1       -1 0.10039727E-01 0.13481657E+03</pdfrwt>
<totfact> 0.28263738E+03</totfact>
</mgrwt>
</event>
<event>
 8    1  0.3629925E-004  0.1260424E+03  0.7546771E-02  0.1249100E+00
          1   -1    0    0  501    0  0.00000000000E+00  0.00000000000E+00  0.10175716818E+02  0.10175716818E+02  0.00000000000E+00 0. -1.
         -1   -1    0    0    0  501 -0.00000000000E+00 -0.00000000000E+00 -0.11808061499E+04  0.11808061499E+04  0.00000000000E+00 0.  1.
         25    2    1    2    0    0 -0.79469321289E+01  0.14013473361E+02 -0.60965910707E+03  0.62255192800E+03  0.12500857992E+03 0.  0.
         23    2    1    2    0    0  0.79469321289E+01 -0.14013473361E+02 -0.56097132604E+03  0.56842993875E+03  0.90356158962E+02 0.  0.
          5    1    3    3  502    0  0.36004323406E+02 -0.36432363765E+02 -0.16408878831E+03  0.17196176576E+03  0.47000000000E+01 0.  1.
         -5    1    4    4    0  503 -0.19768932250E+02 -0.45285222768E+02 -0.29068178627E+03  0.29488905194E+03  0.47000000000E+01 0.  1.
          5    1    4    4  503    0  0.27715864378E+02  0.31271749407E+02 -0.27028953977E+03  0.27354088681E+03  0.47000000000E+01 0. -1.
         -5    1    3    3    0  502 -0.43951255535E+02  0.50445837126E+02 -0.44557031876E+03  0.45059016224E+03  0.47000000000E+01 0.  1.
<mgrwt>
<rscale>  0 0.11643289E+03</rscale>
<asrwt>0</asrwt>
<pdfrwt beam="1">  1        1 0.15654959E-02 0.12604236E+03</pdfrwt>
<pdfrwt beam="2">  1       -1 0.18166237E+00 0.12604236E+03</pdfrwt>
<totfact> 0.18444166E+03</totfact>
</mgrwt>
</event>
<event>
 8    1  0.3629925E-004  0.2156222E+03  0.7546771E-02  0.1140724E+00
         -2   -1    0    0    0  501 -0.00000000000E+00  0.00000000000E+00  0.45022621182E+02  0.45022621182E+02  0.00000000000E+00 0.  1.
          2   -1    0    0  501    0  0.00000000000E+00 -0.00000000000E+00 -0.95032120497E+03  0.95032120497E+03  0.00000000000E+00 0. -1.
         25    2    1    2    0    0 -0.93656805856E+02  0.14865063167E+03 -0.46081733339E+03  0.50876863815E+03  0.12499721931E+03 0.  0.
         23    2    1    2    0    0  0.93656805856E+02 -0.14865063167E+03 -0.44448125040E+03  0.48657518800E+03  0.91231705234E+02 0.  0.
          5    1    3    3  502    0 -0.12122574393E+03  0.99427308058E+02 -0.30470265929E+03  0.34270580847E+03  0.47000000000E+01 0.  1.
         -5    1    3    3    0  502  0.27568938072E+02  0.49223323616E+02 -0.15611467409E+03  0.16606282968E+03  0.47000000000E+01 0.  1.
          5    1    4    4  503    0  0.89790617197E+01 -0.90456835859E+02 -0.16010894107E+03  0.18417390074E+03  0.47000000000E+01 0. -1.
         -5    1    4    4    0  503  0.84677744136E+02 -0.58193795815E+02 -0.28437230933E+03  0.30240128726E+03  0.47000000000E+01 0.  1.
<mgrwt>
<rscale>  0 0.21106658E+03</rscale>
<asrwt>0</asrwt>
<pdfrwt beam="1">  1        2 0.14620325E+00 0.21562215E+03</pdfrwt>
<pdfrwt beam="2">  1       -2 0.69265576E-02 0.21562215E+03</pdfrwt>
<totfact> 0.33195826E+03</totfact>
</mgrwt>
</event>
<event>
 8    1  0.3629925E-004  0.1487089E+03  0.7546771E-02  0.1210336E+00
          2   -1    0    0  501    0  0.00000000000E+00  0.00000000000E+00  0.70852830522E+03  0.70852830522E+03  0.00000000000E+00 0. -1.
         -2   -1    0    0    0  501 -0.00000000000E+00 -0.00000000000E+00 -0.26365103237E+02  0.26365103237E+02  0.00000000000E+00 0.  1.
         25    2    1    2    0    0 -0.45145784451E+02 -0.66718884543E+02  0.38310222985E+03  0.41095211687E+03  0.12499908973E+03 0.  0.
         23    2    1    2    0    0  0.45145784451E+02  0.66718884543E+02  0.29906097213E+03  0.32394129159E+03  0.94925991881E+02 0.  0.
          5    1    4    4  502    0  0.57511099422E+01  0.50444372580E+02  0.26304428669E+03  0.26794047240E+03  0.47000000000E+01 0. -1.
         -5    1    3    3    0  503 -0.81964349201E+02 -0.30792577010E+02  0.30467441245E+03  0.31704088844E+03  0.47000000000E+01 0.  1.
          5    1    3    3  503    0  0.36818564750E+02 -0.35926307533E+02  0.78427817400E+02  0.93911228431E+02  0.47000000000E+01 0.  1.
         -5    1    4    4    0  502  0.39394674509E+02  0.16274511963E+02  0.36016685443E+02  0.56000819187E+02  0.47000000000E+01 0.  1.
<mgrwt>
<rscale>  0 0.14224789E+03</rscale>
<asrwt>0</asrwt>
<pdfrwt beam="1">  1        2 0.10900434E+00 0.14870886E+03</pdfrwt>
<pdfrwt beam="2">  1       -2 0.40561703E-02 0.14870886E+03</pdfrwt>
<totfact> 0.10701493E+04</totfact>
</mgrwt>
</event>
<event>
 8    1  0.3629925E-004  0.1994514E+03  0.7546771E-02  0.1155122E+00
         -2   -1    0    0    0  501 -0.00000000000E+00  0.00000000000E+00  0.50128610351E+02  0.50128610351E+02  0.00000000000E+00 0.  1.
          2   -1    0    0  501    0  0.00000000000E+00 -0.00000000000E+00 -0.77766893372E+03  0.77766893372E+03  0.00000000000E+00 0. -1.
         25    2    1    2    0    0  0.11141355535E+03  0.10836181675E+03 -0.26020921080E+03  0.32785619996E+03  0.12500236325E+03 0.  0.
         23    2    1    2    0    0 -0.11141355535E+03 -0.10836181675E+03 -0.46733111257E+03  0.49994134411E+03  0.85951818678E+02 0.  0.
          5    1    3    3  502    0  0.86345978425E+02  0.12959839161E+03 -0.16456119352E+03  0.22661387316E+03  0.47000000000E+01 0.  1.
         -5    1    4    4    0  503 -0.51983159368E+02 -0.40119470282E+01 -0.92140605230E+02  0.10597323110E+03  0.47000000000E+01 0.  1.
          5    1    4    4  503    0 -0.59430395987E+02 -0.10434986972E+03 -0.37519050734E+03  0.39396811302E+03  0.47000000000E+01 0. -1.
         -5    1    3    3    0  502  0.25067576929E+02 -0.21236574858E+02 -0.95648017284E+02  0.10124232680E+03  0.47000000000E+01 0.  1.
<mgrwt>
<rscale>  0 0.19374952E+03</rscale>
<asrwt>0</asrwt>
<pdfrwt beam="1">  1        2 0.11964137E+00 0.19945138E+03</pdfrwt>
<pdfrwt beam="2">  1       -2 0.77120942E-02 0.19945138E+03</pdfrwt>
<totfact> 0.36438497E+03</totfact>
</mgrwt>
</event>
<event>
 8    1  0.3629925E-004  0.1621363E+03  0.7546771E-02  0.1193524E+00
          2   -1    0    0  501    0  0.00000000000E+00  0.00000000000E+00  0.11929430639E+04  0.11929430639E+04  0.00000000000E+00 0. -1.
         -2   -1    0    0    0  501 -0.00000000000E+00 -0.00000000000E+00 -0.18954392500E+02  0.18954392500E+02  0.00000000000E+00 0.  1.
         25    2    1    2    0    0  0.48197055061E+02 -0.91332283890E+02  0.60346729057E+03  0.62486875820E+03  0.12499460782E+03 0.  0.
         23    2    1    2    0    0 -0.48197055061E+02  0.91332283890E+02  0.57052138084E+03  0.58702869822E+03  0.91888543001E+02 0.  0.
          5    1    4    4  502    0 -0.72424322461E+02  0.53749339906E+02  0.43389769564E+03  0.44319699267E+03  0.47000000000E+01 0. -1.
         -5    1    3    3    0  503 -0.14261345487E+02 -0.94593999800E+02  0.29744292802E+03  0.31248327348E+03  0.47000000000E+01 0.  1.
          5    1    3    3  503    0  0.62458400548E+02  0.32617159101E+01  0.30602436255E+03  0.31238548472E+03  0.47000000000E+01 0.  1.
         -5    1    4    4    0  502  0.24227267399E+02  0.37582943984E+02  0.13662368520E+03  0.14383170555E+03  0.47000000000E+01 0.  1.
<mgrwt>
<rscale>  0 0.15579816E+03</rscale>
<asrwt>0</asrwt>
<pdfrwt beam="1">  1        2 0.18352964E+00 0.16213634E+03</pdfrwt>
<pdfrwt beam="2">  1       -2 0.29160613E-02 0.16213634E+03</pdfrwt>
<totfact> 0.87236142E+03</totfact>
</mgrwt>
</event>
<event>
 8    1  0.3629925E-004  0.1486091E+03  0.7546771E-02  0.1211375E+00
          1   -1    0    0  501    0  0.00000000000E+00  0.00000000000E+00  0.92994354215E+02  0.92994354215E+02  0.00000000000E+00 0. -1.
         -1   -1    0    0    0  501 -0.00000000000E+00 -0.00000000000E+00 -0.26139531109E+03  0.26139531109E+03  0.00000000000E+00 0.  1.
         25    2    1    2    0    0  0.80040779980E+02 -0.72678946847E+01 -0.27300007810E+01  0.14863419211E+03  0.12500128562E+03 0.  0.
         23    2    1    2    0    0 -0.80040779980E+02  0.72678946847E+01 -0.16567095609E+03  0.20575547319E+03  0.91810131812E+02 0.  0.
          5    1    4    4  502    0 -0.69201401434E+02 -0.25658812108E+02 -0.62540731036E+02  0.96853712566E+02  0.47000000000E+01 0. -1.
         -5    1    3    3    0  503  0.44628553488E+02 -0.65844293391E+02  0.33714002072E+01  0.79753589875E+02  0.47000000000E+01 0. -1.
          5    1    3    3  503    0  0.35412226492E+02  0.58576398706E+02 -0.61014009882E+01  0.68880602237E+02  0.47000000000E+01 0. -1.
         -5    1    4    4    0  502 -0.10839378546E+02  0.32926706793E+02 -0.10313022506E+03  0.10890176063E+03  0.47000000000E+01 0.  1.
<mgrwt>
<rscale>  0 0.14146216E+03</rscale>
<asrwt>0</asrwt>
<pdfrwt beam="1">  1        1 0.14306824E-01 0.14860912E+03</pdfrwt>
<pdfrwt beam="2">  1       -1 0.40214663E-01 0.14860912E+03</pdfrwt>
<totfact> 0.23626389E+03</totfact>
</mgrwt>
</event>
<event>
 8    1  0.3629925E-004  0.2777648E+03  0.7546771E-02  0.1098829E+00
          1   -1    0    0  501    0  0.00000000000E+00  0.00000000000E+00  0.55489126544E+03  0.55489126544E+03  0.00000000000E+00 0. -1.
         -1   -1    0    0    0  501 -0.00000000000E+00 -0.00000000000E+00 -0.13659491244E+03  0.13659491244E+03  0.00000000000E+00 0.  1.
         25    2    1    2    0    0  0.82606158021E+02  0.23388071835E+03  0.15337394082E+03  0.31729611445E+03  0.12501716187E+03 0.  0.
         23    2    1    2    0    0 -0.82606158021E+02 -0.23388071835E+03  0.26492241218E+03  0.37419006343E+03  0.91161128421E+02 0.  0.
          5    1    4    4  502    0 -0.59459307134E+02 -0.22146341551E+03  0.26060654356E+03  0.34715891773E+03  0.47000000000E+01 0. -1.
         -5    1    4    4    0  502 -0.23146850887E+02 -0.12417302848E+02  0.43158686182E+01  0.27031145702E+02  0.47000000000E+01 0.  1.
          5    1    3    3  503    0  0.28933992632E+02 -0.65503476211E+01  0.26982646862E+02  0.40376183763E+02  0.47000000000E+01 0.  1.
         -5    1    3    3    0  503  0.53672165389E+02  0.24043106598E+03  0.12639129396E+03  0.27691993069E+03  0.47000000000E+01 0.  1.
<mgrwt>
<rscale>  0 0.27432568E+03</rscale>
<asrwt>0</asrwt>
<pdfrwt beam="1">  1        1 0.85367886E-01 0.27776475E+03</pdfrwt>
<pdfrwt beam="2">  1       -1 0.21014602E-01 0.27776475E+03</pdfrwt>
<totfact> 0.73109089E+02</totfact>
</mgrwt>
</event>
<event>
 8    1  0.3629925E-004  0.1442365E+03  0.7546771E-02  0.1218356E+00
          1   -1    0    0  501    0  0.00000000000E+00  0.00000000000E+00  0.11619490653E+04  0.11619490653E+04  0.00000000000E+00 0. -1.
         -1   -1    0    0    0  501 -0.00000000000E+00 -0.00000000000E+00 -0.14509262707E+02  0.14509262707E+02  0.00000000000E+00 0.  1.
         25    2    1    2    0    0  0.48656967654E+01  0.71800352186E+02  0.66766158560E+03  0.68306380772E+03  0.12500082780E+03 0.  0.
         23    2    1    2    0    0 -0.48656967654E+01 -0.71800352186E+02  0.47977821700E+03  0.49339452030E+03  0.89844585644E+02 0.  0.
          5    1    4    4  502    0  0.27864604749E+02 -0.76410716057E+02  0.35488184598E+03  0.36411296095E+03  0.47000000000E+01 0. -1.
         -5    1    4    4    0  502 -0.32730301515E+02  0.46103638713E+01  0.12489637102E+03  0.12928155934E+03  0.47000000000E+01 0.  1.
          5    1    3    3  503    0 -0.19035728870E+02  0.92350567938E+02  0.60927034631E+03  0.61654150815E+03  0.47000000000E+01 0.  1.
         -5    1    3    3    0  503  0.23901425636E+02 -0.20550215753E+02  0.58391239289E+02  0.66522299574E+02  0.47000000000E+01 0.  1.
<mgrwt>
<rscale>  0 0.13632878E+03</rscale>
<asrwt>0</asrwt>
<pdfrwt beam="1">  1        1 0.17876132E+00 0.14423652E+03</pdfrwt>
<pdfrwt beam="2">  1       -1 0.22321952E-02 0.14423652E+03</pdfrwt>
<totfact> 0.69375301E+03</totfact>
</mgrwt>
</event>
<event>
 8    1  0.3629925E-004  0.1338940E+03  0.7546771E-02  0.1234530E+00
          1   -1    0    0  501    0  0.00000000000E+00  0.00000000000E+00  0.15779604643E+03  0.15779604643E+03  0.00000000000E+00 0. -1.
         -1   -1    0    0    0  501 -0.00000000000E+00 -0.00000000000E+00 -0.10167288780E+03  0.10167288780E+03  0.00000000000E+00 0.  1.
         25    2    1    2    0    0  0.19634951322E+02 -0.43779593867E+02 -0.14557561177E+02  0.13468306109E+03  0.12500168080E+03 0.  0.
         23    2    1    2    0    0 -0.19634951322E+02  0.43779593867E+02  0.70680719803E+02  0.12478587315E+03  0.90959143754E+02 0.  0.
          5    1    3    3  502    0  0.47388442251E+02  0.26611451287E+02  0.90156241236E+01  0.55292000117E+02  0.47000000000E+01 0. -1.
         -5    1    3    3    0  502 -0.27753490929E+02 -0.70391045154E+02 -0.23573185301E+02  0.79391060969E+02  0.47000000000E+01 0. -1.
          5    1    4    4  503    0  0.14038808662E+02  0.39245450838E+02  0.79040541570E+02  0.89480672616E+02  0.47000000000E+01 0. -1.
         -5    1    4    4    0  503 -0.33673759984E+02  0.45341430286E+01 -0.83598217675E+01  0.35305200530E+02  0.47000000000E+01 0.  1.
<mgrwt>
<rscale>  0 0.12534579E+03</rscale>
<asrwt>0</asrwt>
<pdfrwt beam="1">  1        1 0.24276315E-01 0.13389400E+03</pdfrwt>
<pdfrwt beam="2">  1       -1 0.15641983E-01 0.13389400E+03</pdfrwt>
<totfact> 0.56839758E+03</totfact>
</mgrwt>
</event>
<event>
 8    1  0.3629925E-004  0.1926307E+03  0.7546771E-02  0.1160429E+00
         -2   -1    0    0    0  501 -0.00000000000E+00  0.00000000000E+00  0.17659109016E+03  0.17659109016E+03  0.00000000000E+00 0.  1.
          2   -1    0    0  501    0  0.00000000000E+00 -0.00000000000E+00 -0.26910544574E+03  0.26910544574E+03  0.00000000000E+00 0. -1.
         25    2    1    2    0    0  0.11547089411E+03 -0.90253851470E+02 -0.16827509356E+03  0.25577935748E+03  0.12500914971E+03 0.  0.
         23    2    1    2    0    0 -0.11547089411E+03  0.90253851470E+02  0.75760737975E+02  0.18991717842E+03  0.94072100810E+02 0.  0.
          5    1    3    3  502    0  0.10269270225E+03 -0.18421355695E+02 -0.14569529827E+03  0.17926055723E+03  0.47000000000E+01 0.  1.
         -5    1    4    4    0  503 -0.11882810854E+03  0.64750271548E+02  0.87537910020E+02  0.16123800028E+03  0.47000000000E+01 0.  1.
          5    1    4    4  503    0  0.33572144292E+01  0.25503579922E+02 -0.11777172045E+02  0.28679178143E+02  0.47000000000E+01 0. -1.
         -5    1    3    3    0  502  0.12778191853E+02 -0.71832495774E+02 -0.22579795288E+02  0.76518800248E+02  0.47000000000E+01 0.  1.
<mgrwt>
<rscale>  0 0.18783480E+03</rscale>
<asrwt>0</asrwt>
<pdfrwt beam="1">  1        2 0.41400838E-01 0.19263066E+03</pdfrwt>
<pdfrwt beam="2">  1       -2 0.27167860E-01 0.19263066E+03</pdfrwt>
<totfact> 0.14942442E+03</totfact>
</mgrwt>
</event>
<event>
 8    1  0.3629925E-004  0.1622522E+03  0.7546771E-02  0.1193238E+00
         -1   -1    0    0    0  501 -0.00000000000E+00  0.00000000000E+00  0.23991233347E+02  0.23991233347E+02  0.00000000000E+00 0.  1.
          1   -1    0    0  501    0  0.00000000000E+00 -0.00000000000E+00 -0.94718449604E+03  0.94718449604E+03  0.00000000000E+00 0. -1.
         25    2    1    2    0    0  0.65190814103E+02  0.80318929533E+02 -0.52335422997E+03  0.54792829792E+03  0.12499918777E+03 0.  0.
         23    2    1    2    0    0 -0.65190814103E+02 -0.80318929533E+02 -0.39983903271E+03  0.42324743146E+03  0.92553570836E+02 0.  0.
          5    1    3    3  502    0  0.60554639420E+02  0.35208857514E+02 -0.47969278362E+03  0.48480283070E+03  0.47000000000E+01 0. -1.
         -5    1    3    3    0  502  0.46361746830E+01  0.45110072019E+02 -0.43661446359E+02  0.63125467218E+02  0.47000000000E+01 0. -1.
          5    1    4    4  503    0 -0.30611094344E+02 -0.40894081937E+02 -0.33869712110E+03  0.34255976833E+03  0.47000000000E+01 0. -1.
         -5    1    4    4    0  503 -0.34579719760E+02 -0.39424847596E+02 -0.61141911609E+02  0.80687663133E+02  0.47000000000E+01 0.  1.
<mgrwt>
<rscale>  0 0.15604327E+03</rscale>
<asrwt>0</asrwt>
<pdfrwt beam="1">  1        1 0.14572067E+00 0.16225218E+03</pdfrwt>
<pdfrwt beam="2">  1       -1 0.36909596E-02 0.16225218E+03</pdfrwt>
<totfact> 0.47790877E+03</totfact>
</mgrwt>
</event>
<event>
 8    1  0.3629925E-004  0.1582847E+03  0.7546771E-02  0.1197045E+00
         -2   -1    0    0    0  501 -0.00000000000E+00  0.00000000000E+00  0.28243337157E+02  0.28243337157E+02  0.00000000000E+00 0.  1.
          2   -1    0    0  501    0  0.00000000000E+00 -0.00000000000E+00 -0.83612613400E+03  0.83612613400E+03  0.00000000000E+00 0. -1.
         25    2    1    2    0    0  0.89158794555E+02  0.38456913210E+02 -0.31326257768E+03  0.35098076411E+03  0.12500331749E+03 0.  0.
         23    2    1    2    0    0 -0.89158794555E+02 -0.38456913210E+02 -0.49462021917E+03  0.51338870705E+03  0.97419600148E+02 0.  0.
          5    1    3    3  502    0  0.89675436128E+02  0.62591498865E+02 -0.30652258891E+03  0.32548051721E+03  0.47000000000E+01 0.  1.
         -5    1    3    3    0  502 -0.51664157317E+00 -0.24134585655E+02 -0.67399887674E+01  0.25500246897E+02  0.47000000000E+01 0.  1.
          5    1    4    4  503    0 -0.10613340574E+03 -0.24886091975E+02 -0.45554394390E+03  0.46842928198E+03  0.47000000000E+01 0. -1.
         -5    1    4    4    0  503  0.16974611186E+02 -0.13570821235E+02 -0.39076275265E+02  0.44959425069E+02  0.47000000000E+01 0.  1.
<mgrwt>
<rscale>  0 0.15282379E+03</rscale>
<asrwt>0</asrwt>
<pdfrwt beam="1">  1        2 0.12863477E+00 0.15828473E+03</pdfrwt>
<pdfrwt beam="2">  1       -2 0.43451293E-02 0.15828473E+03</pdfrwt>
<totfact> 0.79006772E+03</totfact>
</mgrwt>
</event>
<event>
 8    1  0.3629925E-004  0.1266055E+03  0.7546771E-02  0.1247858E+00
          3   -1    0    0  501    0  0.00000000000E+00  0.00000000000E+00  0.12715322813E+02  0.12715322813E+02  0.00000000000E+00 0. -1.
         -3   -1    0    0    0  501 -0.00000000000E+00 -0.00000000000E+00 -0.95164778266E+03  0.95164778266E+03  0.00000000000E+00 0.  1.
         25    2    1    2    0    0 -0.19863488891E+02 -0.38444444354E+01 -0.57516315976E+03  0.58893261287E+03  0.12497849499E+03 0.  0.
         23    2    1    2    0    0  0.19863488891E+02  0.38444444354E+01 -0.36376930009E+03  0.37543049261E+03  0.90612433737E+02 0.  0.
          5    1    3    3  502    0 -0.61904336189E+02  0.13011916835E+02 -0.47097871803E+03  0.47523099610E+03  0.47000000000E+01 0. -1.
         -5    1    3    3    0  502  0.42040847297E+02 -0.16856361270E+02 -0.10418444173E+03  0.11370161677E+03  0.47000000000E+01 0. -1.
          5    1    4    4  503    0 -0.14972788398E+02  0.38976001358E+02 -0.13793378351E+03  0.14419130247E+03  0.47000000000E+01 0. -1.
         -5    1    4    4    0  503  0.34836277289E+02 -0.35131556923E+02 -0.22583551658E+03  0.23123919014E+03  0.47000000000E+01 0.  1.
<mgrwt>
<rscale>  0 0.11715953E+03</rscale>
<asrwt>0</asrwt>
<pdfrwt beam="1">  1        3 0.19562028E-02 0.12660554E+03</pdfrwt>
<pdfrwt beam="2">  1       -3 0.14640741E+00 0.12660554E+03</pdfrwt>
<totfact> 0.82284022E+02</totfact>
</mgrwt>
</event>
<event>
 8    1  0.3629925E-004  0.1348502E+03  0.7546771E-02  0.1232251E+00
         -1   -1    0    0    0  501 -0.00000000000E+00  0.00000000000E+00  0.27679784335E+03  0.27679784335E+03  0.00000000000E+00 0.  1.
          1   -1    0    0  501    0  0.00000000000E+00 -0.00000000000E+00 -0.52854785853E+02  0.52854785853E+02  0.00000000000E+00 0. -1.
         25    2    1    2    0    0  0.25183865530E+01  0.50541121105E+02  0.14408308146E+03  0.19734363210E+03  0.12499531021E+03 0.  0.
         23    2    1    2    0    0 -0.25183865530E+01 -0.50541121105E+02  0.79859976036E+02  0.13230899710E+03  0.92559752309E+02 0.  0.
          5    1    3    3  502    0  0.37205602256E+02 -0.87480134716E+01  0.11731251969E+03  0.12347105675E+03  0.47000000000E+01 0.  1.
         -5    1    3    3    0  502 -0.34687215703E+02  0.59289134577E+02  0.26770561773E+02  0.73872575356E+02  0.47000000000E+01 0.  1.
          5    1    4    4  503    0 -0.51100301424E+01 -0.72875335306E+02  0.33366505062E+02  0.80450858069E+02  0.47000000000E+01 0. -1.
         -5    1    4    4    0  503  0.25916435894E+01  0.22334214201E+02  0.46493470974E+02  0.51858139030E+02  0.47000000000E+01 0.  1.
<mgrwt>
<rscale>  0 0.12682098E+03</rscale>
<asrwt>0</asrwt>
<pdfrwt beam="1">  1        1 0.81315057E-02 0.13485019E+03</pdfrwt>
<pdfrwt beam="2">  1       -1 0.42584283E-01 0.13485019E+03</pdfrwt>
<totfact> 0.44823810E+03</totfact>
</mgrwt>
</event>
<event>
 8    1  0.3629925E-004  0.1593620E+03  0.7546771E-02  0.1195656E+00
         -1   -1    0    0    0  501 -0.00000000000E+00  0.00000000000E+00  0.16276560342E+03  0.16276560342E+03  0.00000000000E+00 0.  1.
          1   -1    0    0  501    0  0.00000000000E+00 -0.00000000000E+00 -0.14243827513E+03  0.14243827513E+03  0.00000000000E+00 0. -1.
         25    2    1    2    0    0  0.37234978140E+02 -0.91572215280E+02 -0.19814254271E+02  0.16058903909E+03  0.12499728235E+03 0.  0.
         23    2    1    2    0    0 -0.37234978140E+02  0.91572215280E+02  0.40141582561E+02  0.14461483946E+03  0.97622696808E+02 0.  0.
          5    1    3    3  502    0 -0.43970200088E+02 -0.53827967430E+02 -0.71849745290E+01  0.70032438430E+02  0.47000000000E+01 0.  1.
         -5    1    3    3    0  502  0.81205178228E+02 -0.37744247850E+02 -0.12629279742E+02  0.90556600663E+02  0.47000000000E+01 0.  1.
          5    1    4    4  503    0 -0.61213504305E+02  0.96126281405E+02  0.33835610004E+02  0.11897181847E+03  0.47000000000E+01 0. -1.
         -5    1    4    4    0  503  0.23978526166E+02 -0.45540661243E+01  0.63059725569E+01  0.25643020985E+02  0.47000000000E+01 0.  1.
<mgrwt>
<rscale>  0 0.15398878E+03</rscale>
<asrwt>0</asrwt>
<pdfrwt beam="1">  1        1 0.21913581E-01 0.15936196E+03</pdfrwt>
<pdfrwt beam="2">  1       -1 0.25040862E-01 0.15936196E+03</pdfrwt>
<totfact> 0.30648504E+03</totfact>
</mgrwt>
</event>
<event>
 8    1  0.3629925E-004  0.1295262E+03  0.7546771E-02  0.1240414E+00
         -1   -1    0    0    0  501 -0.00000000000E+00  0.00000000000E+00  0.36797325825E+03  0.36797325825E+03  0.00000000000E+00 0.  1.
          1   -1    0    0  501    0  0.00000000000E+00 -0.00000000000E+00 -0.37060485259E+02  0.37060485259E+02  0.00000000000E+00 0. -1.
         25    2    1    2    0    0  0.22587391360E+02  0.25331215375E+02  0.15199384750E+03  0.19969771673E+03  0.12500075067E+03 0.  0.
         23    2    1    2    0    0 -0.22587391360E+02 -0.25331215375E+02  0.17891892549E+03  0.20533602678E+03  0.94863276739E+02 0.  0.
          5    1    4    4  502    0 -0.47789799453E+02 -0.29559408328E+02  0.55170338170E+02  0.78889034512E+02  0.47000000000E+01 0. -1.
         -5    1    3    3    0  503  0.43950919604E+02 -0.25617365397E+02  0.17134495693E+02  0.53885189863E+02  0.47000000000E+01 0.  1.
          5    1    3    3  503    0 -0.21363528244E+02  0.50948580772E+02  0.13485935181E+03  0.14581252687E+03  0.47000000000E+01 0.  1.
         -5    1    4    4    0  502  0.25202408093E+02  0.42281929537E+01  0.12374858732E+03  0.12644699226E+03  0.47000000000E+01 0.  1.
<mgrwt>
<rscale>  0 0.12164140E+03</rscale>
<asrwt>0</asrwt>
<pdfrwt beam="1">  1        1 0.57016134E-02 0.12952625E+03</pdfrwt>
<pdfrwt beam="2">  1       -1 0.56611268E-01 0.12952625E+03</pdfrwt>
<totfact> 0.43006262E+03</totfact>
</mgrwt>
</event>
<event>
 8    1  0.3629925E-004  0.1393172E+03  0.7546771E-02  0.1226720E+00
         -3   -1    0    0    0  501 -0.00000000000E+00  0.00000000000E+00  0.20669843809E+03  0.20669843809E+03  0.00000000000E+00 0.  1.
          3   -1    0    0  501    0  0.00000000000E+00 -0.00000000000E+00 -0.73851126159E+02  0.73851126159E+02  0.00000000000E+00 0. -1.
         25    2    1    2    0    0 -0.16031287847E+02  0.59386370452E+02  0.84195818143E+02  0.16278277295E+03  0.12500220875E+03 0.  0.
         23    2    1    2    0    0  0.16031287847E+02 -0.59386370452E+02  0.48651493791E+02  0.11776679130E+03  0.87853890636E+02 0.  0.
          5    1    4    4  502    0  0.38197697723E+01 -0.40788507979E+02 -0.19723283963E+02  0.45709856208E+02  0.47000000000E+01 0. -1.
         -5    1    4    4    0  502  0.12211518074E+02 -0.18597862473E+02  0.68374777753E+02  0.72056935093E+02  0.47000000000E+01 0.  1.
          5    1    3    3  503    0 -0.22697317456E+02 -0.28234419297E+02  0.62106462407E+02  0.72053128491E+02  0.47000000000E+01 0. -1.
         -5    1    3    3    0  503  0.66660296089E+01  0.87620789749E+02  0.22089355736E+02  0.90729644460E+02  0.47000000000E+01 0. -1.
<mgrwt>
<rscale>  0 0.13049701E+03</rscale>
<asrwt>0</asrwt>
<pdfrwt beam="1">  1        3 0.11361712E-01 0.13931725E+03</pdfrwt>
<pdfrwt beam="2">  1       -3 0.31799759E-01 0.13931725E+03</pdfrwt>
<totfact> 0.13249974E+03</totfact>
</mgrwt>
</event>
<event>
 8    1  0.3629925E-004  0.1780630E+03  0.7546771E-02  0.1175368E+00
          4   -1    0    0  501    0  0.00000000000E+00  0.00000000000E+00  0.42270346298E+03  0.42270346298E+03  0.00000000000E+00 0. -1.
         -4   -1    0    0    0  501 -0.00000000000E+00 -0.00000000000E+00 -0.73134760501E+02  0.73134760501E+02  0.00000000000E+00 0.  1.
         25    2    1    2    0    0  0.66405620092E+02 -0.10804113603E+03  0.10873306267E+03  0.20863680503E+03  0.12499537608E+03 0.  0.
         23    2    1    2    0    0 -0.66405620092E+02  0.10804113603E+03  0.24083563981E+03  0.28720141845E+03  0.91652909957E+02 0.  0.
          5    1    3    3  502    0  0.67488862777E+01 -0.10333735283E+03  0.26807323523E+02  0.10707417312E+03  0.47000000000E+01 0.  1.
         -5    1    4    4    0  503 -0.46596863177E+02  0.10426492300E+03  0.12439402928E+03  0.16893314164E+03  0.47000000000E+01 0.  1.
          5    1    4    4  503    0 -0.19808756916E+02  0.37762130283E+01  0.11644161053E+03  0.11826827681E+03  0.47000000000E+01 0. -1.
         -5    1    3    3    0  502  0.59656733815E+02 -0.47037832012E+01  0.81925739148E+02  0.10156263191E+03  0.47000000000E+01 0.  1.
<mgrwt>
<rscale>  0 0.17240031E+03</rscale>
<asrwt>0</asrwt>
<pdfrwt beam="1">  1        4 0.65031300E-01 0.17806302E+03</pdfrwt>
<pdfrwt beam="2">  1       -4 0.11251502E-01 0.17806302E+03</pdfrwt>
<totfact> 0.24229347E+02</totfact>
</mgrwt>
</event>
<event>
 8    1  0.3629925E-004  0.2650467E+03  0.7546771E-02  0.1106345E+00
         -1   -1    0    0    0  501 -0.00000000000E+00  0.00000000000E+00  0.11716302435E+03  0.11716302435E+03  0.00000000000E+00 0.  1.
          1   -1    0    0  501    0  0.00000000000E+00 -0.00000000000E+00 -0.60306656125E+03  0.60306656125E+03  0.00000000000E+00 0. -1.
         25    2    1    2    0    0 -0.22760790144E+03  0.53103123640E+02 -0.33726414254E+03  0.42894857242E+03  0.12499790961E+03 0.  0.
         23    2    1    2    0    0  0.22760790144E+03 -0.53103123640E+02 -0.14863939436E+03  0.29128101317E+03  0.90142445828E+02 0.  0.
          5    1    3    3  502    0 -0.62165290148E+02  0.75435970380E+02 -0.13217509252E+03  0.16446110181E+03  0.47000000000E+01 0. -1.
         -5    1    4    4    0  503  0.92612984288E+02 -0.65830084339E+02 -0.81439771193E+02  0.13987598505E+03  0.47000000000E+01 0.  1.
          5    1    4    4  503    0  0.13499491715E+03  0.12726960699E+02 -0.67199623170E+02  0.15140502812E+03  0.47000000000E+01 0. -1.
         -5    1    3    3    0  502 -0.16544261129E+03 -0.22332846740E+02 -0.20508905002E+03  0.26448747062E+03  0.47000000000E+01 0. -1.
<mgrwt>
<rscale>  0 0.26133309E+03</rscale>
<asrwt>0</asrwt>
<pdfrwt beam="1">  1        1 0.92779467E-01 0.26504674E+03</pdfrwt>
<pdfrwt beam="2">  1       -1 0.18025081E-01 0.26504674E+03</pdfrwt>
<totfact> 0.83685325E+02</totfact>
</mgrwt>
</event>
<event>
 8    1  0.3629925E-004  0.1994720E+03  0.7546771E-02  0.1155053E+00
          1   -1    0    0  501    0  0.00000000000E+00  0.00000000000E+00  0.11661534622E+04  0.11661534622E+04  0.00000000000E+00 0. -1.
         -1   -1    0    0    0  501 -0.00000000000E+00 -0.00000000000E+00 -0.30697668956E+02  0.30697668956E+02  0.00000000000E+00 0.  1.
         25    2    1    2    0    0  0.12081176314E+03 -0.97823512680E+02  0.64560440006E+03  0.67571748358E+03  0.12499661793E+03 0.  0.
         23    2    1    2    0    0 -0.12081176314E+03  0.97823512680E+02  0.48985139321E+03  0.52113364760E+03  0.86376903652E+02 0.  0.
          5    1    4    4  502    0 -0.59688105534E+02 -0.18207366828E+01  0.19210635506E+03  0.20122854340E+03  0.47000000000E+01 0. -1.
         -5    1    3    3    0  503  0.10228885785E+03 -0.93825046729E+01  0.42534330539E+03  0.43759577155E+03  0.47000000000E+01 0.  1.
          5    1    3    3  503    0  0.18522905292E+02 -0.88441008007E+02  0.22026109466E+03  0.23812171203E+03  0.47000000000E+01 0.  1.
         -5    1    4    4    0  502 -0.61123657608E+02  0.99644249363E+02  0.29774503816E+03  0.31990510421E+03  0.47000000000E+01 0.  1.
<mgrwt>
<rscale>  0 0.19382812E+03</rscale>
<asrwt>0</asrwt>
<pdfrwt beam="1">  1        1 0.17940819E+00 0.19947199E+03</pdfrwt>
<pdfrwt beam="2">  1       -1 0.47227192E-02 0.19947199E+03</pdfrwt>
<totfact> 0.23131900E+03</totfact>
</mgrwt>
</event>
<event>
 8    1  0.3629925E-004  0.1683545E+03  0.7546771E-02  0.1186062E+00
          2   -1    0    0  501    0  0.00000000000E+00  0.00000000000E+00  0.95768798886E+03  0.95768798886E+03  0.00000000000E+00 0. -1.
         -2   -1    0    0    0  501 -0.00000000000E+00 -0.00000000000E+00 -0.26065467263E+02  0.26065467263E+02  0.00000000000E+00 0.  1.
         25    2    1    2    0    0 -0.90367705316E+02  0.67469063695E+02  0.55454593301E+03  0.57953810812E+03  0.12499932089E+03 0.  0.
         23    2    1    2    0    0  0.90367705316E+02 -0.67469063695E+02  0.37707658858E+03  0.40421534800E+03  0.92113501634E+02 0.  0.
          5    1    3    3  502    0  0.20068607173E+01 -0.24737979245E+02  0.31209803045E+02  0.40151424796E+02  0.47000000000E+01 0.  1.
         -5    1    3    3    0  502 -0.92374566033E+02  0.92207042940E+02  0.52333612997E+03  0.53938668333E+03  0.47000000000E+01 0.  1.
          5    1    4    4  503    0  0.60157797139E+02 -0.32348403986E+02  0.33345372054E+03  0.34040983173E+03  0.47000000000E+01 0. -1.
         -5    1    4    4    0  503  0.30209908177E+02 -0.35120659709E+02  0.43622868046E+02  0.63805516274E+02  0.47000000000E+01 0.  1.
<mgrwt>
<rscale>  0 0.16235621E+03</rscale>
<asrwt>0</asrwt>
<pdfrwt beam="1">  1        2 0.14733659E+00 0.16835447E+03</pdfrwt>
<pdfrwt beam="2">  1       -2 0.40100726E-02 0.16835447E+03</pdfrwt>
<totfact> 0.74739275E+03</totfact>
</mgrwt>
</event>
<event>
 8    1  0.3629925E-004  0.1574939E+03  0.7546771E-02  0.1197479E+00
         -2   -1    0    0    0  501 -0.00000000000E+00  0.00000000000E+00  0.44681121913E+02  0.44681121913E+02  0.00000000000E+00 0.  1.
          2   -1    0    0  501    0  0.00000000000E+00 -0.00000000000E+00 -0.58371638035E+03  0.58371638035E+03  0.00000000000E+00 0. -1.
         25    2    1    2    0    0 -0.91958842627E+02  0.26880113278E+02 -0.41012226069E+03  0.43932288643E+03  0.12500144241E+03 0.  0.
         23    2    1    2    0    0  0.91958842627E+02 -0.26880113278E+02 -0.12891299775E+03  0.18907461583E+03  0.99758108122E+02 0.  0.
          5    1    3    3  502    0 -0.95330955865E+02  0.66695708174E+02 -0.28417994935E+03  0.30711014677E+03  0.47000000000E+01 0.  1.
         -5    1    4    4    0  503  0.21678435447E+02  0.58993220419E+01  0.13658187011E+02  0.26709411008E+02  0.47000000000E+01 0.  1.
          5    1    4    4  503    0  0.70280407180E+02 -0.32779435320E+02 -0.14257118476E+03  0.16236520483E+03  0.47000000000E+01 0. -1.
         -5    1    3    3    0  502  0.33721132389E+01 -0.39815594896E+02 -0.12594231134E+03  0.13221273967E+03  0.47000000000E+01 0.  1.
<mgrwt>
<rscale>  0 0.15246285E+03</rscale>
<asrwt>0</asrwt>
<pdfrwt beam="1">  1        2 0.89802524E-01 0.15749390E+03</pdfrwt>
<pdfrwt beam="2">  1       -2 0.68740184E-02 0.15749390E+03</pdfrwt>
<totfact> 0.60639562E+03</totfact>
</mgrwt>
</event>
<event>
 8    1  0.3629925E-004  0.1842873E+03  0.7546771E-02  0.1169252E+00
          1   -1    0    0  501    0  0.00000000000E+00  0.00000000000E+00  0.49663099642E+03  0.49663099642E+03  0.00000000000E+00 0. -1.
         -1   -1    0    0    0  501 -0.00000000000E+00 -0.00000000000E+00 -0.60720492053E+02  0.60720492053E+02  0.00000000000E+00 0.  1.
         25    2    1    2    0    0 -0.26207691155E+01  0.13541460579E+03  0.25032915351E+03  0.31084801281E+03  0.12497126900E+03 0.  0.
         23    2    1    2    0    0  0.26207691155E+01 -0.13541460579E+03  0.18558135085E+03  0.24650347567E+03  0.89328281296E+02 0.  0.
          5    1    4    4  502    0 -0.39257653348E+02 -0.87435125469E+02  0.90053788596E+02  0.13159726195E+03  0.47000000000E+01 0. -1.
         -5    1    3    3    0  503 -0.32471692274E+02  0.12802260675E+02  0.58790893007E+01  0.35706615193E+02  0.47000000000E+01 0. -1.
          5    1    3    3  503    0  0.29850923158E+02  0.12261234511E+03  0.24445006421E+03  0.27514139762E+03  0.47000000000E+01 0. -1.
         -5    1    4    4    0  502  0.41878422464E+02 -0.47979480320E+02  0.95527562258E+02  0.11490621372E+03  0.47000000000E+01 0.  1.
<mgrwt>
<rscale>  0 0.17851081E+03</rscale>
<asrwt>0</asrwt>
<pdfrwt beam="1">  1        1 0.76404766E-01 0.18428728E+03</pdfrwt>
<pdfrwt beam="2">  1       -1 0.93416145E-02 0.18428728E+03</pdfrwt>
<totfact> 0.30407025E+03</totfact>
</mgrwt>
</event>
<event>
 8    1  0.3629925E-004  0.1610332E+03  0.7546771E-02  0.1194093E+00
          2   -1    0    0  501    0  0.00000000000E+00  0.00000000000E+00  0.74893794959E+03  0.74893794959E+03  0.00000000000E+00 0. -1.
         -2   -1    0    0    0  501 -0.00000000000E+00 -0.00000000000E+00 -0.30165389445E+02  0.30165389445E+02  0.00000000000E+00 0.  1.
         25    2    1    2    0    0  0.85141179392E+02 -0.55314178138E+02  0.40080604618E+03  0.43194579242E+03  0.12499200854E+03 0.  0.
         23    2    1    2    0    0 -0.85141179392E+02  0.55314178138E+02  0.31796651396E+03  0.34715754662E+03  0.95430495340E+02 0.  0.
          5    1    3    3  502    0  0.85909275046E+02  0.13890948300E+02  0.17145493791E+03  0.19233368846E+03  0.47000000000E+01 0. -1.
         -5    1    4    4    0  503 -0.42017804184E+01  0.55535954619E+02  0.99376356938E+02  0.11401599683E+03  0.47000000000E+01 0.  1.
          5    1    4    4  503    0 -0.80939398974E+02 -0.22177648073E+00  0.21859015702E+03  0.23314154979E+03  0.47000000000E+01 0. -1.
         -5    1    3    3    0  502 -0.76809565443E+00 -0.69205126438E+02  0.22935110828E+03  0.23961210396E+03  0.47000000000E+01 0. -1.
<mgrwt>
<rscale>  0 0.15531218E+03</rscale>
<asrwt>0</asrwt>
<pdfrwt beam="1">  1        2 0.11522121E+00 0.16103317E+03</pdfrwt>
<pdfrwt beam="2">  1       -2 0.46408297E-02 0.16103317E+03</pdfrwt>
<totfact> 0.82191693E+03</totfact>
</mgrwt>
</event>
<event>
 8    1  0.3629925E-004  0.1359348E+03  0.7546771E-02  0.1231949E+00
         -4   -1    0    0    0  501 -0.00000000000E+00  0.00000000000E+00  0.93827090329E+02  0.93827090329E+02  0.00000000000E+00 0.  1.
          4   -1    0    0  501    0  0.00000000000E+00 -0.00000000000E+00 -0.20655173029E+03  0.20655173029E+03  0.00000000000E+00 0. -1.
         25    2    1    2    0    0  0.26219619998E+02  0.46556487617E+02  0.14030074191E+02  0.13665695277E+03  0.12499321880E+03 0.  0.
         23    2    1    2    0    0 -0.26219619998E+02 -0.46556487617E+02 -0.12675471416E+03  0.16372186785E+03  0.88786921557E+02 0.  0.
          5    1    4    4  502    0 -0.53766165925E+02 -0.40042826377E+02 -0.11397122486E+03  0.13230932937E+03  0.47000000000E+01 0. -1.
         -5    1    4    4    0  502  0.27546545927E+02 -0.65136612395E+01 -0.12783489302E+02  0.31412538483E+02  0.47000000000E+01 0.  1.
          5    1    3    3  503    0 -0.14582909068E+02 -0.38300666442E+02  0.91627553103E+01  0.42256932824E+02  0.47000000000E+01 0.  1.
         -5    1    3    3    0  503  0.40802529067E+02  0.84857154059E+02  0.48673188811E+01  0.94400019949E+02  0.47000000000E+01 0.  1.
<mgrwt>
<rscale>  0 0.12701762E+03</rscale>
<asrwt>0</asrwt>
<pdfrwt beam="1">  1        4 0.31777189E-01 0.13593484E+03</pdfrwt>
<pdfrwt beam="2">  1       -4 0.14434937E-01 0.13593484E+03</pdfrwt>
<totfact> 0.63624050E+02</totfact>
</mgrwt>
</event>
<event>
 8    1  0.3629925E-004  0.1557711E+03  0.7546771E-02  0.1201586E+00
          1   -1    0    0  501    0  0.00000000000E+00  0.00000000000E+00  0.19736081426E+03  0.19736081426E+03  0.00000000000E+00 0. -1.
         -1   -1    0    0    0  501 -0.00000000000E+00 -0.00000000000E+00 -0.21174168179E+03  0.21174168179E+03  0.00000000000E+00 0.  1.
         25    2    1    2    0    0  0.92876190326E+02  0.27998560136E+01  0.13814910558E+03  0.20820613725E+03  0.12502317502E+03 0.  0.
         23    2    1    2    0    0 -0.92876190326E+02 -0.27998560136E+01 -0.15252997312E+03  0.20089635880E+03  0.91978956063E+02 0.  0.
          5    1    4    4  502    0 -0.63120137753E+02  0.62652042341E+01 -0.23054163401E+02  0.67653447984E+02  0.47000000000E+01 0. -1.
         -5    1    4    4    0  502 -0.29756052573E+02 -0.90650602477E+01 -0.12947580972E+03  0.13324291082E+03  0.47000000000E+01 0.  1.
          5    1    3    3  503    0  0.66265629726E+02 -0.32516934163E+02  0.12618839752E+02  0.75032058529E+02  0.47000000000E+01 0. -1.
         -5    1    3    3    0  503  0.26610560600E+02  0.35316790177E+02  0.12553026583E+03  0.13317407872E+03  0.47000000000E+01 0. -1.
<mgrwt>
<rscale>  0 0.14909751E+03</rscale>
<asrwt>0</asrwt>
<pdfrwt beam="1">  1        1 0.30363202E-01 0.15577105E+03</pdfrwt>
<pdfrwt beam="2">  1       -1 0.32575643E-01 0.15577105E+03</pdfrwt>
<totfact> 0.13071015E+03</totfact>
</mgrwt>
</event>
<event>
 8    1  0.3629925E-004  0.1290963E+03  0.7546771E-02  0.1243272E+00
          2   -1    0    0  501    0  0.00000000000E+00  0.00000000000E+00  0.16087547472E+04  0.16087547472E+04  0.00000000000E+00 0. -1.
         -2   -1    0    0    0  501 -0.00000000000E+00 -0.00000000000E+00 -0.80813688635E+01  0.80813688635E+01  0.00000000000E+00 0.  1.
         25    2    1    2    0    0  0.29634390276E+02 -0.12807250480E+02  0.10422138817E+04  0.10501788506E+04  0.12499448095E+03 0.  0.
         23    2    1    2    0    0 -0.29634390276E+02  0.12807250480E+02  0.55845949660E+03  0.56665726544E+03  0.90450120934E+02 0.  0.
          5    1    4    4  502    0 -0.47610344708E+02 -0.23255347061E+02  0.37586503482E+03  0.37961055108E+03  0.47000000000E+01 0. -1.
         -5    1    3    3    0  503 -0.47658835452E+02  0.52749055326E+01  0.47071825603E+03  0.47317750981E+03  0.47000000000E+01 0.  1.
          5    1    3    3  503    0  0.77293225728E+02 -0.18082156012E+02  0.57149562571E+03  0.57700134082E+03  0.47000000000E+01 0.  1.
         -5    1    4    4    0  502  0.17975954432E+02  0.36062597541E+02  0.18259446178E+03  0.18704671436E+03  0.47000000000E+01 0.  1.
<mgrwt>
<rscale>  0 0.11989385E+03</rscale>
<asrwt>0</asrwt>
<pdfrwt beam="1">  1        2 0.24750048E+00 0.12909625E+03</pdfrwt>
<pdfrwt beam="2">  1       -2 0.12432888E-02 0.12909625E+03</pdfrwt>
<totfact> 0.17886707E+04</totfact>
</mgrwt>
</event>
<event>
 8    1  0.3629925E-004  0.2141734E+03  0.7546771E-02  0.1142659E+00
          1   -1    0    0  501    0  0.00000000000E+00  0.00000000000E+00  0.92539955398E+03  0.92539955398E+03  0.00000000000E+00 0. -1.
         -1   -1    0    0    0  501 -0.00000000000E+00 -0.00000000000E+00 -0.51806523275E+02  0.51806523275E+02  0.00000000000E+00 0.  1.
         25    2    1    2    0    0  0.16418513422E+03  0.57334344395E+02  0.27648404180E+03  0.34973373268E+03  0.12500509214E+03 0.  0.
         23    2    1    2    0    0 -0.16418513422E+03 -0.57334344395E+02  0.59710898891E+03  0.62747234458E+03  0.83297138154E+02 0.  0.
          5    1    3    3  502    0  0.17636595435E+03  0.35633764727E+02  0.19951962410E+03  0.26870966756E+03  0.47000000000E+01 0. -1.
         -5    1    3    3    0  502 -0.12180820123E+02  0.21700579668E+02  0.76964417698E+02  0.81024065119E+02  0.47000000000E+01 0. -1.
          5    1    4    4  503    0 -0.13955300912E+03 -0.52108328115E+02  0.57379861721E+03  0.59283831129E+03  0.47000000000E+01 0. -1.
         -5    1    4    4    0  503 -0.24632125104E+02 -0.52260162791E+01  0.23310371695E+02  0.34634033289E+02  0.47000000000E+01 0.  1.
<mgrwt>
<rscale>  0 0.20862501E+03</rscale>
<asrwt>0</asrwt>
<pdfrwt beam="1">  1        1 0.14236915E+00 0.21417343E+03</pdfrwt>
<pdfrwt beam="2">  1       -1 0.79702350E-02 0.21417343E+03</pdfrwt>
<totfact> 0.15780289E+03</totfact>
</mgrwt>
</event>
<event>
 8    1  0.3629925E-004  0.1884085E+03  0.7546771E-02  0.1164954E+00
         -1   -1    0    0    0  501 -0.00000000000E+00  0.00000000000E+00  0.99232157048E+02  0.99232157048E+02  0.00000000000E+00 0.  1.
          1   -1    0    0  501    0  0.00000000000E+00 -0.00000000000E+00 -0.36771102908E+03  0.36771102908E+03  0.00000000000E+00 0. -1.
         25    2    1    2    0    0 -0.48699775374E+02  0.13228358002E+03 -0.22563703113E+03  0.29395551048E+03  0.12500863434E+03 0.  0.
         23    2    1    2    0    0  0.48699775374E+02 -0.13228358002E+03 -0.42841840912E+02  0.17298767566E+03  0.90657040167E+02 0.  0.
          5    1    4    4  502    0  0.16964771988E+02 -0.98087372633E+02 -0.67154999520E+02  0.12016996346E+03  0.47000000000E+01 0. -1.
         -5    1    4    4    0  502  0.31735003386E+02 -0.34196207386E+02  0.24313158608E+02  0.52817712190E+02  0.47000000000E+01 0.  1.
          5    1    3    3  503    0 -0.19436791082E+01 -0.22567976258E+02 -0.50241798905E+02  0.55312022184E+02  0.47000000000E+01 0. -1.
         -5    1    3    3    0  503 -0.46756096266E+02  0.15485155628E+03 -0.17539523222E+03  0.23864348829E+03  0.47000000000E+01 0. -1.
<mgrwt>
<rscale>  0 0.18297555E+03</rscale>
<asrwt>0</asrwt>
<pdfrwt beam="1">  1        1 0.56570929E-01 0.18840853E+03</pdfrwt>
<pdfrwt beam="2">  1       -1 0.15266485E-01 0.18840853E+03</pdfrwt>
<totfact> 0.20863947E+03</totfact>
</mgrwt>
</event>
<event>
 8    1  0.3629925E-004  0.1270481E+03  0.7546771E-02  0.1245970E+00
         -2   -1    0    0    0  501 -0.00000000000E+00  0.00000000000E+00  0.17786668996E+03  0.17786668996E+03  0.00000000000E+00 0.  1.
          2   -1    0    0  501    0  0.00000000000E+00 -0.00000000000E+00 -0.75317854605E+02  0.75317854605E+02  0.00000000000E+00 0. -1.
         25    2    1    2    0    0 -0.16667499676E+02 -0.15490411303E+02  0.92655008013E+02  0.15724554263E+03  0.12499380696E+03 0.  0.
         23    2    1    2    0    0  0.16667499676E+02  0.15490411303E+02  0.98938273395E+01  0.95939001935E+02  0.92674947451E+02 0.  0.
          5    1    4    4  502    0  0.41477196421E+02  0.24254627438E+02 -0.23064825533E+02  0.53504401239E+02  0.47000000000E+01 0. -1.
         -5    1    4    4    0  502 -0.24809696745E+02 -0.87642161342E+01  0.32958652873E+02  0.42434600696E+02  0.47000000000E+01 0.  1.
          5    1    3    3  503    0  0.26180300726E+02  0.25309996639E+01 -0.21244992138E+02  0.34135813984E+02  0.47000000000E+01 0.  1.
         -5    1    3    3    0  503 -0.42847800401E+02 -0.18021410967E+02  0.11390000015E+03  0.12310972864E+03  0.47000000000E+01 0.  1.
<mgrwt>
<rscale>  0 0.11827539E+03</rscale>
<asrwt>0</asrwt>
<pdfrwt beam="1">  1        2 0.11587362E-01 0.12704806E+03</pdfrwt>
<pdfrwt beam="2">  1       -2 0.27364106E-01 0.12704806E+03</pdfrwt>
<totfact> 0.60828990E+03</totfact>
</mgrwt>
</event>
<event>
 8    1  0.3629925E-004  0.1387665E+03  0.7546771E-02  0.1224974E+00
          3   -1    0    0  501    0  0.00000000000E+00  0.00000000000E+00  0.37918017856E+02  0.37918017856E+02  0.00000000000E+00 0. -1.
         -3   -1    0    0    0  501 -0.00000000000E+00 -0.00000000000E+00 -0.41680180458E+03  0.41680180458E+03  0.00000000000E+00 0.  1.
         25    2    1    2    0    0 -0.35202099216E+02 -0.48913743351E+02 -0.21623454459E+03  0.25693098273E+03  0.12499763812E+03 0.  0.
         23    2    1    2    0    0  0.35202099216E+02  0.48913743351E+02 -0.16264924214E+03  0.19778883971E+03  0.95046867742E+02 0.  0.
          5    1    4    4  502    0  0.63573989218E+02  0.12595025361E+02 -0.80242422966E+02  0.10325319953E+03  0.47000000000E+01 0. -1.
         -5    1    4    4    0  502 -0.28371890002E+02  0.36318717990E+02 -0.82406819170E+02  0.94535640181E+02  0.47000000000E+01 0.  1.
          5    1    3    3  503    0 -0.64308411469E+02 -0.44232087744E+02 -0.21300550167E+03  0.22690412758E+03  0.47000000000E+01 0. -1.
         -5    1    3    3    0  503  0.29106312253E+02 -0.46816556077E+01 -0.32290429242E+01  0.30026855154E+02  0.47000000000E+01 0. -1.
<mgrwt>
<rscale>  0 0.13168672E+03</rscale>
<asrwt>0</asrwt>
<pdfrwt beam="1">  1        3 0.58335412E-02 0.13876654E+03</pdfrwt>
<pdfrwt beam="2">  1       -3 0.64123354E-01 0.13876654E+03</pdfrwt>
<totfact> 0.98785387E+02</totfact>
</mgrwt>
</event>
<event>
 8    1  0.3629925E-004  0.1358036E+03  0.7546771E-02  0.1230732E+00
         -2   -1    0    0    0  501 -0.00000000000E+00  0.00000000000E+00  0.20475594709E+02  0.20475594709E+02  0.00000000000E+00 0.  1.
          2   -1    0    0  501    0  0.00000000000E+00 -0.00000000000E+00 -0.71742319603E+03  0.71742319603E+03  0.00000000000E+00 0. -1.
         25    2    1    2    0    0  0.26657215158E+02  0.45899947383E+02 -0.38438138700E+03  0.40766613216E+03  0.12500084939E+03 0.  0.
         23    2    1    2    0    0 -0.26657215158E+02 -0.45899947383E+02 -0.31256621433E+03  0.33023265859E+03  0.92404318989E+02 0.  0.
          5    1    4    4  502    0 -0.97583115264E+01 -0.28196425828E+02 -0.30142433403E+03  0.30293395686E+03  0.47000000000E+01 0. -1.
         -5    1    3    3    0  503  0.60733105854E+02  0.93099192791E+01 -0.32069133794E+03  0.32655812495E+03  0.47000000000E+01 0.  1.
          5    1    3    3  503    0 -0.34075890697E+02  0.36590028104E+02 -0.63690049058E+02  0.81108007203E+02  0.47000000000E+01 0.  1.
         -5    1    4    4    0  502 -0.16898903631E+02 -0.17703521555E+02 -0.11141880298E+02  0.27298701727E+02  0.47000000000E+01 0.  1.
<mgrwt>
<rscale>  0 0.12781639E+03</rscale>
<asrwt>0</asrwt>
<pdfrwt beam="1">  1        2 0.11037280E+00 0.13580363E+03</pdfrwt>
<pdfrwt beam="2">  1       -2 0.31500915E-02 0.13580363E+03</pdfrwt>
<totfact> 0.15237236E+04</totfact>
</mgrwt>
</event>
<event>
 8    1  0.3629925E-004  0.1529747E+03  0.7546771E-02  0.1205456E+00
          1   -1    0    0  501    0  0.00000000000E+00  0.00000000000E+00  0.57984613064E+03  0.57984613064E+03  0.00000000000E+00 0. -1.
         -1   -1    0    0    0  501 -0.00000000000E+00 -0.00000000000E+00 -0.33938060611E+02  0.33938060611E+02  0.00000000000E+00 0.  1.
         25    2    1    2    0    0 -0.12909109134E+02  0.87238778958E+02  0.27808829216E+03  0.31738675225E+03  0.12499601039E+03 0.  0.
         23    2    1    2    0    0  0.12909109134E+02 -0.87238778958E+02  0.26781977786E+03  0.29639743900E+03  0.91360597513E+02 0.  0.
          5    1    3    3  502    0 -0.91201965724E+01 -0.31771402900E+02  0.71077565215E+02  0.78528404444E+02  0.47000000000E+01 0.  1.
         -5    1    4    4    0  503  0.46392520057E+02 -0.74224080534E+02  0.15708930359E+03  0.17989057605E+03  0.47000000000E+01 0.  1.
          5    1    4    4  503    0 -0.33483410923E+02 -0.13014698424E+02  0.11073047428E+03  0.11650686295E+03  0.47000000000E+01 0. -1.
         -5    1    3    3    0  502 -0.37889125617E+01  0.11901018186E+03  0.20701072695E+03  0.23885834780E+03  0.47000000000E+01 0.  1.
<mgrwt>
<rscale>  0 0.14601544E+03</rscale>
<asrwt>0</asrwt>
<pdfrwt beam="1">  1        1 0.89207090E-01 0.15297468E+03</pdfrwt>
<pdfrwt beam="2">  1       -1 0.52212405E-02 0.15297468E+03</pdfrwt>
<totfact> 0.58980765E+03</totfact>
</mgrwt>
</event>
<event>
 8    1  0.3629925E-004  0.1412267E+03  0.7546771E-02  0.1221116E+00
         -1   -1    0    0    0  501 -0.00000000000E+00  0.00000000000E+00  0.94327108779E+02  0.94327108779E+02  0.00000000000E+00 0. -1.
          1   -1    0    0  501    0  0.00000000000E+00 -0.00000000000E+00 -0.17512682973E+03  0.17512682973E+03  0.00000000000E+00 0.  1.
         25    2    1    2    0    0 -0.65678775313E+02  0.25837613326E+01 -0.48204479360E+02  0.14922682922E+03  0.12499838951E+03 0.  0.
         23    2    1    2    0    0  0.65678775313E+02 -0.25837613326E+01 -0.32595241588E+02  0.12022710928E+03  0.95245633405E+02 0.  0.
          5    1    4    4  502    0  0.26576712341E+02 -0.38136034783E+01  0.33555075738E+02  0.43230756622E+02  0.47000000000E+01 0. -1.
         -5    1    4    4    0  502  0.39102062972E+02  0.12298421458E+01 -0.66150317327E+02  0.76996352659E+02  0.47000000000E+01 0.  1.
          5    1    3    3  503    0 -0.45552449281E+02  0.36601481727E+02 -0.79370176731E+02  0.98673243863E+02  0.47000000000E+01 0.  1.
         -5    1    3    3    0  503 -0.20126326032E+02 -0.34017720394E+02  0.31165697371E+02  0.50553585362E+02  0.47000000000E+01 0.  1.
<mgrwt>
<rscale>  0 0.13436733E+03</rscale>
<asrwt>0</asrwt>
<pdfrwt beam="1">  1        1 0.26942589E-01 0.14122668E+03</pdfrwt>
<pdfrwt beam="2">  1       -1 0.14511863E-01 0.14122668E+03</pdfrwt>
<totfact> 0.56288274E+03</totfact>
</mgrwt>
</event>
<event>
 8    1  0.3629925E-004  0.3284487E+03  0.7546771E-02  0.1073090E+00
         -1   -1    0    0    0  501 -0.00000000000E+00  0.00000000000E+00  0.61310205953E+03  0.61310205953E+03  0.00000000000E+00 0.  1.
          1   -1    0    0  501    0  0.00000000000E+00 -0.00000000000E+00 -0.17501063399E+03  0.17501063399E+03  0.00000000000E+00 0. -1.
         25    2    1    2    0    0 -0.98510112481E+02 -0.28731536479E+03  0.15624293875E+03  0.36371744721E+03  0.12499665753E+03 0.  0.
         23    2    1    2    0    0  0.98510112481E+02  0.28731536479E+03  0.28184848679E+03  0.42439524632E+03  0.91751809174E+02 0.  0.
          5    1    4    4  502    0  0.51210274901E+02  0.18211259981E+03  0.11478546271E+03  0.22132619301E+03  0.47000000000E+01 0. -1.
         -5    1    3    3    0  503 -0.77487808793E+02 -0.60100111626E+02  0.28801151685E+02  0.10231314807E+03  0.47000000000E+01 0.  1.
          5    1    3    3  503    0 -0.21022303687E+02 -0.22721525316E+03  0.12744178707E+03  0.26140429914E+03  0.47000000000E+01 0.  1.
         -5    1    4    4    0  502  0.47299837579E+02  0.10520276498E+03  0.16706302408E+03  0.20306905330E+03  0.47000000000E+01 0.  1.
<mgrwt>
<rscale>  0 0.32562266E+03</rscale>
<asrwt>0</asrwt>
<pdfrwt beam="1">  1        1 0.26924713E-01 0.32844866E+03</pdfrwt>
<pdfrwt beam="2">  1       -1 0.94323392E-01 0.32844866E+03</pdfrwt>
<totfact> 0.19976028E+02</totfact>
</mgrwt>
</event>
<event>
 8    1  0.3629925E-004  0.1487068E+03  0.7546771E-02  0.1211468E+00
         -2   -1    0    0    0  501 -0.00000000000E+00  0.00000000000E+00  0.70944443721E+02  0.70944443721E+02  0.00000000000E+00 0.  1.
          2   -1    0    0  501    0  0.00000000000E+00 -0.00000000000E+00 -0.25781336164E+03  0.25781336164E+03  0.00000000000E+00 0. -1.
         25    2    1    2    0    0  0.55542804164E+02 -0.58378392225E+02 -0.95928832710E+02  0.17696345637E+03  0.12498273550E+03 0.  0.
         23    2    1    2    0    0 -0.55542804164E+02  0.58378392225E+02 -0.90940085210E+02  0.15179434899E+03  0.90985633555E+02 0.  0.
          5    1    3    3  502    0 -0.27127600100E+02 -0.56146227424E+02 -0.60035823844E+02  0.86687344439E+02  0.47000000000E+01 0. -1.
         -5    1    3    3    0  502  0.82670404264E+02 -0.22321648003E+01 -0.35893008866E+02  0.90276111936E+02  0.47000000000E+01 0. -1.
          5    1    4    4  503    0 -0.80980834219E+01  0.44641612727E+02 -0.91429158199E+02  0.10217550348E+03  0.47000000000E+01 0. -1.
         -5    1    4    4    0  503 -0.47444720742E+02  0.13736779498E+02  0.48907298955E+00  0.49618845509E+02  0.47000000000E+01 0.  1.
<mgrwt>
<rscale>  0 0.14139238E+03</rscale>
<asrwt>0</asrwt>
<pdfrwt beam="1">  1        2 0.39663594E-01 0.14870684E+03</pdfrwt>
<pdfrwt beam="2">  1       -2 0.10914530E-01 0.14870684E+03</pdfrwt>
<totfact> 0.71145046E+03</totfact>
</mgrwt>
</event>
<event>
 8    1  0.3629925E-004  0.1509331E+03  0.7546771E-02  0.1208093E+00
          1   -1    0    0  501    0  0.00000000000E+00  0.00000000000E+00  0.11796589516E+03  0.11796589516E+03  0.00000000000E+00 0. -1.
         -1   -1    0    0    0  501 -0.00000000000E+00 -0.00000000000E+00 -0.18086632848E+03  0.18086632848E+03  0.00000000000E+00 0.  1.
         25    2    1    2    0    0 -0.83679305931E+02  0.12441053350E+02  0.14887438046E+02  0.15166552116E+03  0.12499515370E+03 0.  0.
         23    2    1    2    0    0  0.83679305931E+02 -0.12441053350E+02 -0.77787871364E+02  0.14716670249E+03  0.91924313103E+02 0.  0.
          5    1    3    3  502    0 -0.54611287008E+02  0.49099345361E+02  0.53371029266E+02  0.90904868674E+02  0.47000000000E+01 0.  1.
         -5    1    3    3    0  502 -0.29068018923E+02 -0.36658292011E+02 -0.38483591220E+02  0.60760652486E+02  0.47000000000E+01 0.  1.
          5    1    4    4  503    0 -0.49745345939E+01 -0.30992392775E+02 -0.80086553947E+01  0.32733819905E+02  0.47000000000E+01 0. -1.
         -5    1    4    4    0  503  0.88653840525E+02  0.18551339425E+02 -0.69779215969E+02  0.11443288258E+03  0.47000000000E+01 0.  1.
<mgrwt>
<rscale>  0 0.14396388E+03</rscale>
<asrwt>0</asrwt>
<pdfrwt beam="1">  1        1 0.18148599E-01 0.15093308E+03</pdfrwt>
<pdfrwt beam="2">  1       -1 0.27825589E-01 0.15093308E+03</pdfrwt>
<totfact> 0.32642374E+03</totfact>
</mgrwt>
</event>
<event>
 8    1  0.3629925E-004  0.1294293E+03  0.7546771E-02  0.1242506E+00
         -1   -1    0    0    0  501 -0.00000000000E+00  0.00000000000E+00  0.83116217662E+02  0.83116217662E+02  0.00000000000E+00 0.  1.
          1   -1    0    0  501    0  0.00000000000E+00 -0.00000000000E+00 -0.17030453065E+03  0.17030453065E+03  0.00000000000E+00 0. -1.
         25    2    1    2    0    0 -0.36247656361E+01  0.33417089511E+02 -0.10351971234E+02  0.12984262633E+03  0.12498841349E+03 0.  0.
         23    2    1    2    0    0  0.36247656361E+01 -0.33417089511E+02 -0.76836341753E+02  0.12357812198E+03  0.90762811887E+02 0.  0.
          5    1    4    4  502    0 -0.11690475917E+02 -0.19078308346E+02 -0.93576819824E+02  0.96329436233E+02  0.47000000000E+01 0. -1.
         -5    1    3    3    0  503  0.27256302680E+02  0.59198027727E+02 -0.42659635762E+02  0.78033627661E+02  0.47000000000E+01 0. -1.
          5    1    3    3  503    0 -0.30881068316E+02 -0.25780938217E+02  0.32307664528E+02  0.51808998667E+02  0.47000000000E+01 0. -1.
         -5    1    4    4    0  502  0.15315241553E+02 -0.14338781165E+02  0.16740478071E+02  0.27248685751E+02  0.47000000000E+01 0.  1.
<mgrwt>
<rscale>  0 0.12035905E+03</rscale>
<asrwt>0</asrwt>
<pdfrwt beam="1">  1        1 0.26200697E-01 0.12942930E+03</pdfrwt>
<pdfrwt beam="2">  1       -1 0.12787111E-01 0.12942930E+03</pdfrwt>
<totfact> 0.70562033E+03</totfact>
</mgrwt>
</event>
<event>
 8    1  0.3629925E-004  0.1942137E+03  0.7546771E-02  0.1159384E+00
          3   -1    0    0  501    0  0.00000000000E+00  0.00000000000E+00  0.15742587634E+03  0.15742587634E+03  0.00000000000E+00 0. -1.
         -3   -1    0    0    0  501 -0.00000000000E+00 -0.00000000000E+00 -0.27191959497E+03  0.27191959497E+03  0.00000000000E+00 0.  1.
         25    2    1    2    0    0 -0.23685972371E+02  0.14673277379E+03  0.37999291219E+02  0.19789620460E+03  0.12500971749E+03 0.  0.
         23    2    1    2    0    0  0.23685972371E+02 -0.14673277379E+03 -0.15249300985E+03  0.23144926671E+03  0.90681380758E+02 0.  0.
          5    1    3    3  502    0 -0.39722729834E+02  0.62534778979E+02  0.73995746898E+02  0.10481390369E+03  0.47000000000E+01 0. -1.
         -5    1    4    4    0  503 -0.10348466069E+02 -0.13593481447E+03 -0.10665302084E+03  0.17315403948E+03  0.47000000000E+01 0.  1.
          5    1    4    4  503    0  0.34034438439E+02 -0.10797959326E+02 -0.45839989013E+02  0.58295227233E+02  0.47000000000E+01 0. -1.
         -5    1    3    3    0  502  0.16036757463E+02  0.84197994814E+02 -0.35996455680E+02  0.93082300907E+02  0.47000000000E+01 0. -1.
<mgrwt>
<rscale>  0 0.18898027E+03</rscale>
<asrwt>0</asrwt>
<pdfrwt beam="1">  1        3 0.24219366E-01 0.19421370E+03</pdfrwt>
<pdfrwt beam="2">  1       -3 0.41833783E-01 0.19421370E+03</pdfrwt>
<totfact> 0.22051417E+02</totfact>
</mgrwt>
</event>
<event>
 8    1  0.3629925E-004  0.1298518E+03  0.7546771E-02  0.1241796E+00
          1   -1    0    0  501    0  0.00000000000E+00  0.00000000000E+00  0.82088991640E+03  0.82088991640E+03  0.00000000000E+00 0. -1.
         -1   -1    0    0    0  501 -0.00000000000E+00 -0.00000000000E+00 -0.16490355387E+02  0.16490355387E+02  0.00000000000E+00 0.  1.
         25    2    1    2    0    0 -0.34982368779E+02  0.35050278049E+01  0.36673239373E+03  0.38904260798E+03  0.12500180347E+03 0.  0.
         23    2    1    2    0    0  0.34982368779E+02 -0.35050278049E+01  0.43766716728E+03  0.44833766380E+03  0.90653516872E+02 0.  0.
          5    1    3    3  502    0  0.42270973167E+02  0.20302590672E+02  0.95687705232E+02  0.10666422687E+03  0.47000000000E+01 0. -1.
         -5    1    3    3    0  502 -0.77253341946E+02 -0.16797562867E+02  0.27104468850E+03  0.28237838112E+03  0.47000000000E+01 0. -1.
          5    1    4    4  503    0 -0.24972883911E+02  0.15056625728E+02  0.21237867338E+03  0.21442280153E+03  0.47000000000E+01 0. -1.
         -5    1    4    4    0  503  0.59955252691E+02 -0.18561653533E+02  0.22528849390E+03  0.23391486227E+03  0.47000000000E+01 0.  1.
<mgrwt>
<rscale>  0 0.12079214E+03</rscale>
<asrwt>0</asrwt>
<pdfrwt beam="1">  1        1 0.12629072E+00 0.12985185E+03</pdfrwt>
<pdfrwt beam="2">  1       -1 0.25369784E-02 0.12985185E+03</pdfrwt>
<totfact> 0.10244041E+04</totfact>
</mgrwt>
</event>
<event>
 8    1  0.3629925E-004  0.2141289E+03  0.7546771E-02  0.1141750E+00
         -4   -1    0    0    0  501 -0.00000000000E+00  0.00000000000E+00  0.31688134565E+02  0.31688134565E+02  0.00000000000E+00 0.  1.
          4   -1    0    0  501    0  0.00000000000E+00 -0.00000000000E+00 -0.14280536090E+04  0.14280536090E+04  0.00000000000E+00 0. -1.
         25    2    1    2    0    0 -0.16932339189E+03 -0.39400512405E+02 -0.91131260326E+03  0.93613131667E+03  0.12501347833E+03 0.  0.
         23    2    1    2    0    0  0.16932339189E+03  0.39400512405E+02 -0.48505287118E+03  0.52361042691E+03  0.93106282831E+02 0.  0.
          5    1    4    4  502    0  0.14684060850E+03  0.37207638666E+02 -0.47472776494E+03  0.49833233237E+03  0.47000000000E+01 0. -1.
         -5    1    4    4    0  502  0.22482783396E+02  0.21928737393E+01 -0.10325106240E+02  0.25278094535E+02  0.47000000000E+01 0.  1.
          5    1    3    3  503    0 -0.71013132345E+02 -0.43918077113E+02 -0.67414831833E+03  0.67931561705E+03  0.47000000000E+01 0.  1.
         -5    1    3    3    0  503 -0.98310259547E+02  0.45175647074E+01 -0.23716428494E+03  0.25681569962E+03  0.47000000000E+01 0.  1.
<mgrwt>
<rscale>  0 0.20976760E+03</rscale>
<asrwt>0</asrwt>
<pdfrwt beam="1">  1        4 0.21970049E+00 0.21412889E+03</pdfrwt>
<pdfrwt beam="2">  1       -4 0.48750990E-02 0.21412889E+03</pdfrwt>
<totfact> 0.48877321E+01</totfact>
</mgrwt>
</event>
<event>
 8    1  0.3629925E-004  0.1745869E+03  0.7546771E-02  0.1179219E+00
         -1   -1    0    0    0  501 -0.00000000000E+00  0.00000000000E+00  0.24211517818E+03  0.24211517818E+03  0.00000000000E+00 0.  1.
          1   -1    0    0  501    0  0.00000000000E+00 -0.00000000000E+00 -0.11378580449E+03  0.11378580449E+03  0.00000000000E+00 0. -1.
         25    2    1    2    0    0  0.22391933079E+02 -0.11981131737E+03  0.99729042135E+02  0.20106332465E+03  0.12499771293E+03 0.  0.
         23    2    1    2    0    0 -0.22391933079E+02  0.11981131737E+03  0.28600331549E+02  0.15483765802E+03  0.91107469177E+02 0.  0.
          5    1    4    4  502    0  0.12531990786E+01  0.86974365547E+02 -0.22031175637E+02  0.89853066004E+02  0.47000000000E+01 0. -1.
         -5    1    3    3    0  503  0.53720999584E+02 -0.10372396722E+02  0.57624496873E+02  0.79600282977E+02  0.47000000000E+01 0.  1.
          5    1    3    3  503    0 -0.31329066505E+02 -0.10943892065E+03  0.42104545262E+02  0.12146304167E+03  0.47000000000E+01 0.  1.
         -5    1    4    4    0  502 -0.23645132157E+02  0.32836951822E+02  0.50631507186E+02  0.64984592017E+02  0.47000000000E+01 0.  1.
<mgrwt>
<rscale>  0 0.16869155E+03</rscale>
<asrwt>0</asrwt>
<pdfrwt beam="1">  1        1 0.17505508E-01 0.17458688E+03</pdfrwt>
<pdfrwt beam="2">  1       -1 0.37248489E-01 0.17458688E+03</pdfrwt>
<totfact> 0.20932229E+03</totfact>
</mgrwt>
</event>
<event>
 8    1  0.3629925E-004  0.2718337E+03  0.7546771E-02  0.1102232E+00
          1   -1    0    0  501    0  0.00000000000E+00  0.00000000000E+00  0.49748041781E+03  0.49748041781E+03  0.00000000000E+00 0. -1.
         -1   -1    0    0    0  501 -0.00000000000E+00 -0.00000000000E+00 -0.15649315143E+03  0.15649315143E+03  0.00000000000E+00 0.  1.
         25    2    1    2    0    0 -0.22269176684E+03 -0.93146491307E+02  0.72101476589E+02  0.28123328077E+03  0.12500257368E+03 0.  0.
         23    2    1    2    0    0  0.22269176684E+03  0.93146491307E+02  0.26888578979E+03  0.37274028847E+03  0.91476023279E+02 0.  0.
          5    1    4    4  502    0  0.15458046001E+03  0.99756203293E+02  0.22754817645E+03  0.29265454262E+03  0.47000000000E+01 0. -1.
         -5    1    3    3    0  503 -0.18241976316E+03 -0.11810560253E+03  0.33485528110E+02  0.21993015695E+03  0.47000000000E+01 0.  1.
          5    1    3    3  503    0 -0.40272003674E+02  0.24959111228E+02  0.38615948480E+02  0.61303123821E+02  0.47000000000E+01 0.  1.
         -5    1    4    4    0  502  0.68111306831E+02 -0.66097119863E+01  0.41337613338E+02  0.80085745843E+02  0.47000000000E+01 0.  1.
<mgrwt>
<rscale>  0 0.26834335E+03</rscale>
<asrwt>0</asrwt>
<pdfrwt beam="1">  1        1 0.76535448E-01 0.27183365E+03</pdfrwt>
<pdfrwt beam="2">  1       -1 0.24075870E-01 0.27183365E+03</pdfrwt>
<totfact> 0.67684295E+02</totfact>
</mgrwt>
</event>
<event>
 8    1  0.3629925E-004  0.1711756E+03  0.7546771E-02  0.1183434E+00
          2   -1    0    0  501    0  0.00000000000E+00  0.00000000000E+00  0.15554596769E+04  0.15554596769E+04  0.00000000000E+00 0. -1.
         -2   -1    0    0    0  501 -0.00000000000E+00 -0.00000000000E+00 -0.16275213543E+02  0.16275213543E+02  0.00000000000E+00 0.  1.
         25    2    1    2    0    0  0.11652030685E+03  0.99322368221E+01  0.85231739249E+03  0.86933653884E+03  0.12500179593E+03 0.  0.
         23    2    1    2    0    0 -0.11652030685E+03 -0.99322368221E+01  0.68686707090E+03  0.70239835164E+03  0.88890044758E+02 0.  0.
          5    1    4    4  502    0 -0.76500749736E+02  0.36680689553E+02  0.37555132137E+03  0.38504379319E+03  0.47000000000E+01 0. -1.
         -5    1    3    3    0  503  0.58255602326E+01  0.50789601365E+02  0.31875708318E+03  0.32286481511E+03  0.47000000000E+01 0.  1.
          5    1    3    3  503    0  0.11069474661E+03 -0.40857364543E+02  0.53356030931E+03  0.54647172373E+03  0.47000000000E+01 0.  1.
         -5    1    4    4    0  502 -0.40019557111E+02 -0.46612926375E+02  0.31131574953E+03  0.31735455844E+03  0.47000000000E+01 0.  1.
<mgrwt>
<rscale>  0 0.16475190E+03</rscale>
<asrwt>0</asrwt>
<pdfrwt beam="1">  1        2 0.23930137E+00 0.17117558E+03</pdfrwt>
<pdfrwt beam="2">  1       -2 0.25038802E-02 0.17117558E+03</pdfrwt>
<totfact> 0.69836630E+03</totfact>
</mgrwt>
</event>
<event>
 8    1  0.3629925E-004  0.2387850E+03  0.7546771E-02  0.1123537E+00
          4   -1    0    0  501    0  0.00000000000E+00  0.00000000000E+00  0.99890887690E+03  0.99890887690E+03  0.00000000000E+00 0. -1.
         -4   -1    0    0    0  501 -0.00000000000E+00 -0.00000000000E+00 -0.53164122960E+02  0.53164122960E+02  0.00000000000E+00 0.  1.
         25    2    1    2    0    0 -0.17495530081E+03 -0.10385152997E+03  0.50334333878E+03  0.55711111360E+03  0.12499511448E+03 0.  0.
         23    2    1    2    0    0  0.17495530081E+03  0.10385152997E+03  0.44240141516E+03  0.49496188626E+03  0.88734205123E+02 0.  0.
          5    1    3    3  502    0 -0.84523289502E+02 -0.10341607960E+02  0.32693912849E+03  0.33787929659E+03  0.47000000000E+01 0. -1.
         -5    1    3    3    0  502 -0.90432011305E+02 -0.93509922010E+02  0.17640421029E+03  0.21923181701E+03  0.47000000000E+01 0. -1.
          5    1    4    4  503    0  0.45380597403E+02 -0.58795523777E+01  0.14898912248E+03  0.15592888242E+03  0.47000000000E+01 0. -1.
         -5    1    4    4    0  503  0.12957470340E+03  0.10973108235E+03  0.29341229268E+03  0.33903300384E+03  0.47000000000E+01 0.  1.
<mgrwt>
<rscale>  0 0.23446401E+03</rscale>
<asrwt>0</asrwt>
<pdfrwt beam="1">  1        4 0.15367828E+00 0.23878500E+03</pdfrwt>
<pdfrwt beam="2">  1       -4 0.81790966E-02 0.23878500E+03</pdfrwt>
<totfact> 0.57539065E+01</totfact>
</mgrwt>
</event>
<event>
 8    1  0.3629925E-004  0.1297937E+03  0.7546771E-02  0.1241469E+00
          3   -1    0    0  501    0  0.00000000000E+00  0.00000000000E+00  0.23322356569E+02  0.23322356569E+02  0.00000000000E+00 0. -1.
         -3   -1    0    0    0  501 -0.00000000000E+00 -0.00000000000E+00 -0.56121339835E+03  0.56121339835E+03  0.00000000000E+00 0.  1.
         25    2    1    2    0    0 -0.32105301464E+02 -0.13828713187E+02 -0.33327827257E+03  0.35766018407E+03  0.12499766644E+03 0.  0.
         23    2    1    2    0    0  0.32105301464E+02  0.13828713187E+02 -0.20461276922E+03  0.22687557085E+03  0.91565034981E+02 0.  0.
          5    1    3    3  502    0 -0.38230478586E+02  0.44214900410E+02 -0.89878438935E+02  0.10731612505E+03  0.47000000000E+01 0. -1.
         -5    1    3    3    0  502  0.61251771220E+01 -0.58043613596E+02 -0.24339983363E+03  0.25034405902E+03  0.47000000000E+01 0. -1.
          5    1    4    4  503    0  0.43226244714E+00  0.43740990433E+02 -0.52087978055E+02  0.68181438477E+02  0.47000000000E+01 0. -1.
         -5    1    4    4    0  503  0.31673039017E+02 -0.29912277246E+02 -0.15252479116E+03  0.15869413237E+03  0.47000000000E+01 0.  1.
<mgrwt>
<rscale>  0 0.12099259E+03</rscale>
<asrwt>0</asrwt>
<pdfrwt beam="1">  1        3 0.35880552E-02 0.12979368E+03</pdfrwt>
<pdfrwt beam="2">  1       -3 0.86340514E-01 0.12979368E+03</pdfrwt>
<totfact> 0.11112310E+03</totfact>
</mgrwt>
</event>
<event>
 8    1  0.3629925E-004  0.1755737E+03  0.7546771E-02  0.1178225E+00
          2   -1    0    0  501    0  0.00000000000E+00  0.00000000000E+00  0.93674748110E+03  0.93674748110E+03  0.00000000000E+00 0. -1.
         -2   -1    0    0    0  501 -0.00000000000E+00 -0.00000000000E+00 -0.30703042548E+02  0.30703042548E+02  0.00000000000E+00 0.  1.
         25    2    1    2    0    0 -0.12325885859E+03  0.28388848139E+01  0.36251626523E+03  0.40279546079E+03  0.12500134075E+03 0.  0.
         23    2    1    2    0    0  0.12325885859E+03 -0.28388848139E+01  0.54352817333E+03  0.56465506286E+03  0.90618206374E+02 0.  0.
          5    1    3    3  502    0 -0.10410702838E+03 -0.34466472197E+02  0.33474023907E+03  0.35227734630E+03  0.47000000000E+01 0.  1.
         -5    1    4    4    0  503  0.12666838907E+03  0.18388665311E+02  0.41699600078E+03  0.43622331261E+03  0.47000000000E+01 0.  1.
          5    1    4    4  503    0 -0.34095304737E+01 -0.21227550125E+02  0.12653217255E+03  0.12843175025E+03  0.47000000000E+01 0. -1.
         -5    1    3    3    0  502 -0.19151830213E+02  0.37305357011E+02  0.27776026155E+02  0.50518114486E+02  0.47000000000E+01 0.  1.
<mgrwt>
<rscale>  0 0.16963895E+03</rscale>
<asrwt>0</asrwt>
<pdfrwt beam="1">  1        2 0.14411498E+00 0.17557375E+03</pdfrwt>
<pdfrwt beam="2">  1       -2 0.47235457E-02 0.17557375E+03</pdfrwt>
<totfact> 0.60336569E+03</totfact>
</mgrwt>
</event>
<event>
 8    1  0.3629925E-004  0.1323914E+03  0.7546771E-02  0.1233879E+00
         -2   -1    0    0    0  501 -0.00000000000E+00  0.00000000000E+00  0.11860002093E+03  0.11860002093E+03  0.00000000000E+00 0.  1.
          2   -1    0    0  501    0  0.00000000000E+00 -0.00000000000E+00 -0.12181162317E+03  0.12181162317E+03  0.00000000000E+00 0. -1.
         25    2    1    2    0    0 -0.28074689136E+02 -0.33384363988E+02 -0.65288186390E+01  0.13255224175E+03  0.12499906956E+03 0.  0.
         23    2    1    2    0    0  0.28074689136E+02  0.33384363988E+02  0.33172163970E+01  0.10785940235E+03  0.98589770369E+02 0.  0.
          5    1    4    4  502    0  0.54194220152E+02  0.22908399587E+01 -0.23146571879E+02  0.59161771739E+02  0.47000000000E+01 0. -1.
         -5    1    3    3    0  503 -0.33233869103E+02  0.35609061009E+02 -0.32232583861E+02  0.58596286093E+02  0.47000000000E+01 0.  1.
          5    1    3    3  503    0  0.51591799664E+01 -0.68993424997E+02  0.25703765222E+02  0.73955955658E+02  0.47000000000E+01 0.  1.
         -5    1    4    4    0  502 -0.26119531016E+02  0.31093524029E+02  0.26463788276E+02  0.48697630609E+02  0.47000000000E+01 0.  1.
<mgrwt>
<rscale>  0 0.12576444E+03</rscale>
<asrwt>0</asrwt>
<pdfrwt beam="1">  1        2 0.18740250E-01 0.13239136E+03</pdfrwt>
<pdfrwt beam="2">  1       -2 0.18246157E-01 0.13239136E+03</pdfrwt>
<totfact> 0.69678270E+03</totfact>
</mgrwt>
</event>
<event>
 8    1  0.3629925E-004  0.1442247E+03  0.7546771E-02  0.1218077E+00
          1   -1    0    0  501    0  0.00000000000E+00  0.00000000000E+00  0.54528012402E+03  0.54528012402E+03  0.00000000000E+00 0. -1.
         -1   -1    0    0    0  501 -0.00000000000E+00 -0.00000000000E+00 -0.31576413273E+02  0.31576413273E+02  0.00000000000E+00 0.  1.
         25    2    1    2    0    0 -0.68401568006E+02  0.22283558371E+02  0.24579113222E+03  0.28498078173E+03  0.12500173518E+03 0.  0.
         23    2    1    2    0    0  0.68401568006E+02 -0.22283558371E+02  0.26791257853E+03  0.29187575557E+03  0.90768802316E+02 0.  0.
          5    1    3    3  502    0 -0.87230397343E+02 -0.26610256985E+02  0.16467074169E+03  0.18829708221E+03  0.47000000000E+01 0. -1.
         -5    1    4    4    0  503  0.30039343637E+02  0.32614662326E+02  0.14651486497E+03  0.15314951526E+03  0.47000000000E+01 0.  1.
          5    1    4    4  503    0  0.38362224370E+02 -0.54898220697E+02  0.12139771356E+03  0.13872624031E+03  0.47000000000E+01 0. -1.
         -5    1    3    3    0  502  0.18828829337E+02  0.48893815356E+02  0.81120390522E+02  0.96683699519E+02  0.47000000000E+01 0. -1.
<mgrwt>
<rscale>  0 0.13652927E+03</rscale>
<asrwt>0</asrwt>
<pdfrwt beam="1">  1        1 0.83889243E-01 0.14422470E+03</pdfrwt>
<pdfrwt beam="2">  1       -1 0.48579101E-02 0.14422470E+03</pdfrwt>
<totfact> 0.71056064E+03</totfact>
</mgrwt>
</event>
<event>
 8    1  0.3629925E-004  0.1348328E+03  0.7546771E-02  0.1233169E+00
         -1   -1    0    0    0  501 -0.00000000000E+00  0.00000000000E+00  0.15932704325E+02  0.15932704325E+02  0.00000000000E+00 0.  1.
          1   -1    0    0  501    0  0.00000000000E+00 -0.00000000000E+00 -0.95076688787E+03  0.95076688787E+03  0.00000000000E+00 0. -1.
         25    2    1    2    0    0  0.45299047797E+02  0.22411656258E+02 -0.40545136493E+03  0.42728291006E+03  0.12500235933E+03 0.  0.
         23    2    1    2    0    0 -0.45299047797E+02 -0.22411656258E+02 -0.52938281862E+03  0.53941668214E+03  0.90387511607E+02 0.  0.
          5    1    4    4  502    0 -0.39750108616E+02 -0.51549380523E+02 -0.44682693036E+03  0.45156816259E+03  0.47000000000E+01 0. -1.
         -5    1    3    3    0  503 -0.98078754337E+00 -0.41693902445E+02 -0.62360909044E+02  0.75168586671E+02  0.47000000000E+01 0.  1.
          5    1    3    3  503    0  0.46279835341E+02  0.64105558702E+02 -0.34309045588E+03  0.35211432339E+03  0.47000000000E+01 0.  1.
         -5    1    4    4    0  502 -0.55489391813E+01  0.29137724266E+02 -0.82555888258E+02  0.87848519552E+02  0.47000000000E+01 0.  1.
<mgrwt>
<rscale>  0 0.12622406E+03</rscale>
<asrwt>0</asrwt>
<pdfrwt beam="1">  1        1 0.14627187E+00 0.13483277E+03</pdfrwt>
<pdfrwt beam="2">  1       -1 0.24511846E-02 0.13483277E+03</pdfrwt>
<totfact> 0.85599037E+03</totfact>
</mgrwt>
</event>
<event>
 8    1  0.3629925E-004  0.1319807E+03  0.7546771E-02  0.1237416E+00
         -3   -1    0    0    0  501 -0.00000000000E+00  0.00000000000E+00  0.66765167252E+02  0.66765167252E+02  0.00000000000E+00 0.  1.
          3   -1    0    0  501    0  0.00000000000E+00 -0.00000000000E+00 -0.21788537391E+03  0.21788537391E+03  0.00000000000E+00 0. -1.
         25    2    1    2    0    0 -0.41143018808E+02 -0.10093920899E+02 -0.48778189225E+02  0.14070616360E+03  0.12499710995E+03 0.  0.
         23    2    1    2    0    0  0.41143018808E+02  0.10093920899E+02 -0.10234201743E+03  0.14394437756E+03  0.91931822909E+02 0.  0.
          5    1    3    3  502    0 -0.76661631232E+02 -0.14815285436E+02  0.21596895744E+01  0.78251214973E+02  0.47000000000E+01 0. -1.
         -5    1    3    3    0  502  0.35518612423E+02  0.47213645374E+01 -0.50937878800E+02  0.62454948629E+02  0.47000000000E+01 0. -1.
          5    1    4    4  503    0 -0.76944054106E+01  0.32195733904E+02 -0.65459521590E+01  0.34069174424E+02  0.47000000000E+01 0. -1.
         -5    1    4    4    0  503  0.48837424219E+02 -0.22101813005E+02 -0.95796065274E+02  0.10987520314E+03  0.47000000000E+01 0.  1.
<mgrwt>
<rscale>  0 0.12351016E+03</rscale>
<asrwt>0</asrwt>
<pdfrwt beam="1">  1        3 0.33520827E-01 0.13198073E+03</pdfrwt>
<pdfrwt beam="2">  1       -3 0.10271564E-01 0.13198073E+03</pdfrwt>
<totfact> 0.14076461E+03</totfact>
</mgrwt>
</event>
<event>
 8    1  0.3629925E-004  0.1718446E+03  0.7546771E-02  0.1183514E+00
         -2   -1    0    0    0  501 -0.00000000000E+00  0.00000000000E+00  0.16485244357E+03  0.16485244357E+03  0.00000000000E+00 0. -1.
          2   -1    0    0  501    0  0.00000000000E+00 -0.00000000000E+00 -0.19703284072E+03  0.19703284072E+03  0.00000000000E+00 0.  1.
         25    2    1    2    0    0 -0.10175718456E+03 -0.59591743204E+02 -0.10324767847E+03  0.20047608581E+03  0.12499950962E+03 0.  0.
         23    2    1    2    0    0  0.10175718456E+03  0.59591743204E+02  0.71067281315E+02  0.16140919848E+03  0.84241737946E+02 0.  0.
          5    1    3    3  502    0 -0.68307011078E+02 -0.98701540147E+02 -0.70140440973E+02  0.13910288728E+03  0.47000000000E+01 0. -1.
         -5    1    4    4    0  503  0.32417638089E+01  0.29185246684E+02 -0.86816493886E+01  0.30979811050E+02  0.47000000000E+01 0.  1.
          5    1    4    4  503    0  0.98515420753E+02  0.30406496520E+02  0.79748930704E+02  0.13042938743E+03  0.47000000000E+01 0. -1.
         -5    1    3    3    0  502 -0.33450173483E+02  0.39109796944E+02 -0.33107237493E+02  0.61373198527E+02  0.47000000000E+01 0. -1.
<mgrwt>
<rscale>  0 0.16467798E+03</rscale>
<asrwt>0</asrwt>
<pdfrwt beam="1">  1        2 0.30312745E-01 0.17184463E+03</pdfrwt>
<pdfrwt beam="2">  1       -2 0.25361914E-01 0.17184463E+03</pdfrwt>
<totfact> 0.23547813E+03</totfact>
</mgrwt>
</event>
<event>
 8    1  0.3629925E-004  0.2108115E+03  0.7546771E-02  0.1144520E+00
         -1   -1    0    0    0  501 -0.00000000000E+00  0.00000000000E+00  0.70462645281E+02  0.70462645281E+02  0.00000000000E+00 0.  1.
          1   -1    0    0  501    0  0.00000000000E+00 -0.00000000000E+00 -0.59560557065E+03  0.59560557065E+03  0.00000000000E+00 0. -1.
         25    2    1    2    0    0 -0.11313864801E+03  0.12655534328E+03 -0.21912187451E+03  0.30406560953E+03  0.12499956168E+03 0.  0.
         23    2    1    2    0    0  0.11313864801E+03 -0.12655534328E+03 -0.30602105086E+03  0.36200260641E+03  0.92630420983E+02 0.  0.
          5    1    3    3  502    0 -0.59883077781E+02  0.82005585230E+02 -0.21073543579E+03  0.23397096595E+03  0.47000000000E+01 0. -1.
         -5    1    3    3    0  502 -0.53255570230E+02  0.44549758050E+02 -0.83864387256E+01  0.70094643571E+02  0.47000000000E+01 0. -1.
          5    1    4    4  503    0  0.66550603445E+02 -0.11193561928E+03 -0.27403974966E+03  0.30344429485E+03  0.47000000000E+01 0. -1.
         -5    1    4    4    0  503  0.46588044566E+02 -0.14619723999E+02 -0.31981301198E+02  0.58558311559E+02  0.47000000000E+01 0.  1.
<mgrwt>
<rscale>  0 0.20631242E+03</rscale>
<asrwt>0</asrwt>
<pdfrwt beam="1">  1        1 0.91631629E-01 0.21081152E+03</pdfrwt>
<pdfrwt beam="2">  1       -1 0.10840407E-01 0.21081152E+03</pdfrwt>
<totfact> 0.18994431E+03</totfact>
</mgrwt>
</event>
<event>
 8    1  0.3629925E-004  0.1508798E+03  0.7546771E-02  0.1208206E+00
         -1   -1    0    0    0  501 -0.00000000000E+00  0.00000000000E+00  0.14578663715E+03  0.14578663715E+03  0.00000000000E+00 0.  1.
          1   -1    0    0  501    0  0.00000000000E+00 -0.00000000000E+00 -0.13297501797E+03  0.13297501797E+03  0.00000000000E+00 0. -1.
         25    2    1    2    0    0  0.16867551049E+02  0.82799958181E+02 -0.12728797506E+02  0.15141574772E+03  0.12499743605E+03 0.  0.
         23    2    1    2    0    0 -0.16867551049E+02 -0.82799958181E+02  0.25540416687E+02  0.12734590740E+03  0.91784093910E+02 0.  0.
          5    1    4    4  502    0  0.36406968153E+02 -0.18449801700E+02  0.85837773807E+01  0.41971820868E+02  0.47000000000E+01 0. -1.
         -5    1    3    3    0  503  0.53972944435E+02 -0.55814204553E+01 -0.10212517437E+02  0.55413143727E+02  0.47000000000E+01 0. -1.
          5    1    3    3  503    0 -0.37105393386E+02  0.88381378636E+02 -0.25162800685E+01  0.96002603992E+02  0.47000000000E+01 0. -1.
         -5    1    4    4    0  502 -0.53274519202E+02 -0.64350156480E+02  0.16956639306E+02  0.85374086536E+02  0.47000000000E+01 0.  1.
<mgrwt>
<rscale>  0 0.14387679E+03</rscale>
<asrwt>0</asrwt>
<pdfrwt beam="1">  1        1 0.20457695E-01 0.15087977E+03</pdfrwt>
<pdfrwt beam="2">  1       -1 0.22428713E-01 0.15087977E+03</pdfrwt>
<totfact> 0.39953676E+03</totfact>
</mgrwt>
</event>
<event>
 8    1  0.3629925E-004  0.1739857E+03  0.7546771E-02  0.1179665E+00
          2   -1    0    0  501    0  0.00000000000E+00  0.00000000000E+00  0.19051772951E+03  0.19051772951E+03  0.00000000000E+00 0. -1.
         -2   -1    0    0    0  501 -0.00000000000E+00 -0.00000000000E+00 -0.14175993045E+03  0.14175993045E+03  0.00000000000E+00 0.  1.
         25    2    1    2    0    0 -0.12045589697E+03  0.11606862755E+02  0.56829174345E+01  0.17407851700E+03  0.12500676843E+03 0.  0.
         23    2    1    2    0    0  0.12045589697E+03 -0.11606862755E+02  0.43074881625E+02  0.15819914295E+03  0.92342736730E+02 0.  0.
          5    1    4    4  502    0  0.24340616213E+02 -0.22652179788E+02  0.50946128838E+02  0.61017906309E+02  0.47000000000E+01 0. -1.
         -5    1    3    3    0  503 -0.12438018927E+03 -0.12160158819E+02 -0.32015828263E+02  0.12909455529E+03  0.47000000000E+01 0.  1.
          5    1    3    3  503    0  0.39242923015E+01  0.23767021574E+02  0.37698745698E+02  0.44983961717E+02  0.47000000000E+01 0.  1.
         -5    1    4    4    0  502  0.96115280757E+02  0.11045317034E+02 -0.78712472122E+01  0.97181236646E+02  0.47000000000E+01 0.  1.
<mgrwt>
<rscale>  0 0.16826917E+03</rscale>
<asrwt>0</asrwt>
<pdfrwt beam="1">  1        2 0.29310420E-01 0.17398573E+03</pdfrwt>
<pdfrwt beam="2">  1       -2 0.21809220E-01 0.17398573E+03</pdfrwt>
<totfact> 0.31780110E+03</totfact>
</mgrwt>
</event>
<event>
 8    1  0.3629925E-004  0.1378514E+03  0.7546771E-02  0.1228251E+00
         -1   -1    0    0    0  501 -0.00000000000E+00  0.00000000000E+00  0.10992725042E+03  0.10992725042E+03  0.00000000000E+00 0.  1.
          1   -1    0    0  501    0  0.00000000000E+00 -0.00000000000E+00 -0.15019122737E+03  0.15019122737E+03  0.00000000000E+00 0. -1.
         25    2    1    2    0    0  0.75114099073E+01 -0.57631873523E+02 -0.61236034737E+02  0.15084047054E+03  0.12500056590E+03 0.  0.
         23    2    1    2    0    0 -0.75114099073E+01  0.57631873523E+02  0.20972057789E+02  0.10927800725E+03  0.90133243237E+02 0.  0.
          5    1    4    4  502    0 -0.30417470924E+02  0.27815379090E+02 -0.25975803517E+02  0.48946401499E+02  0.47000000000E+01 0. -1.
         -5    1    4    4    0  502  0.22906061016E+02  0.29816494433E+02  0.46947861306E+02  0.60331605753E+02  0.47000000000E+01 0.  1.
          5    1    3    3  503    0 -0.21361740623E+02 -0.13274801173E+02  0.33540654783E+02  0.42185422031E+02  0.47000000000E+01 0.  1.
         -5    1    3    3    0  503  0.28873150530E+02 -0.44357072351E+02 -0.94776689520E+02  0.10865504850E+03  0.47000000000E+01 0.  1.
<mgrwt>
<rscale>  0 0.12946556E+03</rscale>
<asrwt>0</asrwt>
<pdfrwt beam="1">  1        1 0.23106342E-01 0.13785135E+03</pdfrwt>
<pdfrwt beam="2">  1       -1 0.16911885E-01 0.13785135E+03</pdfrwt>
<totfact> 0.53578613E+03</totfact>
</mgrwt>
</event>
<event>
 8    1  0.3629925E-004  0.1279288E+03  0.7546771E-02  0.1245518E+00
          1   -1    0    0  501    0  0.00000000000E+00  0.00000000000E+00  0.45286738165E+03  0.45286738165E+03  0.00000000000E+00 0. -1.
         -1   -1    0    0    0  501 -0.00000000000E+00 -0.00000000000E+00 -0.32512801672E+02  0.32512801672E+02  0.00000000000E+00 0.  1.
         25    2    1    2    0    0 -0.23950945920E+02 -0.12896615042E+02  0.14030071845E+03  0.18986857406E+03  0.12500325327E+03 0.  0.
         23    2    1    2    0    0  0.23950945920E+02  0.12896615042E+02  0.28005386152E+03  0.29551160926E+03  0.90315975118E+02 0.  0.
          5    1    3    3  502    0 -0.19475715696E+02  0.24058637190E+02 -0.11610840380E+02  0.33391962201E+02  0.47000000000E+01 0. -1.
         -5    1    4    4    0  503  0.19186690955E+02  0.51170596159E+02  0.18025756545E+03  0.18841825528E+03  0.47000000000E+01 0.  1.
          5    1    4    4  503    0  0.47642549656E+01 -0.38273981117E+02  0.99796296073E+02  0.10709335398E+03  0.47000000000E+01 0. -1.
         -5    1    3    3    0  502 -0.44752302239E+01 -0.36955252232E+02  0.15191155883E+03  0.15647661186E+03  0.47000000000E+01 0. -1.
<mgrwt>
<rscale>  0 0.11854450E+03</rscale>
<asrwt>0</asrwt>
<pdfrwt beam="1">  1        1 0.69671901E-01 0.12792882E+03</pdfrwt>
<pdfrwt beam="2">  1       -1 0.50019698E-02 0.12792882E+03</pdfrwt>
<totfact> 0.86029247E+03</totfact>
</mgrwt>
</event>
<event>
 8    1  0.3629925E-004  0.1329645E+03  0.7546771E-02  0.1236157E+00
          4   -1    0    0  501    0  0.00000000000E+00  0.00000000000E+00  0.31876381565E+02  0.31876381565E+02  0.00000000000E+00 0. -1.
         -4   -1    0    0    0  501 -0.00000000000E+00 -0.00000000000E+00 -0.65194792659E+03  0.65194792659E+03  0.00000000000E+00 0.  1.
         25    2    1    2    0    0 -0.43083427351E+02 -0.14127230417E+02 -0.53517438932E+03  0.55144462666E+03  0.12499515564E+03 0.  0.
         23    2    1    2    0    0  0.43083427351E+02  0.14127230417E+02 -0.84897155707E+02  0.13237968150E+03  0.90890553279E+02 0.  0.
          5    1    3    3  502    0 -0.77587435856E+02  0.99779589182E+01 -0.44464744406E+03  0.45150061946E+03  0.47000000000E+01 0. -1.
         -5    1    4    4    0  503  0.68915759917E+01 -0.20160871724E+02 -0.78999977017E+02  0.81957555704E+02  0.47000000000E+01 0.  1.
          5    1    4    4  503    0  0.36191851359E+02  0.34288102142E+02 -0.58971786905E+01  0.50422125796E+02  0.47000000000E+01 0. -1.
         -5    1    3    3    0  502  0.34504008505E+02 -0.24105189335E+02 -0.90526945260E+02  0.99944007194E+02  0.47000000000E+01 0. -1.
<mgrwt>
<rscale>  0 0.12430686E+03</rscale>
<asrwt>0</asrwt>
<pdfrwt beam="1">  1        4 0.49040590E-02 0.13296447E+03</pdfrwt>
<pdfrwt beam="2">  1       -4 0.10029968E+00 0.13296447E+03</pdfrwt>
<totfact> 0.34743822E+02</totfact>
</mgrwt>
</event>
<event>
 8    1  0.3629925E-004  0.1272162E+03  0.7546771E-02  0.1246526E+00
          1   -1    0    0  501    0  0.00000000000E+00  0.00000000000E+00  0.76096919009E+03  0.76096919009E+03  0.00000000000E+00 0. -1.
         -1   -1    0    0    0  501 -0.00000000000E+00 -0.00000000000E+00 -0.19806238838E+02  0.19806238838E+02  0.00000000000E+00 0.  1.
         25    2    1    2    0    0  0.50304009572E+01 -0.23090534327E+02  0.24789624400E+03  0.27863330908E+03  0.12500198170E+03 0.  0.
         23    2    1    2    0    0 -0.50304009572E+01  0.23090534327E+02  0.49326670725E+03  0.50214211985E+03  0.90973547446E+02 0.  0.
          5    1    3    3  502    0 -0.43525638539E+02  0.63492047108E+01  0.19804642209E+03  0.20292675751E+03  0.47000000000E+01 0. -1.
         -5    1    4    4    0  503  0.17314722035E+01 -0.33776677564E+02  0.24147132033E+03  0.24387363630E+03  0.47000000000E+01 0.  1.
          5    1    4    4  503    0 -0.67618731607E+01  0.56867211891E+02  0.25179538692E+03  0.25826848354E+03  0.47000000000E+01 0. -1.
         -5    1    3    3    0  502  0.48556039496E+02 -0.29439739038E+02  0.49849821914E+02  0.75706551573E+02  0.47000000000E+01 0. -1.
<mgrwt>
<rscale>  0 0.11794531E+03</rscale>
<asrwt>0</asrwt>
<pdfrwt beam="1">  1        1 0.11707216E+00 0.12721625E+03</pdfrwt>
<pdfrwt beam="2">  1       -1 0.30471143E-02 0.12721625E+03</pdfrwt>
<totfact> 0.87837235E+03</totfact>
</mgrwt>
</event>
<event>
 8    1  0.3629925E-004  0.1317448E+03  0.7546771E-02  0.1234867E+00
         -2   -1    0    0    0  501 -0.00000000000E+00  0.00000000000E+00  0.13064270268E+03  0.13064270268E+03  0.00000000000E+00 0.  1.
          2   -1    0    0  501    0  0.00000000000E+00 -0.00000000000E+00 -0.10971091104E+03  0.10971091104E+03  0.00000000000E+00 0. -1.
         25    2    1    2    0    0  0.24028190122E+02  0.33951544486E+02  0.39291183817E+01  0.13180341639E+03  0.12500656506E+03 0.  0.
         23    2    1    2    0    0 -0.24028190122E+02 -0.33951544486E+02  0.17002673261E+02  0.10855019733E+03  0.98812919949E+02 0.  0.
          5    1    4    4  502    0 -0.11493542303E+01  0.33875921270E+02  0.13315867562E+02  0.36719223657E+02  0.47000000000E+01 0. -1.
         -5    1    4    4    0  502 -0.22878835892E+02 -0.67827465756E+02  0.36868056989E+01  0.71830973674E+02  0.47000000000E+01 0.  1.
          5    1    3    3  503    0  0.47789598801E+02  0.59606227004E+02 -0.30603041942E+02  0.82434120529E+02  0.47000000000E+01 0. -1.
         -5    1    3    3    0  503 -0.23761408679E+02 -0.25654682517E+02  0.34532160323E+02  0.49369295864E+02  0.47000000000E+01 0. -1.
<mgrwt>
<rscale>  0 0.12512940E+03</rscale>
<asrwt>0</asrwt>
<pdfrwt beam="1">  1        2 0.16878602E-01 0.13174484E+03</pdfrwt>
<pdfrwt beam="2">  1       -2 0.20098877E-01 0.13174484E+03</pdfrwt>
<totfact> 0.66741361E+03</totfact>
</mgrwt>
</event>
<event>
 8    1  0.3629925E-004  0.1522379E+03  0.7546771E-02  0.1205989E+00
          1   -1    0    0  501    0  0.00000000000E+00  0.00000000000E+00  0.23856983198E+03  0.23856983198E+03  0.00000000000E+00 0. -1.
         -1   -1    0    0    0  501 -0.00000000000E+00 -0.00000000000E+00 -0.14663460435E+03  0.14663460435E+03  0.00000000000E+00 0.  1.
         25    2    1    2    0    0 -0.81112363976E+02  0.31164810043E+02 -0.79412169624E+02  0.17170517160E+03  0.12500364912E+03 0.  0.
         23    2    1    2    0    0  0.81112363976E+02 -0.31164810043E+02  0.17134739726E+03  0.21349926473E+03  0.93121128206E+02 0.  0.
          5    1    4    4  502    0  0.74628136983E+02  0.18379669549E+02  0.10917577441E+03  0.13359869311E+03  0.47000000000E+01 0. -1.
         -5    1    3    3    0  503 -0.95928961442E+02  0.52211321523E+02 -0.26208564054E+02  0.11241604231E+03  0.47000000000E+01 0.  1.
          5    1    3    3  503    0  0.14816597466E+02 -0.21046511480E+02 -0.53203605569E+02  0.59289129286E+02  0.47000000000E+01 0.  1.
         -5    1    4    4    0  502  0.64842269925E+01 -0.49544479593E+02  0.62171622846E+02  0.79900571619E+02  0.47000000000E+01 0.  1.
<mgrwt>
<rscale>  0 0.14559790E+03</rscale>
<asrwt>0</asrwt>
<pdfrwt beam="1">  1        1 0.36703051E-01 0.15223788E+03</pdfrwt>
<pdfrwt beam="2">  1       -1 0.22559170E-01 0.15223788E+03</pdfrwt>
<totfact> 0.19018026E+03</totfact>
</mgrwt>
</event>
<event>
 8    1  0.3629925E-004  0.1617994E+03  0.7546771E-02  0.1193947E+00
         -4   -1    0    0    0  501 -0.00000000000E+00  0.00000000000E+00  0.10540569721E+03  0.10540569721E+03  0.00000000000E+00 0.  1.
          4   -1    0    0  501    0  0.00000000000E+00 -0.00000000000E+00 -0.22281710122E+03  0.22281710122E+03  0.00000000000E+00 0. -1.
         25    2    1    2    0    0  0.10161798383E+03  0.15054054106E+02 -0.28694475072E+02  0.16432411222E+03  0.12500480700E+03 0.  0.
         23    2    1    2    0    0 -0.10161798383E+03 -0.15054054106E+02 -0.88716928940E+02  0.16389868621E+03  0.91865372574E+02 0.  0.
          5    1    4    4  502    0 -0.57539692885E+02 -0.64638106694E+01 -0.10151999543E+03  0.11696579234E+03  0.47000000000E+01 0. -1.
         -5    1    4    4    0  502 -0.44078290945E+02 -0.85902434363E+01  0.12803066495E+02  0.46932893865E+02  0.47000000000E+01 0.  1.
          5    1    3    3  503    0  0.30944354331E+02  0.21816052312E+02  0.46935303276E+02  0.60485584208E+02  0.47000000000E+01 0. -1.
         -5    1    3    3    0  503  0.70673629499E+02 -0.67619982059E+01 -0.75629778348E+02  0.10383852801E+03  0.47000000000E+01 0. -1.
<mgrwt>
<rscale>  0 0.15543694E+03</rscale>
<asrwt>0</asrwt>
<pdfrwt beam="1">  1        4 0.34279554E-01 0.16179938E+03</pdfrwt>
<pdfrwt beam="2">  1       -4 0.16216261E-01 0.16179938E+03</pdfrwt>
<totfact> 0.46374742E+02</totfact>
</mgrwt>
</event>
<event>
 8    1  0.3629925E-004  0.1408888E+03  0.7546771E-02  0.1222792E+00
          2   -1    0    0  501    0  0.00000000000E+00  0.00000000000E+00  0.15224463473E+04  0.15224463473E+04  0.00000000000E+00 0. -1.
         -2   -1    0    0    0  501 -0.00000000000E+00 -0.00000000000E+00 -0.12466608056E+02  0.12466608056E+02  0.00000000000E+00 0.  1.
         25    2    1    2    0    0 -0.64089633894E+02 -0.10721309961E+02  0.11260133682E+04  0.11347932697E+04  0.12500892743E+03 0.  0.
         23    2    1    2    0    0  0.64089633894E+02  0.10721309961E+02  0.38396637107E+03  0.40011968568E+03  0.91886675282E+02 0.  0.
          5    1    4    4  502    0 -0.88183924559E+01  0.27501778969E+02  0.18876860013E+03  0.19102299937E+03  0.47000000000E+01 0. -1.
         -5    1    3    3    0  503 -0.10192708166E+03 -0.67269407210E+01  0.85060893619E+03  0.85673335060E+03  0.47000000000E+01 0. -1.
          5    1    3    3  503    0  0.37837447771E+02 -0.39943692395E+01  0.27540443198E+03  0.27805991907E+03  0.47000000000E+01 0. -1.
         -5    1    4    4    0  502  0.72908026350E+02 -0.16780469009E+02  0.19519777094E+03  0.20909668631E+03  0.47000000000E+01 0.  1.
<mgrwt>
<rscale>  0 0.13319428E+03</rscale>
<asrwt>0</asrwt>
<pdfrwt beam="1">  1        2 0.23422237E+00 0.14088882E+03</pdfrwt>
<pdfrwt beam="2">  1       -2 0.19179409E-02 0.14088882E+03</pdfrwt>
<totfact> 0.10651776E+04</totfact>
</mgrwt>
</event>
<event>
 8    1  0.3629925E-004  0.1508738E+03  0.7546771E-02  0.1208307E+00
          1   -1    0    0  501    0  0.00000000000E+00  0.00000000000E+00  0.18769326343E+03  0.18769326343E+03  0.00000000000E+00 0. -1.
         -1   -1    0    0    0  501 -0.00000000000E+00 -0.00000000000E+00 -0.15496660017E+03  0.15496660017E+03  0.00000000000E+00 0.  1.
         25    2    1    2    0    0  0.26990502973E+02  0.80067170462E+02  0.11818314376E+03  0.19165110979E+03  0.12499461339E+03 0.  0.
         23    2    1    2    0    0 -0.26990502973E+02 -0.80067170462E+02 -0.85456480505E+02  0.15100875381E+03  0.91441755404E+02 0.  0.
          5    1    3    3  502    0  0.18692410374E+02  0.14174129742E+02  0.12261198867E+03  0.12492438483E+03  0.47000000000E+01 0.  1.
         -5    1    3    3    0  502  0.82980925993E+01  0.65893040720E+02 -0.44288449127E+01  0.66726724956E+02  0.47000000000E+01 0.  1.
          5    1    4    4  503    0  0.57270974611E+01 -0.88872542721E+02 -0.70473507957E+02  0.11366500701E+03  0.47000000000E+01 0. -1.
         -5    1    4    4    0  503 -0.32717600434E+02  0.88053722595E+01 -0.14982972548E+02  0.37343746802E+02  0.47000000000E+01 0.  1.
<mgrwt>
<rscale>  0 0.14379861E+03</rscale>
<asrwt>0</asrwt>
<pdfrwt beam="1">  1        1 0.28875887E-01 0.15087376E+03</pdfrwt>
<pdfrwt beam="2">  1       -1 0.23841015E-01 0.15087376E+03</pdfrwt>
<totfact> 0.23414744E+03</totfact>
</mgrwt>
</event>
<event>
 8    1  0.3629925E-004  0.1325612E+03  0.7546771E-02  0.1236527E+00
         -4   -1    0    0    0  501 -0.00000000000E+00  0.00000000000E+00  0.93673435183E+02  0.93673435183E+02  0.00000000000E+00 0.  1.
          4   -1    0    0  501    0  0.00000000000E+00 -0.00000000000E+00 -0.29245766630E+03  0.29245766630E+03  0.00000000000E+00 0. -1.
         25    2    1    2    0    0  0.43984215360E+02  0.34656652264E+01 -0.24174387561E+03  0.27570380042E+03  0.12500344849E+03 0.  0.
         23    2    1    2    0    0 -0.43984215360E+02 -0.34656652264E+01  0.42959644489E+02  0.11042730107E+03  0.91662619046E+02 0.  0.
          5    1    4    4  502    0 -0.35637580535E+02 -0.45032624719E+02  0.33788423631E+02  0.66796122694E+02  0.47000000000E+01 0. -1.
         -5    1    3    3    0  503  0.76461186699E+02 -0.26956470598E+02 -0.11115309185E+03  0.13765923219E+03  0.47000000000E+01 0.  1.
          5    1    3    3  503    0 -0.32476971339E+02  0.30422135824E+02 -0.13059078376E+03  0.13804456823E+03  0.47000000000E+01 0.  1.
         -5    1    4    4    0  502 -0.83466348243E+01  0.41566959492E+02  0.91712208580E+01  0.43631178375E+02  0.47000000000E+01 0.  1.
<mgrwt>
<rscale>  0 0.12407176E+03</rscale>
<asrwt>0</asrwt>
<pdfrwt beam="1">  1        4 0.44993487E-01 0.13256125E+03</pdfrwt>
<pdfrwt beam="2">  1       -4 0.14411298E-01 0.13256125E+03</pdfrwt>
<totfact> 0.32210750E+02</totfact>
</mgrwt>
</event>
<event>
 8    1  0.3629925E-004  0.1312344E+03  0.7546771E-02  0.1242823E+00
          1   -1    0    0  501    0  0.00000000000E+00  0.00000000000E+00  0.43359313152E+03  0.43359313152E+03  0.00000000000E+00 0. -1.
         -1   -1    0    0    0  501 -0.00000000000E+00 -0.00000000000E+00 -0.29028394389E+02  0.29028394389E+02  0.00000000000E+00 0.  1.
         25    2    1    2    0    0 -0.33065998941E+02  0.22357535003E+02  0.21701489623E+03  0.25360981816E+03  0.12501701893E+03 0.  0.
         23    2    1    2    0    0  0.33065998941E+02 -0.22357535003E+02  0.18754984090E+03  0.20901170776E+03  0.83172901229E+02 0.  0.
          5    1    3    3  502    0 -0.26003967970E+01 -0.47874491415E+02  0.48000609672E+02  0.68006452052E+02  0.47000000000E+01 0.  1.
         -5    1    3    3    0  502 -0.30465602144E+02  0.70232026417E+02  0.16901428656E+03  0.18560336610E+03  0.47000000000E+01 0.  1.
          5    1    4    4  503    0  0.13352411212E+02 -0.34635326693E+02  0.18043183338E+03  0.18427053274E+03  0.47000000000E+01 0. -1.
         -5    1    4    4    0  503  0.19713587729E+02  0.12277791690E+02  0.71180075234E+01  0.24741175013E+02  0.47000000000E+01 0.  1.
<mgrwt>
<rscale>  0 0.12016641E+03</rscale>
<asrwt>0</asrwt>
<pdfrwt beam="1">  1        1 0.66706631E-01 0.13123443E+03</pdfrwt>
<pdfrwt beam="2">  1       -1 0.44659072E-02 0.13123443E+03</pdfrwt>
<totfact> 0.10768186E+04</totfact>
</mgrwt>
</event>
<event>
 8    1  0.3629925E-004  0.2303600E+03  0.7546771E-02  0.1129530E+00
         -2   -1    0    0    0  501 -0.00000000000E+00  0.00000000000E+00  0.24737413389E+03  0.24737413389E+03  0.00000000000E+00 0.  1.
          2   -1    0    0  501    0  0.00000000000E+00 -0.00000000000E+00 -0.21030103697E+03  0.21030103697E+03  0.00000000000E+00 0. -1.
         25    2    1    2    0    0  0.52915880010E+02 -0.18612107637E+03  0.72640053765E+02  0.24154150362E+03  0.12499830053E+03 0.  0.
         23    2    1    2    0    0 -0.52915880010E+02  0.18612107637E+03 -0.35566956849E+02  0.21613366724E+03  0.89485240508E+02 0.  0.
          5    1    3    3  502    0  0.23332180891E+02 -0.16706019540E+03  0.93907371373E+01  0.16900821133E+03  0.47000000000E+01 0. -1.
         -5    1    3    3    0  502  0.29583699119E+02 -0.19060880966E+02  0.63249316628E+02  0.72533292292E+02  0.47000000000E+01 0. -1.
          5    1    4    4  503    0 -0.11014622978E+02  0.10992102512E+03 -0.59841678842E+02  0.12572617154E+03  0.47000000000E+01 0. -1.
         -5    1    4    4    0  503 -0.41901257032E+02  0.76200051247E+02  0.24274721994E+02  0.90407495700E+02  0.47000000000E+01 0.  1.
<mgrwt>
<rscale>  0 0.22594125E+03</rscale>
<asrwt>0</asrwt>
<pdfrwt beam="1">  1        2 0.32354006E-01 0.23035998E+03</pdfrwt>
<pdfrwt beam="2">  1       -2 0.38057559E-01 0.23035998E+03</pdfrwt>
<totfact> 0.10548670E+03</totfact>
</mgrwt>
</event>
<event>
 8    1  0.3629925E-004  0.1595122E+03  0.7546771E-02  0.1197743E+00
          2   -1    0    0  501    0  0.00000000000E+00  0.00000000000E+00  0.74613393614E+02  0.74613393614E+02  0.00000000000E+00 0. -1.
         -2   -1    0    0    0  501 -0.00000000000E+00 -0.00000000000E+00 -0.37501259515E+03  0.37501259515E+03  0.00000000000E+00 0.  1.
         25    2    1    2    0    0 -0.99009056667E+02  0.40386744699E+01 -0.51326735574E+02  0.16756665990E+03  0.12500019012E+03 0.  0.
         23    2    1    2    0    0  0.99009056667E+02 -0.40386744699E+01 -0.24907246596E+03  0.28205932887E+03  0.87756865866E+02 0.  0.
          5    1    3    3  502    0 -0.32149399438E+02  0.31008775152E+02  0.33582287472E+02  0.56080193050E+02  0.47000000000E+01 0. -1.
         -5    1    3    3    0  502 -0.66859657229E+02 -0.26970100682E+02 -0.84909023046E+02  0.11148646685E+03  0.47000000000E+01 0. -1.
          5    1    4    4  503    0  0.90747169417E+02  0.30550833838E+02 -0.16850739336E+03  0.19386911518E+03  0.47000000000E+01 0. -1.
         -5    1    4    4    0  503  0.82618872503E+01 -0.34589508308E+02 -0.80565072603E+02  0.88190213683E+02  0.47000000000E+01 0.  1.
<mgrwt>
<rscale>  0 0.15224338E+03</rscale>
<asrwt>0</asrwt>
<pdfrwt beam="1">  1        2 0.11478984E-01 0.15951223E+03</pdfrwt>
<pdfrwt beam="2">  1       -2 0.57694245E-01 0.15951223E+03</pdfrwt>
<totfact> 0.15148930E+03</totfact>
</mgrwt>
</event>
<event>
 8    1  0.3629925E-004  0.1926021E+03  0.7546771E-02  0.1160780E+00
         -1   -1    0    0    0  501 -0.00000000000E+00  0.00000000000E+00  0.38743473130E+02  0.38743473130E+02  0.00000000000E+00 0.  1.
          1   -1    0    0  501    0  0.00000000000E+00 -0.00000000000E+00 -0.86321069897E+03  0.86321069897E+03  0.00000000000E+00 0. -1.
         25    2    1    2    0    0  0.90788869064E+02  0.11501471488E+03 -0.41509680807E+03  0.45760345700E+03  0.12499824160E+03 0.  0.
         23    2    1    2    0    0 -0.90788869064E+02 -0.11501471488E+03 -0.40937041777E+03  0.44435071510E+03  0.91610128708E+02 0.  0.
          5    1    3    3  502    0 -0.23538842606E+02  0.61986356849E+02 -0.14606455353E+03  0.16047843888E+03  0.47000000000E+01 0. -1.
         -5    1    4    4    0  503 -0.21157616108E+02  0.83761336630E+01 -0.22576092076E+02  0.32397133637E+02  0.47000000000E+01 0.  1.
          5    1    4    4  503    0 -0.69631252956E+02 -0.12339084854E+03 -0.38679432569E+03  0.41195358146E+03  0.47000000000E+01 0. -1.
         -5    1    3    3    0  502  0.11432771167E+03  0.53028358028E+02 -0.26903225454E+03  0.29712501812E+03  0.47000000000E+01 0. -1.
<mgrwt>
<rscale>  0 0.18745118E+03</rscale>
<asrwt>0</asrwt>
<pdfrwt beam="1">  1        1 0.13280164E+00 0.19260209E+03</pdfrwt>
<pdfrwt beam="2">  1       -1 0.59605347E-02 0.19260209E+03</pdfrwt>
<totfact> 0.27363784E+03</totfact>
</mgrwt>
</event>
<event>
 8    1  0.3629925E-004  0.1935199E+03  0.7546771E-02  0.1160177E+00
         -2   -1    0    0    0  501 -0.00000000000E+00  0.00000000000E+00  0.12368563890E+04  0.12368563890E+04  0.00000000000E+00 0.  1.
          2   -1    0    0  501    0  0.00000000000E+00 -0.00000000000E+00 -0.30733452741E+02  0.30733452741E+02  0.00000000000E+00 0. -1.
         25    2    1    2    0    0  0.38680448354E+01  0.14767795377E+03  0.41615973286E+03  0.45895412350E+03  0.12500489758E+03 0.  0.
         23    2    1    2    0    0 -0.38680448354E+01 -0.14767795377E+03  0.78996320343E+03  0.80863571828E+03  0.89588628188E+02 0.  0.
          5    1    3    3  502    0 -0.18156464098E+02  0.96690807482E+02  0.10953790754E+03  0.14730720494E+03  0.47000000000E+01 0. -1.
         -5    1    4    4    0  503  0.29482501716E+02 -0.40626100319E+02  0.38934392665E+03  0.39259455059E+03  0.47000000000E+01 0.  1.
          5    1    4    4  503    0 -0.33350546552E+02 -0.10705185345E+03  0.40061927679E+03  0.41604116769E+03  0.47000000000E+01 0. -1.
         -5    1    3    3    0  502  0.22024508933E+02  0.50987146286E+02  0.30662182532E+03  0.31164691855E+03  0.47000000000E+01 0. -1.
<mgrwt>
<rscale>  0 0.18811008E+03</rscale>
<asrwt>0</asrwt>
<pdfrwt beam="1">  1        2 0.47282244E-02 0.19351993E+03</pdfrwt>
<pdfrwt beam="2">  1       -2 0.19028556E+00 0.19351993E+03</pdfrwt>
<totfact> 0.28052193E+02</totfact>
</mgrwt>
</event>
<event>
 8    1  0.3629925E-004  0.3078091E+03  0.7546771E-02  0.1082735E+00
          2   -1    0    0  501    0  0.00000000000E+00  0.00000000000E+00  0.31065784926E+03  0.31065784926E+03  0.00000000000E+00 0.  1.
         -2   -1    0    0    0  501 -0.00000000000E+00 -0.00000000000E+00 -0.37115263351E+03  0.37115263351E+03  0.00000000000E+00 0. -1.
         25    2    1    2    0    0  0.52650581194E+02  0.27630531903E+03  0.12437368000E+03  0.33198684883E+03  0.12501896852E+03 0.  0.
         23    2    1    2    0    0 -0.52650581194E+02 -0.27630531903E+03 -0.18486846425E+03  0.34982363394E+03  0.95307464376E+02 0.  0.
          5    1    4    4  502    0 -0.45090700883E+02 -0.22337068089E+03 -0.98864078766E+02  0.24844280722E+03  0.47000000000E+01 0. -1.
         -5    1    4    4    0  502 -0.75598803111E+01 -0.52934638143E+02 -0.86004385481E+02  0.10138082673E+03  0.47000000000E+01 0.  1.
          5    1    3    3  503    0  0.55564222203E+02  0.34873326081E+02  0.18646080367E+02  0.68361524076E+02  0.47000000000E+01 0.  1.
         -5    1    3    3    0  503 -0.29136410083E+01  0.24143199295E+03  0.10572759963E+03  0.26362532475E+03  0.47000000000E+01 0.  1.
<mgrwt>
<rscale>  0 0.30506672E+03</rscale>
<asrwt>0</asrwt>
<pdfrwt beam="1">  1        2 0.47793515E-01 0.30780912E+03</pdfrwt>
<pdfrwt beam="2">  1       -2 0.57100405E-01 0.30780912E+03</pdfrwt>
<totfact> 0.30996339E+02</totfact>
</mgrwt>
</event>
<event>
 8    1  0.3629925E-004  0.1599962E+03  0.7546771E-02  0.1196234E+00
         -1   -1    0    0    0  501 -0.00000000000E+00  0.00000000000E+00  0.47386494219E+03  0.47386494219E+03  0.00000000000E+00 0.  1.
          1   -1    0    0  501    0  0.00000000000E+00 -0.00000000000E+00 -0.46104583060E+02  0.46104583060E+02  0.00000000000E+00 0. -1.
         25    2    1    2    0    0 -0.95455155753E+02  0.29383606677E+02  0.22628185753E+03  0.27713223806E+03  0.12499486080E+03 0.  0.
         23    2    1    2    0    0  0.95455155753E+02 -0.29383606677E+02  0.20147850160E+03  0.24283728719E+03  0.91658487552E+02 0.  0.
          5    1    4    4  502    0  0.79497069513E+02 -0.56182206143E+02  0.11475479434E+03  0.15055556175E+03  0.47000000000E+01 0. -1.
         -5    1    4    4    0  502  0.15958086240E+02  0.26798599467E+02  0.86723707256E+02  0.92281725439E+02  0.47000000000E+01 0.  1.
          5    1    3    3  503    0 -0.13622409209E+02  0.60022146275E+02  0.46829316081E+02  0.77480984253E+02  0.47000000000E+01 0.  1.
         -5    1    3    3    0  503 -0.81832746544E+02 -0.30638539599E+02  0.17945254144E+03  0.19965125381E+03  0.47000000000E+01 0.  1.
<mgrwt>
<rscale>  0 0.15350226E+03</rscale>
<asrwt>0</asrwt>
<pdfrwt beam="1">  1        1 0.70930131E-02 0.15999624E+03</pdfrwt>
<pdfrwt beam="2">  1       -1 0.72902295E-01 0.15999624E+03</pdfrwt>
<totfact> 0.19826182E+03</totfact>
</mgrwt>
</event>
<event>
 8    1  0.3629925E-004  0.1385465E+03  0.7546771E-02  0.1226224E+00
         -1   -1    0    0    0  501 -0.00000000000E+00  0.00000000000E+00  0.14322421865E+03  0.14322421865E+03  0.00000000000E+00 0.  1.
          1   -1    0    0  501    0  0.00000000000E+00 -0.00000000000E+00 -0.23828322351E+03  0.23828322351E+03  0.00000000000E+00 0. -1.
         25    2    1    2    0    0 -0.14010374279E+01  0.59760160559E+02  0.90655504735E+02  0.16557040635E+03  0.12498759629E+03 0.  0.
         23    2    1    2    0    0  0.14010374279E+01 -0.59760160559E+02 -0.18571450959E+03  0.21593703580E+03  0.92550984127E+02 0.  0.
          5    1    4    4  502    0  0.72924994380E+01  0.19487510283E+02 -0.84594942221E+02  0.87242981692E+02  0.47000000000E+01 0. -1.
         -5    1    4    4    0  502 -0.58914620101E+01 -0.79247670842E+02 -0.10111956737E+03  0.12869405411E+03  0.47000000000E+01 0.  1.
          5    1    3    3  503    0  0.41986036658E+02  0.53886686294E+02  0.99374307065E+02  0.12068117143E+03  0.47000000000E+01 0. -1.
         -5    1    3    3    0  503 -0.43387074085E+02  0.58734742649E+01 -0.87188023307E+01  0.44889234920E+02  0.47000000000E+01 0. -1.
<mgrwt>
<rscale>  0 0.13083359E+03</rscale>
<asrwt>0</asrwt>
<pdfrwt beam="1">  1        1 0.36658958E-01 0.13854652E+03</pdfrwt>
<pdfrwt beam="2">  1       -1 0.22034495E-01 0.13854652E+03</pdfrwt>
<totfact> 0.19726649E+03</totfact>
</mgrwt>
</event>
<event>
 8    1  0.3629925E-004  0.1270044E+03  0.7546771E-02  0.1247423E+00
         -1   -1    0    0    0  501 -0.00000000000E+00  0.00000000000E+00  0.57725787765E+02  0.57725787765E+02  0.00000000000E+00 0.  1.
          1   -1    0    0  501    0  0.00000000000E+00 -0.00000000000E+00 -0.20987208240E+03  0.20987208240E+03  0.00000000000E+00 0. -1.
         25    2    1    2    0    0  0.63374010218E+00 -0.22432617743E+02 -0.95383438971E+02  0.15883361019E+03  0.12500596518E+03 0.  0.
         23    2    1    2    0    0 -0.63374010218E+00  0.22432617743E+02 -0.56762855663E+02  0.10876425997E+03  0.90022322225E+02 0.  0.
          5    1    4    4  502    0  0.38690041395E+02  0.62270460913E+01 -0.23465160334E+01  0.39538481807E+02  0.47000000000E+01 0. -1.
         -5    1    4    4    0  502 -0.39323781497E+02  0.16205571652E+02 -0.54416339629E+02  0.69225778164E+02  0.47000000000E+01 0.  1.
          5    1    3    3  503    0  0.33773572023E+02 -0.62884594017E+02 -0.71539547073E+02  0.10116878534E+03  0.47000000000E+01 0. -1.
         -5    1    3    3    0  503 -0.33139831921E+02  0.40451976274E+02 -0.23843891898E+02  0.57664824851E+02  0.47000000000E+01 0. -1.
<mgrwt>
<rscale>  0 0.11741527E+03</rscale>
<asrwt>0</asrwt>
<pdfrwt beam="1">  1        1 0.32288012E-01 0.12700439E+03</pdfrwt>
<pdfrwt beam="2">  1       -1 0.88808906E-02 0.12700439E+03</pdfrwt>
<totfact> 0.94912590E+03</totfact>
</mgrwt>
</event>
<event>
 8    1  0.3629925E-004  0.2071850E+03  0.7546771E-02  0.1147848E+00
         -1   -1    0    0    0  501 -0.00000000000E+00  0.00000000000E+00  0.10074622811E+03  0.10074622811E+03  0.00000000000E+00 0.  1.
          1   -1    0    0  501    0  0.00000000000E+00 -0.00000000000E+00 -0.39143474185E+03  0.39143474185E+03  0.00000000000E+00 0. -1.
         25    2    1    2    0    0 -0.10196850624E+03  0.13000860133E+03 -0.12881073797E+03  0.24396276758E+03  0.12500325221E+03 0.  0.
         23    2    1    2    0    0  0.10196850624E+03 -0.13000860133E+03 -0.16187777577E+03  0.24821820237E+03  0.90044705648E+02 0.  0.
          5    1    3    3  502    0  0.11860038409E+02  0.20083743365E+02  0.16594898823E+02  0.29008583653E+02  0.47000000000E+01 0.  1.
         -5    1    3    3    0  502 -0.11382854465E+03  0.10992485797E+03 -0.14540563680E+03  0.21495418393E+03  0.47000000000E+01 0.  1.
          5    1    4    4  503    0  0.57022741509E+02 -0.10403898566E+02 -0.68710288107E+02  0.90016819796E+02  0.47000000000E+01 0. -1.
         -5    1    4    4    0  503  0.44945764731E+02 -0.11960470277E+03 -0.93167487663E+02  0.15820138258E+03  0.47000000000E+01 0.  1.
<mgrwt>
<rscale>  0 0.20225823E+03</rscale>
<asrwt>0</asrwt>
<pdfrwt beam="1">  1        1 0.60220729E-01 0.20718500E+03</pdfrwt>
<pdfrwt beam="2">  1       -1 0.15499420E-01 0.20718500E+03</pdfrwt>
<totfact> 0.18859264E+03</totfact>
</mgrwt>
</event>
<event>
 8    1  0.3629925E-004  0.2018192E+03  0.7546771E-02  0.1152582E+00
         -4   -1    0    0    0  501 -0.00000000000E+00  0.00000000000E+00  0.14812144410E+04  0.14812144410E+04  0.00000000000E+00 0.  1.
          4   -1    0    0  501    0  0.00000000000E+00 -0.00000000000E+00 -0.58206791517E+02  0.58206791517E+02  0.00000000000E+00 0. -1.
         25    2    1    2    0    0 -0.13535158905E+03 -0.82376335332E+02  0.14496634303E+03  0.24848791857E+03  0.12500036713E+03 0.  0.
         23    2    1    2    0    0  0.13535158905E+03  0.82376335332E+02  0.12780413064E+04  0.12909333139E+04  0.89517187095E+02 0.  0.
          5    1    3    3  502    0 -0.11299929686E+03 -0.46686467948E+02  0.30024248622E+02  0.12598417713E+03  0.47000000000E+01 0. -1.
         -5    1    3    3    0  502 -0.22352292182E+02 -0.35689867384E+02  0.11494209441E+03  0.12250374144E+03  0.47000000000E+01 0. -1.
          5    1    4    4  503    0  0.33117294227E+02  0.68110010838E+02  0.43309796034E+03  0.43969496473E+03  0.47000000000E+01 0. -1.
         -5    1    4    4    0  503  0.10223429482E+03  0.14266324494E+02  0.84494334610E+03  0.85123834921E+03  0.47000000000E+01 0.  1.
<mgrwt>
<rscale>  0 0.19666722E+03</rscale>
<asrwt>0</asrwt>
<pdfrwt beam="1">  1        4 0.89548921E-02 0.20181924E+03</pdfrwt>
<pdfrwt beam="2">  1       -4 0.22787912E+00 0.20181924E+03</pdfrwt>
<totfact> 0.15918171E+01</totfact>
</mgrwt>
</event>
<event>
 8    1  0.3629925E-004  0.1423344E+03  0.7546771E-02  0.1221505E+00
         -3   -1    0    0    0  501 -0.00000000000E+00  0.00000000000E+00  0.57754507744E+02  0.57754507744E+02  0.00000000000E+00 0.  1.
          3   -1    0    0  501    0  0.00000000000E+00 -0.00000000000E+00 -0.29278545463E+03  0.29278545463E+03  0.00000000000E+00 0. -1.
         25    2    1    2    0    0 -0.67004465683E+02 -0.12051207264E+02 -0.16685224423E+03  0.21931431033E+03  0.12499706113E+03 0.  0.
         23    2    1    2    0    0  0.67004465683E+02  0.12051207264E+02 -0.68178702655E+02  0.13122565205E+03  0.89089877324E+02 0.  0.
          5    1    4    4  502    0  0.73253903730E+02 -0.16504548663E+02 -0.68305658291E+02  0.10161834231E+03  0.47000000000E+01 0. -1.
         -5    1    3    3    0  503 -0.16177070273E+02 -0.22509994796E+02 -0.16478740615E+03  0.16716870728E+03  0.47000000000E+01 0.  1.
          5    1    3    3  503    0 -0.50827395410E+02  0.10458787532E+02 -0.20648380823E+01  0.52145603047E+02  0.47000000000E+01 0.  1.
         -5    1    4    4    0  502 -0.62494380466E+01  0.28555755927E+02  0.12695563597E+00  0.29607309743E+02  0.47000000000E+01 0.  1.
<mgrwt>
<rscale>  0 0.13409339E+03</rscale>
<asrwt>0</asrwt>
<pdfrwt beam="1">  1        3 0.45043916E-01 0.14233445E+03</pdfrwt>
<pdfrwt beam="2">  1       -3 0.88853090E-02 0.14233445E+03</pdfrwt>
<totfact> 0.10263655E+03</totfact>
</mgrwt>
</event>
<event>
 8    1  0.3629925E-004  0.1553305E+03  0.7546771E-02  0.1202202E+00
          2   -1    0    0  501    0  0.00000000000E+00  0.00000000000E+00  0.16886121714E+04  0.16886121714E+04  0.00000000000E+00 0. -1.
         -2   -1    0    0    0  501 -0.00000000000E+00 -0.00000000000E+00 -0.12369085639E+02  0.12369085639E+02  0.00000000000E+00 0.  1.
         25    2    1    2    0    0 -0.89711167787E+02 -0.21311285744E+02  0.77704758360E+03  0.79242065711E+03  0.12500114445E+03 0.  0.
         23    2    1    2    0    0  0.89711167787E+02  0.21311285744E+02  0.89919550220E+03  0.90856059997E+03  0.91801678126E+02 0.  0.
          5    1    4    4  502    0  0.47653390942E+02  0.55452551398E+02  0.42640064547E+03  0.43264931709E+03  0.47000000000E+01 0. -1.
         -5    1    3    3    0  503  0.28598583361E+02  0.12494514964E+02  0.18932088229E+03  0.19193352585E+03  0.47000000000E+01 0.  1.
          5    1    3    3  503    0 -0.11830975115E+03 -0.33805800708E+02  0.58772670131E+03  0.60048713126E+03  0.47000000000E+01 0.  1.
         -5    1    4    4    0  502  0.42057776845E+02 -0.34141265655E+02  0.47279485673E+03  0.47591128287E+03  0.47000000000E+01 0.  1.
<mgrwt>
<rscale>  0 0.14860177E+03</rscale>
<asrwt>0</asrwt>
<pdfrwt beam="1">  1        2 0.25978630E+00 0.15533046E+03</pdfrwt>
<pdfrwt beam="2">  1       -2 0.19029376E-02 0.15533046E+03</pdfrwt>
<totfact> 0.88710197E+03</totfact>
</mgrwt>
</event>
<event>
 8    1  0.3629925E-004  0.2041744E+03  0.7546771E-02  0.1150297E+00
         -1   -1    0    0    0  501 -0.00000000000E+00  0.00000000000E+00  0.23063822897E+03  0.23063822897E+03  0.00000000000E+00 0.  1.
          1   -1    0    0  501    0  0.00000000000E+00 -0.00000000000E+00 -0.62364238476E+03  0.62364238476E+03  0.00000000000E+00 0. -1.
         25    2    1    2    0    0  0.95251971987E+02 -0.13034210314E+03  0.16736376679E+03  0.26400341959E+03  0.12500069241E+03 0.  0.
         23    2    1    2    0    0 -0.95251971987E+02  0.13034210314E+03 -0.56036792257E+03  0.59027719414E+03  0.91394503390E+02 0.  0.
          5    1    3    3  502    0  0.24416065352E+02 -0.12380637311E+03  0.13756014057E+03  0.18673254816E+03  0.47000000000E+01 0. -1.
         -5    1    3    3    0  502  0.70835906635E+02 -0.65357300338E+01  0.29803626222E+02  0.77270871432E+02  0.47000000000E+01 0. -1.
          5    1    4    4  503    0  0.80516079355E+01  0.58541808127E+02 -0.19643885419E+03  0.20518841372E+03  0.47000000000E+01 0. -1.
         -5    1    4    4    0  503 -0.10330357992E+03  0.71800295016E+02 -0.36392906838E+03  0.38508878042E+03  0.47000000000E+01 0.  1.
<mgrwt>
<rscale>  0 0.19933994E+03</rscale>
<asrwt>0</asrwt>
<pdfrwt beam="1">  1        1 0.95944983E-01 0.20417437E+03</pdfrwt>
<pdfrwt beam="2">  1       -1 0.35482804E-01 0.20417437E+03</pdfrwt>
<totfact> 0.25881820E+02</totfact>
</mgrwt>
</event>
<event>
 8    1  0.3629925E-004  0.1485624E+03  0.7546771E-02  0.1211389E+00
          1   -1    0    0  501    0  0.00000000000E+00  0.00000000000E+00  0.65383159806E+03  0.65383159806E+03  0.00000000000E+00 0. -1.
         -1   -1    0    0    0  501 -0.00000000000E+00 -0.00000000000E+00 -0.30466476787E+02  0.30466476787E+02  0.00000000000E+00 0.  1.
         25    2    1    2    0    0 -0.28001835218E+02  0.75287182840E+02  0.43642614597E+03  0.46101904736E+03  0.12497407118E+03 0.  0.
         23    2    1    2    0    0  0.28001835218E+02 -0.75287182840E+02  0.18693897530E+03  0.22327902749E+03  0.91951514142E+02 0.  0.
          5    1    3    3  502    0  0.36457052798E+02 -0.12147455878E+02  0.14106749982E+03  0.14628331036E+03  0.47000000000E+01 0. -1.
         -5    1    4    4    0  503 -0.24807391771E+02 -0.29509575660E+02  0.23329044326E+02  0.45305143761E+02  0.47000000000E+01 0.  1.
          5    1    4    4  503    0  0.52809226989E+02 -0.45777607180E+02  0.16360993098E+03  0.17797388373E+03  0.47000000000E+01 0. -1.
         -5    1    3    3    0  502 -0.64458888016E+02  0.87434638717E+02  0.29535864615E+03  0.31473573700E+03  0.47000000000E+01 0. -1.
<mgrwt>
<rscale>  0 0.14145121E+03</rscale>
<asrwt>0</asrwt>
<pdfrwt beam="1">  1        1 0.10058947E+00 0.14856238E+03</pdfrwt>
<pdfrwt beam="2">  1       -1 0.46871508E-02 0.14856238E+03</pdfrwt>
<totfact> 0.58577530E+03</totfact>
</mgrwt>
</event>
<event>
 8    1  0.3629925E-004  0.3876413E+03  0.7546771E-02  0.1049134E+00
          1   -1    0    0  501    0  0.00000000000E+00  0.00000000000E+00  0.10656214471E+04  0.10656214471E+04  0.00000000000E+00 0. -1.
         -1   -1    0    0    0  501 -0.00000000000E+00 -0.00000000000E+00 -0.14806122146E+03  0.14806122146E+03  0.00000000000E+00 0.  1.
         25    2    1    2    0    0  0.34581744380E+03 -0.12266290924E+03  0.62984947088E+03  0.73957835264E+03  0.12501955842E+03 0.  0.
         23    2    1    2    0    0 -0.34581744380E+03  0.12266290924E+03  0.28771075479E+03  0.47410431596E+03  0.85799360407E+02 0.  0.
          5    1    3    3  502    0  0.13746276113E+02 -0.14601345804E+02  0.14466372615E+01  0.20648054766E+02  0.47000000000E+01 0.  1.
         -5    1    4    4    0  503 -0.14358374723E+02  0.22621208888E+02  0.63257086080E+01  0.27928240288E+02  0.47000000000E+01 0.  1.
          5    1    4    4  503    0 -0.33145906908E+03  0.10004170036E+03  0.28138504618E+03  0.44617607567E+03  0.47000000000E+01 0. -1.
         -5    1    3    3    0  502  0.33207116769E+03 -0.10806156344E+03  0.62840283362E+03  0.71893029788E+03  0.47000000000E+01 0.  1.
<mgrwt>
<rscale>  0 0.38490858E+03</rscale>
<asrwt>0</asrwt>
<pdfrwt beam="1">  1        1 0.16394176E+00 0.38764131E+03</pdfrwt>
<pdfrwt beam="2">  1       -1 0.22778650E-01 0.38764131E+03</pdfrwt>
<totfact> 0.23079921E+02</totfact>
</mgrwt>
</event>
<event>
 8    1  0.3629925E-004  0.1368459E+03  0.7546771E-02  0.1229375E+00
         -2   -1    0    0    0  501 -0.00000000000E+00  0.00000000000E+00  0.10473313693E+02  0.10473313693E+02  0.00000000000E+00 0.  1.
          2   -1    0    0  501    0  0.00000000000E+00 -0.00000000000E+00 -0.14669368586E+04  0.14669368586E+04  0.00000000000E+00 0. -1.
         25    2    1    2    0    0 -0.18355165189E+02 -0.52588538763E+02 -0.68386523349E+03  0.69742273165E+03  0.12499737015E+03 0.  0.
         23    2    1    2    0    0  0.18355165189E+02  0.52588538763E+02 -0.77259831137E+03  0.77998744060E+03  0.91486557810E+02 0.  0.
          5    1    3    3  502    0 -0.55734277571E+02 -0.68728604303E+02 -0.55961962008E+03  0.56659168713E+03  0.47000000000E+01 0.  1.
         -5    1    3    3    0  502  0.37379112383E+02  0.16140065540E+02 -0.12424561341E+03  0.13083104452E+03  0.47000000000E+01 0.  1.
          5    1    4    4  503    0  0.20220748319E+02 -0.22068925892E+02 -0.29657785879E+03  0.29812150623E+03  0.47000000000E+01 0. -1.
         -5    1    4    4    0  503 -0.18655831307E+01  0.74657464655E+02 -0.47602045258E+03  0.48186593437E+03  0.47000000000E+01 0.  1.
<mgrwt>
<rscale>  0 0.12871526E+03</rscale>
<asrwt>0</asrwt>
<pdfrwt beam="1">  1        2 0.22568239E+00 0.13684593E+03</pdfrwt>
<pdfrwt beam="2">  1       -2 0.16112805E-02 0.13684593E+03</pdfrwt>
<totfact> 0.14633070E+04</totfact>
</mgrwt>
</event>
<event>
 8    1  0.3629925E-004  0.1258274E+03  0.7546771E-02  0.1248742E+00
         -2   -1    0    0    0  501 -0.00000000000E+00  0.00000000000E+00  0.21497096379E+02  0.21497096379E+02  0.00000000000E+00 0.  1.
          2   -1    0    0  501    0  0.00000000000E+00 -0.00000000000E+00 -0.55842590665E+03  0.55842590665E+03  0.00000000000E+00 0. -1.
         25    2    1    2    0    0  0.11033207626E+02 -0.92559457834E+01 -0.29167357679E+03  0.31765707211E+03  0.12500054346E+03 0.  0.
         23    2    1    2    0    0 -0.11033207626E+02  0.92559457834E+01 -0.24525523349E+03  0.26226593092E+03  0.91792618240E+02 0.  0.
          5    1    4    4  502    0  0.11325474950E+02 -0.34866042367E+02 -0.15387091271E+03  0.15824744886E+03  0.47000000000E+01 0. -1.
         -5    1    3    3    0  503 -0.32092653840E+02  0.24020563670E+02 -0.23672793250E+03  0.24014397752E+03  0.47000000000E+01 0. -1.
          5    1    3    3  503    0  0.43125861467E+02 -0.33276509454E+02 -0.54945644281E+02  0.77513094597E+02  0.47000000000E+01 0. -1.
         -5    1    4    4    0  502 -0.22358682576E+02  0.44121988150E+02 -0.91384320781E+02  0.10401848206E+03  0.47000000000E+01 0.  1.
<mgrwt>
<rscale>  0 0.11664161E+03</rscale>
<asrwt>0</asrwt>
<pdfrwt beam="1">  1        2 0.85911673E-01 0.12582742E+03</pdfrwt>
<pdfrwt beam="2">  1       -2 0.33072458E-02 0.12582742E+03</pdfrwt>
<totfact> 0.18819506E+04</totfact>
</mgrwt>
</event>
<event>
 8    1  0.3629925E-004  0.1386115E+03  0.7546771E-02  0.1226575E+00
         -1   -1    0    0    0  501 -0.00000000000E+00  0.00000000000E+00  0.27019623239E+03  0.27019623239E+03  0.00000000000E+00 0.  1.
          1   -1    0    0  501    0  0.00000000000E+00 -0.00000000000E+00 -0.56840743276E+02  0.56840743276E+02  0.00000000000E+00 0. -1.
         25    2    1    2    0    0 -0.59812487856E+02 -0.33920473931E+01  0.11718265747E+03  0.18150739968E+03  0.12499648490E+03 0.  0.
         23    2    1    2    0    0  0.59812487856E+02  0.33920473931E+01  0.96172831642E+02  0.14552957599E+03  0.91326908693E+02 0.  0.
          5    1    4    4  502    0  0.29214982877E+02 -0.19281606774E+02 -0.65082472831E+01  0.35912990227E+02  0.47000000000E+01 0. -1.
         -5    1    4    4    0  502  0.30597504978E+02  0.22673654167E+02  0.10268107892E+03  0.10961658576E+03  0.47000000000E+01 0.  1.
          5    1    3    3  503    0  0.29977462179E+01  0.52309206477E+02  0.60144546469E+02  0.79904292968E+02  0.47000000000E+01 0.  1.
         -5    1    3    3    0  503 -0.62810234074E+02 -0.55701253870E+02  0.57038111002E+02  0.10160310671E+03  0.47000000000E+01 0.  1.
<mgrwt>
<rscale>  0 0.13059543E+03</rscale>
<asrwt>0</asrwt>
<pdfrwt beam="1">  1        1 0.87447299E-02 0.13861155E+03</pdfrwt>
<pdfrwt beam="2">  1       -1 0.41568650E-01 0.13861155E+03</pdfrwt>
<totfact> 0.42515141E+03</totfact>
</mgrwt>
</event>
<event>
 8    1  0.3629925E-004  0.1345950E+03  0.7546771E-02  0.1233945E+00
          1   -1    0    0  501    0  0.00000000000E+00  0.00000000000E+00  0.78157699567E+03  0.78157699567E+03  0.00000000000E+00 0. -1.
         -1   -1    0    0    0  501 -0.00000000000E+00 -0.00000000000E+00 -0.20261641945E+02  0.20261641945E+02  0.00000000000E+00 0.  1.
         25    2    1    2    0    0  0.26898300992E+02  0.42048682770E+02  0.29285646450E+03  0.32230531854E+03  0.12499679693E+03 0.  0.
         23    2    1    2    0    0 -0.26898300992E+02 -0.42048682770E+02  0.46845888923E+03  0.47953331908E+03  0.89481075583E+02 0.  0.
          5    1    4    4  502    0 -0.44860563450E+02 -0.28614635674E+02  0.43886220346E+03  0.44210110965E+03  0.47000000000E+01 0. -1.
         -5    1    3    3    0  503  0.45172833729E+02  0.73528687621E+02  0.25640206722E+03  0.27057561399E+03  0.47000000000E+01 0. -1.
          5    1    3    3  503    0 -0.18274532737E+02 -0.31480004851E+02  0.36454397278E+02  0.51729704552E+02  0.47000000000E+01 0. -1.
         -5    1    4    4    0  502  0.17962262459E+02 -0.13434047096E+02  0.29596685769E+02  0.37432209426E+02  0.47000000000E+01 0.  1.
<mgrwt>
<rscale>  0 0.12572233E+03</rscale>
<asrwt>0</asrwt>
<pdfrwt beam="1">  1        1 0.12024259E+00 0.13459498E+03</pdfrwt>
<pdfrwt beam="2">  1       -1 0.31171763E-02 0.13459498E+03</pdfrwt>
<totfact> 0.81956589E+03</totfact>
</mgrwt>
</event>
<event>
 8    1  0.3629925E-004  0.2296633E+03  0.7546771E-02  0.1129857E+00
         -2   -1    0    0    0  501 -0.00000000000E+00  0.00000000000E+00  0.91003069338E+02  0.91003069338E+02  0.00000000000E+00 0. -1.
          2   -1    0    0  501    0  0.00000000000E+00 -0.00000000000E+00 -0.55301830551E+03  0.55301830551E+03  0.00000000000E+00 0.  1.
         25    2    1    2    0    0  0.84086162832E+02 -0.17334444195E+03 -0.28996020797E+03  0.36989480288E+03  0.12500585849E+03 0.  0.
         23    2    1    2    0    0 -0.84086162832E+02  0.17334444195E+03 -0.17205502820E+03  0.27412657197E+03  0.91780533865E+02 0.  0.
          5    1    4    4  502    0 -0.10219217636E+03  0.14900234585E+03 -0.13275043216E+03  0.22425366712E+03  0.47000000000E+01 0. -1.
         -5    1    4    4    0  502  0.18106013526E+02  0.24342096092E+02 -0.39304596038E+02  0.49872904845E+02  0.47000000000E+01 0.  1.
          5    1    3    3  503    0 -0.99016167062E+01 -0.41514742106E+02 -0.65063116178E+01  0.43427386709E+02  0.47000000000E+01 0.  1.
         -5    1    3    3    0  503  0.93987779538E+02 -0.13182969984E+03 -0.28345389635E+03  0.32646741617E+03  0.47000000000E+01 0. -1.
<mgrwt>
<rscale>  0 0.22548662E+03</rscale>
<asrwt>0</asrwt>
<pdfrwt beam="1">  1        2 0.85079739E-01 0.22966333E+03</pdfrwt>
<pdfrwt beam="2">  1       -2 0.14000472E-01 0.22966333E+03</pdfrwt>
<totfact> 0.21188313E+03</totfact>
</mgrwt>
</event>
<event>
 8    1  0.3629925E-004  0.1400222E+03  0.7546771E-02  0.1221368E+00
          2   -1    0    0  501    0  0.00000000000E+00  0.00000000000E+00  0.88735353823E+03  0.88735353823E+03  0.00000000000E+00 0. -1.
         -2   -1    0    0    0  501 -0.00000000000E+00 -0.00000000000E+00 -0.18785510154E+02  0.18785510154E+02  0.00000000000E+00 0.  1.
         25    2    1    2    0    0 -0.48214347747E+02  0.40665657138E+02  0.48289841965E+03  0.50278932178E+03  0.12501159704E+03 0.  0.
         23    2    1    2    0    0  0.48214347747E+02 -0.40665657138E+02  0.38566960843E+03  0.40334972661E+03  0.99858079747E+02 0.  0.
          5    1    3    3  502    0 -0.87928441853E+02  0.29688699356E+02  0.26099038125E+03  0.27703952581E+03  0.47000000000E+01 0. -1.
         -5    1    4    4    0  503 -0.24183559645E+02 -0.12806767574E+02  0.37782458975E+02  0.46887760226E+02  0.47000000000E+01 0.  1.
          5    1    4    4  503    0  0.72397907392E+02 -0.27858889564E+02  0.34788714945E+03  0.35646196638E+03  0.47000000000E+01 0. -1.
         -5    1    3    3    0  502  0.39714094107E+02  0.10976957782E+02  0.22190803840E+03  0.22574979597E+03  0.47000000000E+01 0. -1.
<mgrwt>
<rscale>  0 0.13418973E+03</rscale>
<asrwt>0</asrwt>
<pdfrwt beam="1">  1        2 0.13651590E+00 0.14002221E+03</pdfrwt>
<pdfrwt beam="2">  1       -2 0.28900792E-02 0.14002221E+03</pdfrwt>
<totfact> 0.13301691E+04</totfact>
</mgrwt>
</event>
<event>
 8    1  0.3629925E-004  0.1258007E+03  0.7546771E-02  0.1248342E+00
          1   -1    0    0  501    0  0.00000000000E+00  0.00000000000E+00  0.70133756078E+03  0.70133756078E+03  0.00000000000E+00 0. -1.
         -1   -1    0    0    0  501 -0.00000000000E+00 -0.00000000000E+00 -0.18104203767E+02  0.18104203767E+02  0.00000000000E+00 0.  1.
         25    2    1    2    0    0  0.13173388244E+02 -0.55065526781E+01  0.30845155120E+03  0.33311884319E+03  0.12498777530E+03 0.  0.
         23    2    1    2    0    0 -0.13173388244E+02  0.55065526781E+01  0.37478180582E+03  0.38632292136E+03  0.92629030613E+02 0.  0.
          5    1    3    3  502    0 -0.12101857946E+02 -0.59815516617E+02  0.19972838796E+03  0.20889679258E+03  0.47000000000E+01 0. -1.
         -5    1    4    4    0  503  0.90748170171E+01 -0.31293531721E+02  0.58753004917E+02  0.67347182705E+02  0.47000000000E+01 0.  1.
          5    1    4    4  503    0 -0.22248205261E+02  0.36800084399E+02  0.31602880090E+03  0.31897573865E+03  0.47000000000E+01 0. -1.
         -5    1    3    3    0  502  0.25275246190E+02  0.54308963939E+02  0.10872316324E+03  0.12422205061E+03  0.47000000000E+01 0. -1.
<mgrwt>
<rscale>  0 0.11687556E+03</rscale>
<asrwt>0</asrwt>
<pdfrwt beam="1">  1        1 0.10789807E+00 0.12580065E+03</pdfrwt>
<pdfrwt beam="2">  1       -1 0.27852627E-02 0.12580065E+03</pdfrwt>
<totfact> 0.11254911E+04</totfact>
</mgrwt>
</event>
<event>
 8    1  0.3629925E-004  0.1784153E+03  0.7546771E-02  0.1175304E+00
         -2   -1    0    0    0  501 -0.00000000000E+00  0.00000000000E+00  0.19780425005E+03  0.19780425005E+03  0.00000000000E+00 0. -1.
          2   -1    0    0  501    0  0.00000000000E+00 -0.00000000000E+00 -0.16587803180E+03  0.16587803180E+03  0.00000000000E+00 0.  1.
         25    2    1    2    0    0 -0.12679941656E+03 -0.11491814235E+02 -0.53191322501E+02  0.18617551700E+03  0.12498740939E+03 0.  0.
         23    2    1    2    0    0  0.12679941656E+03  0.11491814235E+02  0.85117540744E+02  0.17750676485E+03  0.89741305942E+02 0.  0.
          5    1    3    3  502    0 -0.95450565947E+02 -0.65447060744E+02 -0.35417486580E+02  0.12112232104E+03  0.47000000000E+01 0. -1.
         -5    1    3    3    0  502 -0.31348850609E+02  0.53955246508E+02 -0.17773835921E+02  0.65053195953E+02  0.47000000000E+01 0. -1.
          5    1    4    4  503    0  0.44636714699E+02 -0.73698482121E+01  0.81095487764E+02  0.92980208095E+02  0.47000000000E+01 0. -1.
         -5    1    4    4    0  503  0.82162701858E+02  0.18861662447E+02  0.40220529799E+01  0.84526556756E+02  0.47000000000E+01 0.  1.
<mgrwt>
<rscale>  0 0.17246205E+03</rscale>
<asrwt>0</asrwt>
<pdfrwt beam="1">  1        2 0.25519697E-01 0.17841526E+03</pdfrwt>
<pdfrwt beam="2">  1       -2 0.30431423E-01 0.17841526E+03</pdfrwt>
<totfact> 0.20579984E+03</totfact>
</mgrwt>
</event>
<event>
 8    1  0.3629925E-004  0.1335814E+03  0.7546771E-02  0.1233260E+00
          3   -1    0    0  501    0  0.00000000000E+00  0.00000000000E+00  0.21975980840E+02  0.21975980840E+02  0.00000000000E+00 0. -1.
         -3   -1    0    0    0  501 -0.00000000000E+00 -0.00000000000E+00 -0.66367999491E+03  0.66367999491E+03  0.00000000000E+00 0.  1.
         25    2    1    2    0    0  0.44124216628E+02 -0.16482647479E+02 -0.31697905691E+03  0.34397632061E+03  0.12500144985E+03 0.  0.
         23    2    1    2    0    0 -0.44124216628E+02  0.16482647479E+02 -0.32472495716E+03  0.34167965514E+03  0.95289373849E+02 0.  0.
          5    1    3    3  502    0  0.26415878473E+02 -0.69421671133E+02 -0.14312421847E+03  0.16131893556E+03  0.47000000000E+01 0. -1.
         -5    1    4    4    0  503 -0.52311354654E+02 -0.23609996891E+02 -0.24800029365E+03  0.25459800752E+03  0.47000000000E+01 0.  1.
          5    1    4    4  503    0  0.81871380252E+01  0.40092644370E+02 -0.76724663511E+02  0.87081647621E+02  0.47000000000E+01 0. -1.
         -5    1    3    3    0  502  0.17708338155E+02  0.52939023654E+02 -0.17385483844E+03  0.18265738505E+03  0.47000000000E+01 0. -1.
<mgrwt>
<rscale>  0 0.12616473E+03</rscale>
<asrwt>0</asrwt>
<pdfrwt beam="1">  1        3 0.33809204E-02 0.13358139E+03</pdfrwt>
<pdfrwt beam="2">  1       -3 0.10210461E+00 0.13358139E+03</pdfrwt>
<totfact> 0.84122013E+02</totfact>
</mgrwt>
</event>
<event>
 8    1  0.3629925E-004  0.1585612E+03  0.7546771E-02  0.1197134E+00
          1   -1    0    0  501    0  0.00000000000E+00  0.00000000000E+00  0.15465877371E+03  0.15465877371E+03  0.00000000000E+00 0. -1.
         -1   -1    0    0    0  501 -0.00000000000E+00 -0.00000000000E+00 -0.17442464911E+03  0.17442464911E+03  0.00000000000E+00 0.  1.
         25    2    1    2    0    0 -0.18034711491E+02 -0.95868526469E+02  0.61613731178E+02  0.17011142167E+03  0.12500247488E+03 0.  0.
         23    2    1    2    0    0  0.18034711491E+02  0.95868526469E+02 -0.81379606584E+02  0.15897200115E+03  0.95568988672E+02 0.  0.
          5    1    4    4  502    0  0.54970342212E+02  0.39718406161E+02 -0.51422128367E+02  0.85238580447E+02  0.47000000000E+01 0. -1.
         -5    1    3    3    0  503  0.35004048811E+02 -0.83229647891E+02  0.70522993039E+02  0.11466490426E+03  0.47000000000E+01 0.  1.
          5    1    3    3  503    0 -0.53038760302E+02 -0.12638878578E+02 -0.89092618611E+01  0.55446517411E+02  0.47000000000E+01 0.  1.
         -5    1    4    4    0  502 -0.36935630721E+02  0.56150120308E+02 -0.29957478217E+02  0.73733420702E+02  0.47000000000E+01 0.  1.
<mgrwt>
<rscale>  0 0.15274989E+03</rscale>
<asrwt>0</asrwt>
<pdfrwt beam="1">  1        1 0.23793658E-01 0.15856117E+03</pdfrwt>
<pdfrwt beam="2">  1       -1 0.26834561E-01 0.15856117E+03</pdfrwt>
<totfact> 0.24618415E+03</totfact>
</mgrwt>
</event>
<event>
 8    1  0.3629925E-004  0.1715659E+03  0.7546771E-02  0.1182373E+00
          2   -1    0    0  501    0  0.00000000000E+00  0.00000000000E+00  0.64869887459E+03  0.64869887459E+03  0.00000000000E+00 0. -1.
         -2   -1    0    0    0  501 -0.00000000000E+00 -0.00000000000E+00 -0.41754938334E+02  0.41754938334E+02  0.00000000000E+00 0.  1.
         25    2    1    2    0    0  0.10973964085E+02  0.11700140858E+03  0.39980709808E+03  0.43506389092E+03  0.12500046406E+03 0.  0.
         23    2    1    2    0    0 -0.10973964085E+02 -0.11700140858E+03  0.20713683818E+03  0.25538992200E+03  0.92241991698E+02 0.  0.
          5    1    4    4  502    0 -0.51523451067E+02 -0.60075519842E+02  0.11360115444E+03  0.13853175226E+03  0.47000000000E+01 0. -1.
         -5    1    3    3    0  503  0.53715574351E+02  0.10770625953E+03  0.34082320647E+03  0.36148104976E+03  0.47000000000E+01 0. -1.
          5    1    3    3  503    0 -0.42741610266E+02  0.92951490433E+01  0.58983891607E+02  0.73582841159E+02  0.47000000000E+01 0. -1.
         -5    1    4    4    0  502  0.40549486982E+02 -0.56925888734E+02  0.93535683744E+02  0.11685816974E+03  0.47000000000E+01 0.  1.
<mgrwt>
<rscale>  0 0.16573188E+03</rscale>
<asrwt>0</asrwt>
<pdfrwt beam="1">  1        2 0.99799820E-01 0.17156595E+03</pdfrwt>
<pdfrwt beam="2">  1       -2 0.64238371E-02 0.17156595E+03</pdfrwt>
<totfact> 0.59805027E+03</totfact>
</mgrwt>
</event>
<event>
 8    1  0.3629925E-004  0.1252562E+03  0.7546771E-02  0.1249881E+00
          2   -1    0    0  501    0  0.00000000000E+00  0.00000000000E+00  0.63824293096E+02  0.63824293096E+02  0.00000000000E+00 0. -1.
         -2   -1    0    0    0  501 -0.00000000000E+00 -0.00000000000E+00 -0.23743552426E+03  0.23743552426E+03  0.00000000000E+00 0.  1.
         25    2    1    2    0    0 -0.72938032082E+01 -0.30972861010E+01 -0.26996975540E+02  0.12813251502E+03  0.12500524778E+03 0.  0.
         23    2    1    2    0    0  0.72938032082E+01  0.30972861010E+01 -0.14661425562E+03  0.17312730233E+03  0.91730747924E+02 0.  0.
          5    1    3    3  502    0  0.47788387287E+02 -0.20691767279E+02 -0.43280259145E+02  0.67875990043E+02  0.47000000000E+01 0.  1.
         -5    1    4    4    0  503  0.25935393411E+02 -0.29761202475E+02 -0.12069049695E+03  0.12706950798E+03  0.47000000000E+01 0.  1.
          5    1    4    4  503    0 -0.18641590203E+02  0.32858488576E+02 -0.25923758669E+02  0.46057794350E+02  0.47000000000E+01 0. -1.
         -5    1    3    3    0  502 -0.55082190496E+02  0.17594481178E+02  0.16283283604E+02  0.60256524980E+02  0.47000000000E+01 0.  1.
<mgrwt>
<rscale>  0 0.11597961E+03</rscale>
<asrwt>0</asrwt>
<pdfrwt beam="1">  1        2 0.98191221E-02 0.12525616E+03</pdfrwt>
<pdfrwt beam="2">  1       -2 0.36528542E-01 0.12525616E+03</pdfrwt>
<totfact> 0.44031654E+03</totfact>
</mgrwt>
</event>
<event>
 8    1  0.3629925E-004  0.1265558E+03  0.7546771E-02  0.1249521E+00
         -1   -1    0    0    0  501 -0.00000000000E+00  0.00000000000E+00  0.32034758643E+03  0.32034758643E+03  0.00000000000E+00 0.  1.
          1   -1    0    0  501    0  0.00000000000E+00 -0.00000000000E+00 -0.43197457413E+02  0.43197457413E+02  0.00000000000E+00 0. -1.
         25    2    1    2    0    0  0.18318313275E+02 -0.74899328803E+01  0.22877871151E+03  0.26144994928E+03  0.12499886976E+03 0.  0.
         23    2    1    2    0    0 -0.18318313275E+02  0.74899328803E+01  0.48371417508E+02  0.10209509456E+03  0.87703789009E+02 0.  0.
          5    1    3    3  502    0  0.33363286458E+02 -0.37898153404E+02  0.28311004953E+02  0.58077378696E+02  0.47000000000E+01 0. -1.
         -5    1    4    4    0  503 -0.35239324649E+02 -0.24316132139E+02  0.49664332894E+02  0.65739791951E+02  0.47000000000E+01 0.  1.
          5    1    4    4  503    0  0.16921011373E+02  0.31806065020E+02 -0.12929153863E+01  0.36355302614E+02  0.47000000000E+01 0. -1.
         -5    1    3    3    0  502 -0.15044973183E+02  0.30408220524E+02  0.20046770656E+03  0.20337257059E+03  0.47000000000E+01 0. -1.
<mgrwt>
<rscale>  0 0.11618828E+03</rscale>
<asrwt>0</asrwt>
<pdfrwt beam="1">  1        1 0.66457629E-02 0.12655583E+03</pdfrwt>
<pdfrwt beam="2">  1       -1 0.49284243E-01 0.12655583E+03</pdfrwt>
<totfact> 0.45049997E+03</totfact>
</mgrwt>
</event>
<event>
 8    1  0.3629925E-004  0.1496676E+03  0.7546771E-02  0.1210653E+00
          2   -1    0    0  501    0  0.00000000000E+00  0.00000000000E+00  0.11661942144E+04  0.11661942144E+04  0.00000000000E+00 0. -1.
         -2   -1    0    0    0  501 -0.00000000000E+00 -0.00000000000E+00 -0.15914989804E+02  0.15914989804E+02  0.00000000000E+00 0.  1.
         25    2    1    2    0    0  0.60928440727E+02  0.55360623425E+02  0.57306527476E+03  0.59228724976E+03  0.12499321411E+03 0.  0.
         23    2    1    2    0    0 -0.60928440727E+02 -0.55360623425E+02  0.57721394981E+03  0.58982195442E+03  0.89089396367E+02 0.  0.
          5    1    4    4  502    0 -0.74705169572E+02 -0.26245503841E+02  0.49641955759E+03  0.50271677513E+03  0.47000000000E+01 0. -1.
         -5    1    4    4    0  502  0.13776728845E+02 -0.29115119584E+02  0.80794392218E+02  0.87105179294E+02  0.47000000000E+01 0.  1.
          5    1    3    3  503    0  0.39915529602E+02  0.66402582032E+02  0.55886654819E+03  0.56423085797E+03  0.47000000000E+01 0. -1.
         -5    1    3    3    0  503  0.21012911125E+02 -0.11041958607E+02  0.14198726573E+02  0.28056391787E+02  0.47000000000E+01 0. -1.
<mgrwt>
<rscale>  0 0.14200776E+03</rscale>
<asrwt>0</asrwt>
<pdfrwt beam="1">  1        2 0.17941443E+00 0.14966756E+03</pdfrwt>
<pdfrwt beam="2">  1       -2 0.24484609E-02 0.14966756E+03</pdfrwt>
<totfact> 0.11628812E+04</totfact>
</mgrwt>
</event>
<event>
 8    1  0.3629925E-004  0.2046480E+03  0.7546771E-02  0.1149635E+00
          2   -1    0    0  501    0  0.00000000000E+00  0.00000000000E+00  0.15855950223E+03  0.15855950223E+03  0.00000000000E+00 0. -1.
         -2   -1    0    0    0  501 -0.00000000000E+00 -0.00000000000E+00 -0.35031935996E+03  0.35031935996E+03  0.00000000000E+00 0.  1.
         25    2    1    2    0    0  0.16184739324E+03  0.77646894406E+01  0.42533987608E+02  0.20902138379E+03  0.12500371866E+03 0.  0.
         23    2    1    2    0    0 -0.16184739324E+03 -0.77646894406E+01 -0.23429384533E+03  0.29985747840E+03  0.93627091661E+02 0.  0.
          5    1    4    4  502    0 -0.66236387573E+02 -0.11906040717E+02 -0.29248130254E+02  0.73529286462E+02  0.47000000000E+01 0. -1.
         -5    1    4    4    0  502 -0.95611005664E+02  0.41413512765E+01 -0.20504571508E+03  0.22632819194E+03  0.47000000000E+01 0.  1.
          5    1    3    3  503    0  0.11013933285E+03 -0.52397284705E+02  0.43409741993E+02  0.12954784361E+03  0.47000000000E+01 0.  1.
         -5    1    3    3    0  503  0.51708060388E+02  0.60161974146E+02 -0.87575438498E+00  0.79473540175E+02  0.47000000000E+01 0.  1.
<mgrwt>
<rscale>  0 0.20012278E+03</rscale>
<asrwt>0</asrwt>
<pdfrwt beam="1">  1        2 0.24393770E-01 0.20464799E+03</pdfrwt>
<pdfrwt beam="2">  1       -2 0.53895286E-01 0.20464799E+03</pdfrwt>
<totfact> 0.72804456E+02</totfact>
</mgrwt>
</event>
<event>
 8    1  0.3629925E-004  0.1459107E+03  0.7546771E-02  0.1214162E+00
          2   -1    0    0  501    0  0.00000000000E+00  0.00000000000E+00  0.26583277145E+03  0.26583277145E+03  0.00000000000E+00 0. -1.
         -2   -1    0    0    0  501 -0.00000000000E+00 -0.00000000000E+00 -0.10653272393E+03  0.10653272393E+03  0.00000000000E+00 0.  1.
         25    2    1    2    0    0 -0.36854101026E+02  0.65628695719E+02  0.19700124957E+03  0.24515184727E+03  0.12499834168E+03 0.  0.
         23    2    1    2    0    0  0.36854101026E+02 -0.65628695719E+02 -0.37701202052E+02  0.12721364812E+03  0.95375998904E+02 0.  0.
          5    1    4    4  502    0 -0.24381150340E+01 -0.33159230577E+02  0.28142747179E+02  0.43813048240E+02  0.47000000000E+01 0. -1.
         -5    1    3    3    0  503  0.79578219193E+01 -0.23437949692E+02  0.10966535808E+03  0.11252219860E+03  0.47000000000E+01 0. -1.
          5    1    3    3  503    0 -0.44811922945E+02  0.89066645411E+02  0.87335891484E+02  0.13262964866E+03  0.47000000000E+01 0. -1.
         -5    1    4    4    0  502  0.39292216060E+02 -0.32469465142E+02 -0.65843949231E+02  0.83400599877E+02  0.47000000000E+01 0.  1.
<mgrwt>
<rscale>  0 0.13938251E+03</rscale>
<asrwt>0</asrwt>
<pdfrwt beam="1">  1        2 0.40897349E-01 0.14591071E+03</pdfrwt>
<pdfrwt beam="2">  1       -2 0.16389650E-01 0.14591071E+03</pdfrwt>
<totfact> 0.35630387E+03</totfact>
</mgrwt>
</event>
<event>
 8    1  0.3629925E-004  0.1699147E+03  0.7546771E-02  0.1184224E+00
          2   -1    0    0  501    0  0.00000000000E+00  0.00000000000E+00  0.45497929386E+03  0.45497929386E+03  0.00000000000E+00 0. -1.
         -2   -1    0    0    0  501 -0.00000000000E+00 -0.00000000000E+00 -0.55417031563E+02  0.55417031563E+02  0.00000000000E+00 0.  1.
         25    2    1    2    0    0 -0.11355487878E+03 -0.18740528760E+02  0.22023109836E+03  0.27815954478E+03  0.12500031102E+03 0.  0.
         23    2    1    2    0    0  0.11355487878E+03  0.18740528760E+02  0.17933116393E+03  0.23223678064E+03  0.92349001133E+02 0.  0.
          5    1    4    4  502    0  0.67247593988E+02 -0.35431458457E+01  0.16560980418E+03  0.17883928545E+03  0.47000000000E+01 0. -1.
         -5    1    3    3    0  503 -0.71131353598E+02  0.23321614662E+02  0.33678915602E+02  0.82218772378E+02  0.47000000000E+01 0.  1.
          5    1    3    3  503    0 -0.42423525185E+02 -0.42062143422E+02  0.18655218276E+03  0.19594077241E+03  0.47000000000E+01 0.  1.
         -5    1    4    4    0  502  0.46307284795E+02  0.22283674606E+02  0.13721359753E+02  0.53397495189E+02  0.47000000000E+01 0.  1.
<mgrwt>
<rscale>  0 0.16402728E+03</rscale>
<asrwt>0</asrwt>
<pdfrwt beam="1">  1        2 0.69996812E-01 0.16991467E+03</pdfrwt>
<pdfrwt beam="2">  1       -2 0.85256975E-02 0.16991467E+03</pdfrwt>
<totfact> 0.57562637E+03</totfact>
</mgrwt>
</event>
<event>
 8    1  0.3629925E-004  0.1448566E+03  0.7546771E-02  0.1217030E+00
          1   -1    0    0  501    0  0.00000000000E+00  0.00000000000E+00  0.61270821031E+02  0.61270821031E+02  0.00000000000E+00 0. -1.
         -1   -1    0    0    0  501 -0.00000000000E+00 -0.00000000000E+00 -0.29048400323E+03  0.29048400323E+03  0.00000000000E+00 0.  1.
         25    2    1    2    0    0 -0.70498413908E+02 -0.19667533675E+02 -0.16044154287E+03  0.21615946727E+03  0.12500635332E+03 0.  0.
         23    2    1    2    0    0  0.70498413908E+02  0.19667533675E+02 -0.68771639327E+02  0.13559535698E+03  0.91102822214E+02 0.  0.
          5    1    4    4  502    0  0.68269619964E+02 -0.15963748614E+02 -0.16598655410E+02  0.72202407448E+02  0.47000000000E+01 0. -1.
         -5    1    4    4    0  502  0.22287939431E+01  0.35631282288E+02 -0.52172983916E+02  0.63392949535E+02  0.47000000000E+01 0.  1.
          5    1    3    3  503    0  0.72365616517E+01 -0.32983057401E+02  0.34012007964E+01  0.34262341819E+02  0.47000000000E+01 0.  1.
         -5    1    3    3    0  503 -0.77734975559E+02  0.13315523726E+02 -0.16384274367E+03  0.18189712546E+03  0.47000000000E+01 0.  1.
<mgrwt>
<rscale>  0 0.13728444E+03</rscale>
<asrwt>0</asrwt>
<pdfrwt beam="1">  1        1 0.94262800E-02 0.14485657E+03</pdfrwt>
<pdfrwt beam="2">  1       -1 0.44689847E-01 0.14485657E+03</pdfrwt>
<totfact> 0.33905378E+03</totfact>
</mgrwt>
</event>
<event>
 8    1  0.3629925E-004  0.2639844E+03  0.7546771E-02  0.1106874E+00
          1   -1    0    0  501    0  0.00000000000E+00  0.00000000000E+00  0.67467205475E+03  0.67467205475E+03  0.00000000000E+00 0. -1.
         -1   -1    0    0    0  501 -0.00000000000E+00 -0.00000000000E+00 -0.10650694184E+03  0.10650694184E+03  0.00000000000E+00 0.  1.
         25    2    1    2    0    0  0.19166997101E+03  0.13163242546E+03  0.40187284887E+03  0.48082172451E+03  0.12499308337E+03 0.  0.
         23    2    1    2    0    0 -0.19166997101E+03 -0.13163242546E+03  0.16629226405E+03  0.30035727208E+03  0.92178634153E+02 0.  0.
          5    1    4    4  502    0 -0.57903343940E+02 -0.70712522931E+02  0.10951005144E+03  0.14271509908E+03  0.47000000000E+01 0. -1.
         -5    1    3    3    0  503  0.13829879233E+03  0.24604331730E+02  0.17635886095E+03  0.22551378435E+03  0.47000000000E+01 0. -1.
          5    1    3    3  503    0  0.53371178680E+02  0.10702809373E+03  0.22551398792E+03  0.25530794016E+03  0.47000000000E+01 0. -1.
         -5    1    4    4    0  502 -0.13376662707E+03 -0.60919902524E+02  0.56782212603E+02  0.15764217300E+03  0.47000000000E+01 0.  1.
<mgrwt>
<rscale>  0 0.26044855E+03</rscale>
<asrwt>0</asrwt>
<pdfrwt beam="1">  1        1 0.10379570E+00 0.26398436E+03</pdfrwt>
<pdfrwt beam="2">  1       -1 0.16385684E-01 0.26398436E+03</pdfrwt>
<totfact> 0.83202547E+02</totfact>
</mgrwt>
</event>
<event>
 8    1  0.3629925E-004  0.1285270E+03  0.7546771E-02  0.1244828E+00
         -1   -1    0    0    0  501 -0.00000000000E+00  0.00000000000E+00  0.18940962008E+02  0.18940962008E+02  0.00000000000E+00 0.  1.
          1   -1    0    0  501    0  0.00000000000E+00 -0.00000000000E+00 -0.66832448396E+03  0.66832448396E+03  0.00000000000E+00 0. -1.
         25    2    1    2    0    0  0.25361304326E+02 -0.15616903301E+02 -0.42076653802E+03  0.43995870174E+03  0.12502838194E+03 0.  0.
         23    2    1    2    0    0 -0.25361304326E+02  0.15616903301E+02 -0.22861698393E+03  0.24730674423E+03  0.89486406644E+02 0.  0.
          5    1    3    3  502    0  0.22689425987E+02 -0.62690299254E+02 -0.13897170779E+03  0.15420800641E+03  0.47000000000E+01 0. -1.
         -5    1    3    3    0  502  0.26718783398E+01  0.47073395953E+02 -0.28179483023E+03  0.28575069533E+03  0.47000000000E+01 0. -1.
          5    1    4    4  503    0 -0.53950274065E+02 -0.10493366142E+02 -0.12702327000E+03  0.13848373163E+03  0.47000000000E+01 0. -1.
         -5    1    4    4    0  503  0.28588969739E+02  0.26110269442E+02 -0.10159371394E+03  0.10882301260E+03  0.47000000000E+01 0.  1.
<mgrwt>
<rscale>  0 0.11895654E+03</rscale>
<asrwt>0</asrwt>
<pdfrwt beam="1">  1        1 0.10281916E+00 0.12852696E+03</pdfrwt>
<pdfrwt beam="2">  1       -1 0.29139939E-02 0.12852696E+03</pdfrwt>
<totfact> 0.11301677E+04</totfact>
</mgrwt>
</event>
<event>
 8    1  0.3629925E-004  0.1531688E+03  0.7546771E-02  0.1204981E+00
          1   -1    0    0  501    0  0.00000000000E+00  0.00000000000E+00  0.45401469800E+03  0.45401469800E+03  0.00000000000E+00 0. -1.
         -1   -1    0    0    0  501 -0.00000000000E+00 -0.00000000000E+00 -0.48893029518E+02  0.48893029518E+02  0.00000000000E+00 0.  1.
         25    2    1    2    0    0  0.85119961329E+02  0.24295863818E+02  0.30226171413E+03  0.33885515481E+03  0.12499990118E+03 0.  0.
         23    2    1    2    0    0 -0.85119961329E+02 -0.24295863818E+02  0.10285995434E+03  0.16405257271E+03  0.92181232299E+02 0.  0.
          5    1    4    4  502    0 -0.31718846053E+02 -0.31492961799E+02  0.10029321864E+03  0.10990319169E+03  0.47000000000E+01 0. -1.
         -5    1    4    4    0  502 -0.53401115276E+02  0.71970979810E+01  0.25667357002E+01  0.54149381014E+02  0.47000000000E+01 0.  1.
          5    1    3    3  503    0  0.79034382371E+01  0.64955140340E+02  0.12170185037E+03  0.13825724204E+03  0.47000000000E+01 0. -1.
         -5    1    3    3    0  503  0.77216523092E+02 -0.40659276522E+02  0.18055986376E+03  0.20059791277E+03  0.47000000000E+01 0. -1.
<mgrwt>
<rscale>  0 0.14638992E+03</rscale>
<asrwt>0</asrwt>
<pdfrwt beam="1">  1        1 0.69848412E-01 0.15316877E+03</pdfrwt>
<pdfrwt beam="2">  1       -1 0.75220048E-02 0.15316877E+03</pdfrwt>
<totfact> 0.47141425E+03</totfact>
</mgrwt>
</event>
<event>
 8    1  0.3629925E-004  0.1693959E+03  0.7546771E-02  0.1184939E+00
         -1   -1    0    0    0  501 -0.00000000000E+00  0.00000000000E+00  0.97224302678E+03  0.97224302678E+03  0.00000000000E+00 0.  1.
          1   -1    0    0  501    0  0.00000000000E+00 -0.00000000000E+00 -0.30557054014E+02  0.30557054014E+02  0.00000000000E+00 0. -1.
         25    2    1    2    0    0 -0.11320227836E+03  0.15983638876E+02  0.29935212744E+03  0.34395738520E+03  0.12499901636E+03 0.  0.
         23    2    1    2    0    0  0.11320227836E+03 -0.15983638876E+02  0.64233384533E+03  0.65884269560E+03  0.91709847623E+02 0.  0.
          5    1    3    3  502    0 -0.85500974207E+02  0.25634804459E+02  0.30120805465E+03  0.31419093236E+03  0.47000000000E+01 0.  1.
         -5    1    3    3    0  502 -0.27701304155E+02 -0.96511655821E+01 -0.18559272081E+01  0.29766452842E+02  0.47000000000E+01 0.  1.
          5    1    4    4  503    0  0.12688098850E+02  0.17994168079E+02  0.30778703393E+02  0.38133928723E+02  0.47000000000E+01 0. -1.
         -5    1    4    4    0  503  0.10051417951E+03 -0.33977806956E+02  0.61155514193E+03  0.62070876687E+03  0.47000000000E+01 0.  1.
<mgrwt>
<rscale>  0 0.16337436E+03</rscale>
<asrwt>0</asrwt>
<pdfrwt beam="1">  1        1 0.47010860E-02 0.16939595E+03</pdfrwt>
<pdfrwt beam="2">  1       -1 0.14957583E+00 0.16939595E+03</pdfrwt>
<totfact> 0.68632407E+02</totfact>
</mgrwt>
</event>
<event>
 8    1  0.3629925E-004  0.2799965E+03  0.7546771E-02  0.1097617E+00
          1   -1    0    0  501    0  0.00000000000E+00  0.00000000000E+00  0.50602440536E+03  0.50602440536E+03  0.00000000000E+00 0. -1.
         -1   -1    0    0    0  501 -0.00000000000E+00 -0.00000000000E+00 -0.14753044198E+03  0.14753044198E+03  0.00000000000E+00 0.  1.
         25    2    1    2    0    0  0.22622005879E+03 -0.10769137324E+03  0.19245125125E+03  0.33975801442E+03  0.12500030956E+03 0.  0.
         23    2    1    2    0    0 -0.22622005879E+03  0.10769137324E+03  0.16604271213E+03  0.31379683292E+03  0.90140574805E+02 0.  0.
          5    1    4    4  502    0 -0.88717763027E+02 -0.39930321464E+01  0.50916528936E+02  0.10247618602E+03  0.47000000000E+01 0. -1.
         -5    1    4    4    0  502 -0.13750229576E+03  0.11168440539E+03  0.11512618320E+03  0.21132064690E+03  0.47000000000E+01 0.  1.
          5    1    3    3  503    0  0.30458278045E+02 -0.55992756132E+02  0.96263171104E+02  0.11554905258E+03  0.47000000000E+01 0.  1.
         -5    1    3    3    0  503  0.19576178074E+03 -0.51698617112E+02  0.96188080143E+02  0.22420896185E+03  0.47000000000E+01 0.  1.
<mgrwt>
<rscale>  0 0.27649920E+03</rscale>
<asrwt>0</asrwt>
<pdfrwt beam="1">  1        1 0.77849908E-01 0.27999647E+03</pdfrwt>
<pdfrwt beam="2">  1       -1 0.22696991E-01 0.27999647E+03</pdfrwt>
<totfact> 0.72948810E+02</totfact>
</mgrwt>
</event>
<event>
 8    1  0.3629925E-004  0.1260304E+03  0.7546771E-02  0.1248514E+00
         -2   -1    0    0    0  501 -0.00000000000E+00  0.00000000000E+00  0.35113789388E+02  0.35113789388E+02  0.00000000000E+00 0.  1.
          2   -1    0    0  501    0  0.00000000000E+00 -0.00000000000E+00 -0.51799942945E+03  0.51799942945E+03  0.00000000000E+00 0. -1.
         25    2    1    2    0    0 -0.15791418358E+02 -0.30386743922E+01 -0.42585395182E+03  0.44411175042E+03  0.12500022459E+03 0.  0.
         23    2    1    2    0    0  0.15791418358E+02  0.30386743922E+01 -0.57031688238E+02  0.10900146841E+03  0.91488273655E+02 0.  0.
          5    1    3    3  502    0 -0.40099959883E+02  0.38043788988E+02 -0.34996735623E+03  0.35433681306E+03  0.47000000000E+01 0.  1.
         -5    1    3    3    0  502  0.24308541524E+02 -0.41082463380E+02 -0.75886595590E+02  0.89774937364E+02  0.47000000000E+01 0.  1.
          5    1    4    4  503    0  0.42917431998E+02  0.26457555185E+02 -0.51875802463E+02  0.72492048370E+02  0.47000000000E+01 0. -1.
         -5    1    4    4    0  503 -0.27126013639E+02 -0.23418880793E+02 -0.51558857750E+01  0.36509420040E+02  0.47000000000E+01 0.  1.
<mgrwt>
<rscale>  0 0.11677494E+03</rscale>
<asrwt>0</asrwt>
<pdfrwt beam="1">  1        2 0.79692216E-01 0.12603039E+03</pdfrwt>
<pdfrwt beam="2">  1       -2 0.54021217E-02 0.12603039E+03</pdfrwt>
<totfact> 0.98608009E+03</totfact>
</mgrwt>
</event>
<event>
 8    1  0.3629925E-004  0.2515272E+03  0.7546771E-02  0.1114293E+00
          1   -1    0    0  501    0  0.00000000000E+00  0.00000000000E+00  0.52983100665E+03  0.52983100665E+03  0.00000000000E+00 0. -1.
         -1   -1    0    0    0  501 -0.00000000000E+00 -0.00000000000E+00 -0.17128879737E+03  0.17128879737E+03  0.00000000000E+00 0.  1.
         25    2    1    2    0    0 -0.21811919641E+03 -0.81330010538E+01 -0.20969655272E+02  0.25239980102E+03  0.12499521416E+03 0.  0.
         23    2    1    2    0    0  0.21811919641E+03  0.81330010538E+01  0.37951186455E+03  0.44872000299E+03  0.98378128680E+02 0.  0.
          5    1    4    4  502    0  0.14494522190E+03  0.47374816865E+02  0.28145740070E+03  0.32014660553E+03  0.47000000000E+01 0. -1.
         -5    1    4    4    0  502  0.73173974510E+02 -0.39241815811E+02  0.98054463850E+02  0.12857339746E+03  0.47000000000E+01 0.  1.
          5    1    3    3  503    0 -0.16600289673E+03  0.14961203491E+01 -0.69832469603E+02  0.18016066138E+03  0.47000000000E+01 0.  1.
         -5    1    3    3    0  503 -0.52116299684E+02 -0.96291214029E+01  0.48862814330E+02  0.72239139641E+02  0.47000000000E+01 0.  1.
<mgrwt>
<rscale>  0 0.24844334E+03</rscale>
<asrwt>0</asrwt>
<pdfrwt beam="1">  1        1 0.81512462E-01 0.25152720E+03</pdfrwt>
<pdfrwt beam="2">  1       -1 0.26352123E-01 0.25152720E+03</pdfrwt>
<totfact> 0.53528870E+02</totfact>
</mgrwt>
</event>
<event>
 8    1  0.3629925E-004  0.1486995E+03  0.7546771E-02  0.1211689E+00
         -2   -1    0    0    0  501 -0.00000000000E+00  0.00000000000E+00  0.11038656080E+03  0.11038656080E+03  0.00000000000E+00 0.  1.
          2   -1    0    0  501    0  0.00000000000E+00 -0.00000000000E+00 -0.21407603066E+03  0.21407603066E+03  0.00000000000E+00 0. -1.
         25    2    1    2    0    0 -0.54776695259E+02  0.59032034215E+02  0.21638693483E+02  0.15026572497E+03  0.12500515044E+03 0.  0.
         23    2    1    2    0    0  0.54776695259E+02 -0.59032034215E+02 -0.12532816335E+03  0.17419686649E+03  0.90289159698E+02 0.  0.
          5    1    3    3  502    0 -0.18815224239E+02  0.64672217323E+02 -0.40036644620E+02  0.78495421962E+02  0.47000000000E+01 0. -1.
         -5    1    4    4    0  503  0.44036396352E+02  0.73462307993E+01 -0.19996765682E+02  0.49143991987E+02  0.47000000000E+01 0.  1.
          5    1    4    4  503    0  0.10740298907E+02 -0.66378265014E+02 -0.10533139767E+03  0.12505287450E+03  0.47000000000E+01 0. -1.
         -5    1    3    3    0  502 -0.35961471020E+02 -0.56401831081E+01  0.61675338103E+02  0.71770303006E+02  0.47000000000E+01 0. -1.
<mgrwt>
<rscale>  0 0.14122618E+03</rscale>
<asrwt>0</asrwt>
<pdfrwt beam="1">  1        2 0.32934774E-01 0.14869955E+03</pdfrwt>
<pdfrwt beam="2">  1       -2 0.16982548E-01 0.14869955E+03</pdfrwt>
<totfact> 0.42403371E+03</totfact>
</mgrwt>
</event>
<event>
 8    1  0.3629925E-004  0.2150491E+03  0.7546771E-02  0.1140834E+00
          4   -1    0    0  501    0  0.00000000000E+00  0.00000000000E+00  0.50248339566E+02  0.50248339566E+02  0.00000000000E+00 0. -1.
         -4   -1    0    0    0  501 -0.00000000000E+00 -0.00000000000E+00 -0.14724195683E+04  0.14724195683E+04  0.00000000000E+00 0.  1.
         25    2    1    2    0    0 -0.13340407334E+03  0.11324922958E+03 -0.12205857745E+04  0.12393852263E+04  0.12499628577E+03 0.  0.
         23    2    1    2    0    0  0.13340407334E+03 -0.11324922958E+03 -0.20158545421E+03  0.28328268155E+03  0.94817443174E+02 0.  0.
          5    1    3    3  502    0  0.14622272611E+02  0.52895850987E+02 -0.32352411566E+03  0.32817941026E+03  0.47000000000E+01 0.  1.
         -5    1    3    3    0  502 -0.14802634595E+03  0.60353378596E+02 -0.89706165884E+03  0.91120581603E+03  0.47000000000E+01 0.  1.
          5    1    4    4  503    0  0.64439677547E+02 -0.49058151327E+02 -0.16161084970E+03  0.18082956339E+03  0.47000000000E+01 0. -1.
         -5    1    4    4    0  503  0.68964395797E+02 -0.64191078255E+02 -0.39974604510E+02  0.10245311816E+03  0.47000000000E+01 0.  1.
<mgrwt>
<rscale>  0 0.21092694E+03</rscale>
<asrwt>0</asrwt>
<pdfrwt beam="1">  1        4 0.77305138E-02 0.21504908E+03</pdfrwt>
<pdfrwt beam="2">  1       -4 0.22652609E+00 0.21504908E+03</pdfrwt>
<totfact> 0.20847497E+01</totfact>
</mgrwt>
</event>
<event>
 8    1  0.3629925E-004  0.1469665E+03  0.7546771E-02  0.1213950E+00
          1   -1    0    0  501    0  0.00000000000E+00  0.00000000000E+00  0.48863363104E+03  0.48863363104E+03  0.00000000000E+00 0. -1.
         -1   -1    0    0    0  501 -0.00000000000E+00 -0.00000000000E+00 -0.36953952883E+02  0.36953952883E+02  0.00000000000E+00 0.  1.
         25    2    1    2    0    0 -0.76700770762E+02 -0.95539330379E+01  0.28326922164E+03  0.31912476112E+03  0.12499950145E+03 0.  0.
         23    2    1    2    0    0  0.76700770762E+02  0.95539330379E+01  0.16841045652E+03  0.20646282280E+03  0.91052344620E+02 0.  0.
          5    1    3    3  502    0 -0.82663305731E+02 -0.53147941125E+02  0.15653040380E+03  0.18488316060E+03  0.47000000000E+01 0. -1.
         -5    1    3    3    0  502  0.59625349683E+01  0.43594008087E+02  0.12673881783E+03  0.13424160052E+03  0.47000000000E+01 0. -1.
          5    1    4    4  503    0  0.31008159908E+02  0.21295244021E+02  0.15143029314E+03  0.15610322571E+03  0.47000000000E+01 0. -1.
         -5    1    4    4    0  503  0.45692610855E+02 -0.11741310983E+02  0.16980163389E+02  0.50359597090E+02  0.47000000000E+01 0.  1.
<mgrwt>
<rscale>  0 0.13953948E+03</rscale>
<asrwt>0</asrwt>
<pdfrwt beam="1">  1        1 0.75174400E-01 0.14696653E+03</pdfrwt>
<pdfrwt beam="2">  1       -1 0.56852239E-02 0.14696653E+03</pdfrwt>
<totfact> 0.65067919E+03</totfact>
</mgrwt>
</event>
<event>
 8    1  0.3629925E-004  0.2165729E+03  0.7546771E-02  0.1139964E+00
          2   -1    0    0  501    0  0.00000000000E+00  0.00000000000E+00  0.20719406073E+04  0.20719406073E+04  0.00000000000E+00 0. -1.
         -2   -1    0    0    0  501 -0.00000000000E+00 -0.00000000000E+00 -0.26506117954E+02  0.26506117954E+02  0.00000000000E+00 0.  1.
         25    2    1    2    0    0 -0.23546121449E+02  0.17528732302E+03  0.15416562402E+04  0.15567940731E+04  0.12499503003E+03 0.  0.
         23    2    1    2    0    0  0.23546121449E+02 -0.17528732302E+03  0.50377824913E+03  0.54165265217E+03  0.91186653970E+02 0.  0.
          5    1    3    3  502    0 -0.53336253653E+02  0.19442867563E+02  0.34841624343E+03  0.35304213593E+03  0.47000000000E+01 0. -1.
         -5    1    4    4    0  503  0.18108142547E+01 -0.12982977474E+03  0.23853314889E+03  0.27162327326E+03  0.47000000000E+01 0.  1.
          5    1    4    4  503    0  0.21735307194E+02 -0.45457548283E+02  0.26524510024E+03  0.27002937891E+03  0.47000000000E+01 0. -1.
         -5    1    3    3    0  502  0.29790132204E+02  0.15584445546E+03  0.11932399968E+04  0.12037519372E+04  0.47000000000E+01 0. -1.
<mgrwt>
<rscale>  0 0.21203533E+03</rscale>
<asrwt>0</asrwt>
<pdfrwt beam="1">  1        2 0.31875997E+00 0.21657290E+03</pdfrwt>
<pdfrwt beam="2">  1       -2 0.40778659E-02 0.21657290E+03</pdfrwt>
<totfact> 0.18246301E+03</totfact>
</mgrwt>
</event>
<event>
 8    1  0.3629925E-004  0.1386480E+03  0.7546771E-02  0.1226732E+00
         -1   -1    0    0    0  501 -0.00000000000E+00  0.00000000000E+00  0.19679118487E+02  0.19679118487E+02  0.00000000000E+00 0.  1.
          1   -1    0    0  501    0  0.00000000000E+00 -0.00000000000E+00 -0.92583979108E+03  0.92583979108E+03  0.00000000000E+00 0. -1.
         25    2    1    2    0    0  0.49987053051E+02  0.33145352327E+02 -0.68693860611E+03  0.70079092963E+03  0.12500383443E+03 0.  0.
         23    2    1    2    0    0 -0.49987053051E+02 -0.33145352327E+02 -0.21922206648E+03  0.24472797994E+03  0.90753236202E+02 0.  0.
          5    1    4    4  502    0  0.18664609507E+02 -0.11692605786E+02 -0.11996438954E+03  0.12205994198E+03  0.47000000000E+01 0. -1.
         -5    1    4    4    0  502 -0.68651662558E+02 -0.21452746541E+02 -0.99257676940E+02  0.12266803796E+03  0.47000000000E+01 0.  1.
          5    1    3    3  503    0 -0.35480103398E+02  0.14033967604E+02 -0.96524342614E+02  0.10389816505E+03  0.47000000000E+01 0.  1.
         -5    1    3    3    0  503  0.85467156449E+02  0.19111384723E+02 -0.59041426350E+03  0.59689276458E+03  0.47000000000E+01 0.  1.
<mgrwt>
<rscale>  0 0.13048912E+03</rscale>
<asrwt>0</asrwt>
<pdfrwt beam="1">  1        1 0.14243688E+00 0.13864804E+03</pdfrwt>
<pdfrwt beam="2">  1       -1 0.30275570E-02 0.13864804E+03</pdfrwt>
<totfact> 0.65859591E+03</totfact>
</mgrwt>
</event>
<event>
 8    1  0.3629925E-004  0.1510112E+03  0.7546771E-02  0.1208079E+00
         -3   -1    0    0    0  501 -0.00000000000E+00  0.00000000000E+00  0.56130020982E+02  0.56130020982E+02  0.00000000000E+00 0.  1.
          3   -1    0    0  501    0  0.00000000000E+00 -0.00000000000E+00 -0.36794925842E+03  0.36794925842E+03  0.00000000000E+00 0. -1.
         25    2    1    2    0    0 -0.84645122467E+02 -0.42447253198E+01 -0.11008502017E+03  0.18687721079E+03  0.12498626242E+03 0.  0.
         23    2    1    2    0    0  0.84645122467E+02  0.42447253198E+01 -0.20173421727E+03  0.23720206862E+03  0.91571351899E+02 0.  0.
          5    1    4    4  502    0  0.67063728885E+02 -0.35272921776E+02 -0.15911200422E+03  0.17629646232E+03  0.47000000000E+01 0. -1.
         -5    1    4    4    0  502  0.17581393583E+02  0.39517647096E+02 -0.42622213052E+02  0.60905606292E+02  0.47000000000E+01 0.  1.
          5    1    3    3  503    0 -0.77002921011E+02 -0.52756677884E+02 -0.99325130258E+02  0.13638287432E+03  0.47000000000E+01 0.  1.
         -5    1    3    3    0  503 -0.76422014564E+01  0.48511952564E+02 -0.10759889913E+02  0.50494336471E+02  0.47000000000E+01 0.  1.
<mgrwt>
<rscale>  0 0.14397477E+03</rscale>
<asrwt>0</asrwt>
<pdfrwt beam="1">  1        3 0.56607579E-01 0.15101119E+03</pdfrwt>
<pdfrwt beam="2">  1       -3 0.86353878E-02 0.15101119E+03</pdfrwt>
<totfact> 0.68682410E+02</totfact>
</mgrwt>
</event>
<event>
 8    1  0.3629925E-004  0.1286667E+03  0.7546771E-02  0.1244161E+00
          1   -1    0    0  501    0  0.00000000000E+00  0.00000000000E+00  0.81845571211E+03  0.81845571211E+03  0.00000000000E+00 0. -1.
         -1   -1    0    0    0  501 -0.00000000000E+00 -0.00000000000E+00 -0.30408732536E+02  0.30408732536E+02  0.00000000000E+00 0.  1.
         25    2    1    2    0    0 -0.10955248243E+01  0.30479085118E+02  0.12631032354E+03  0.18030368927E+03  0.12499979091E+03 0.  0.
         23    2    1    2    0    0  0.10955248243E+01 -0.30479085118E+02  0.66173665604E+03  0.66856075538E+03  0.90265756963E+02 0.  0.
          5    1    4    4  502    0  0.43170219592E+02 -0.15698337873E+02  0.23645348993E+03  0.24092000451E+03  0.47000000000E+01 0. -1.
         -5    1    3    3    0  503 -0.47288281687E+02  0.26154486650E+02  0.12194814688E+03  0.13346789608E+03  0.47000000000E+01 0.  1.
          5    1    3    3  503    0  0.46192756863E+02  0.43245984685E+01  0.43621766568E+01  0.46835793190E+02  0.47000000000E+01 0.  1.
         -5    1    4    4    0  502 -0.42074694767E+02 -0.14780747245E+02  0.42528316611E+03  0.42764075087E+03  0.47000000000E+01 0.  1.
<mgrwt>
<rscale>  0 0.11935728E+03</rscale>
<asrwt>0</asrwt>
<pdfrwt beam="1">  1        1 0.12591625E+00 0.12866671E+03</pdfrwt>
<pdfrwt beam="2">  1       -1 0.46782672E-02 0.12866671E+03</pdfrwt>
<totfact> 0.42086098E+03</totfact>
</mgrwt>
</event>
<event>
 8    1  0.3629925E-004  0.1679940E+03  0.7546771E-02  0.1186725E+00
          2   -1    0    0  501    0  0.00000000000E+00  0.00000000000E+00  0.54811490868E+03  0.54811490868E+03  0.00000000000E+00 0. -1.
         -2   -1    0    0    0  501 -0.00000000000E+00 -0.00000000000E+00 -0.52846755913E+02  0.52846755913E+02  0.00000000000E+00 0.  1.
         25    2    1    2    0    0  0.10906636019E+03  0.26489541649E+02  0.14435144569E+03  0.22149336776E+03  0.12499922138E+03 0.  0.
         23    2    1    2    0    0 -0.10906636019E+03 -0.26489541649E+02  0.35091670708E+03  0.37946829684E+03  0.90865209288E+02 0.  0.
          5    1    3    3  502    0  0.12997183031E+03 -0.46928453311E+01  0.11317538293E+03  0.17246871245E+03  0.47000000000E+01 0. -1.
         -5    1    3    3    0  502 -0.20905470126E+02  0.31182386980E+02  0.31176062767E+02  0.49024655314E+02  0.47000000000E+01 0. -1.
          5    1    4    4  503    0 -0.15973491615E+02 -0.30947966598E+02  0.19190673817E+03  0.19509796316E+03  0.47000000000E+01 0. -1.
         -5    1    4    4    0  503 -0.93092868571E+02  0.44584249496E+01  0.15900996890E+03  0.18437033368E+03  0.47000000000E+01 0.  1.
<mgrwt>
<rscale>  0 0.16175884E+03</rscale>
<asrwt>0</asrwt>
<pdfrwt beam="1">  1        2 0.84325367E-01 0.16799396E+03</pdfrwt>
<pdfrwt beam="2">  1       -2 0.81302705E-02 0.16799396E+03</pdfrwt>
<totfact> 0.50401967E+03</totfact>
</mgrwt>
</event>
<event>
 8    1  0.3629925E-004  0.1689049E+03  0.7546771E-02  0.1185525E+00
          2   -1    0    0  501    0  0.00000000000E+00  0.00000000000E+00  0.43292918702E+03  0.43292918702E+03  0.00000000000E+00 0.  1.
         -2   -1    0    0    0  501 -0.00000000000E+00 -0.00000000000E+00 -0.58824153585E+02  0.58824153585E+02  0.00000000000E+00 0. -1.
         25    2    1    2    0    0 -0.89477608791E+02 -0.69985238604E+02  0.16005910726E+03  0.23269674834E+03  0.12499873110E+03 0.  0.
         23    2    1    2    0    0  0.89477608791E+02  0.69985238604E+02  0.21404592618E+03  0.25905659227E+03  0.91599581789E+02 0.  0.
          5    1    3    3  502    0  0.15512598580E+01 -0.73586454276E+02  0.96766686424E+02  0.12166862480E+03  0.47000000000E+01 0.  1.
         -5    1    3    3    0  502 -0.91028868649E+02  0.36012156719E+01  0.63292420832E+02  0.11102812354E+03  0.47000000000E+01 0.  1.
          5    1    4    4  503    0  0.43085596665E+02  0.74965673689E+02  0.83299007775E+02  0.12015421577E+03  0.47000000000E+01 0. -1.
         -5    1    4    4    0  503  0.46392012126E+02 -0.49804350841E+01  0.13074691841E+03  0.13890237649E+03  0.47000000000E+01 0.  1.
<mgrwt>
<rscale>  0 0.16284165E+03</rscale>
<asrwt>0</asrwt>
<pdfrwt beam="1">  1        2 0.66604488E-01 0.16890488E+03</pdfrwt>
<pdfrwt beam="2">  1       -2 0.90498701E-02 0.16890488E+03</pdfrwt>
<totfact> 0.55333473E+03</totfact>
</mgrwt>
</event>
<event>
 8    1  0.3629925E-004  0.1427018E+03  0.7546771E-02  0.1219696E+00
         -1   -1    0    0    0  501 -0.00000000000E+00  0.00000000000E+00  0.61784638685E+03  0.61784638685E+03  0.00000000000E+00 0.  1.
          1   -1    0    0  501    0  0.00000000000E+00 -0.00000000000E+00 -0.29214582869E+02  0.29214582869E+02  0.00000000000E+00 0. -1.
         25    2    1    2    0    0 -0.26573177350E+02  0.63476056742E+02  0.41171484020E+03  0.43574410380E+03  0.12501388251E+03 0.  0.
         23    2    1    2    0    0  0.26573177350E+02 -0.63476056742E+02  0.17691696378E+03  0.21131686592E+03  0.92843213083E+02 0.  0.
          5    1    3    3  502    0 -0.59658363705E+02 -0.15756812165E+01  0.26664912673E+03  0.27328638809E+03  0.47000000000E+01 0.  1.
         -5    1    3    3    0  502  0.33085186355E+02  0.65051737959E+02  0.14506571348E+03  0.16245771571E+03  0.47000000000E+01 0.  1.
          5    1    4    4  503    0  0.54504421790E+02 -0.11315796845E+02  0.93957465241E+02  0.10931090763E+03  0.47000000000E+01 0. -1.
         -5    1    4    4    0  503 -0.27931244440E+02 -0.52160259897E+02  0.82959498539E+02  0.10200595829E+03  0.47000000000E+01 0.  1.
<mgrwt>
<rscale>  0 0.13537189E+03</rscale>
<asrwt>0</asrwt>
<pdfrwt beam="1">  1        1 0.44945517E-02 0.14270184E+03</pdfrwt>
<pdfrwt beam="2">  1       -1 0.95053280E-01 0.14270184E+03</pdfrwt>
<totfact> 0.21182616E+03</totfact>
</mgrwt>
</event>
<event>
 8    1  0.3629925E-004  0.1474458E+03  0.7546771E-02  0.1213403E+00
          2   -1    0    0  501    0  0.00000000000E+00  0.00000000000E+00  0.15777661725E+03  0.15777661725E+03  0.00000000000E+00 0.  1.
         -2   -1    0    0    0  501 -0.00000000000E+00 -0.00000000000E+00 -0.11329967992E+03  0.11329967992E+03  0.00000000000E+00 0. -1.
         25    2    1    2    0    0 -0.83307240422E+01 -0.77764855528E+02  0.18140031919E+02  0.14855746313E+03  0.12499394135E+03 0.  0.
         23    2    1    2    0    0  0.83307240422E+01  0.77764855528E+02  0.26336905407E+02  0.12251883404E+03  0.90556382387E+02 0.  0.
          5    1    3    3  502    0  0.43610027513E+02  0.15134996679E+01 -0.17419302392E+02  0.47219141000E+02  0.47000000000E+01 0. -1.
         -5    1    4    4    0  503  0.36305332035E+02  0.11015030479E+02  0.31883067517E+02  0.49779795348E+02  0.47000000000E+01 0.  1.
          5    1    4    4  503    0 -0.27974607992E+02  0.66749825049E+02 -0.55461621100E+01  0.72739038697E+02  0.47000000000E+01 0. -1.
         -5    1    3    3    0  502 -0.51940751555E+02 -0.79278355196E+02  0.35559334311E+02  0.10133832213E+03  0.47000000000E+01 0. -1.
<mgrwt>
<rscale>  0 0.13994476E+03</rscale>
<asrwt>0</asrwt>
<pdfrwt beam="1">  1        2 0.24273326E-01 0.14744578E+03</pdfrwt>
<pdfrwt beam="2">  1       -2 0.17430720E-01 0.14744578E+03</pdfrwt>
<totfact> 0.56644625E+03</totfact>
</mgrwt>
</event>
<event>
 8    1  0.3629925E-004  0.1428825E+03  0.7546771E-02  0.1219469E+00
          3   -1    0    0  501    0  0.00000000000E+00  0.00000000000E+00  0.31687402255E+02  0.31687402255E+02  0.00000000000E+00 0. -1.
         -3   -1    0    0    0  501 -0.00000000000E+00 -0.00000000000E+00 -0.52780609914E+03  0.52780609914E+03  0.00000000000E+00 0.  1.
         25    2    1    2    0    0  0.25641495571E+02 -0.64284989818E+02 -0.26679259613E+03  0.30264448941E+03  0.12500140564E+03 0.  0.
         23    2    1    2    0    0 -0.25641495571E+02  0.64284989818E+02 -0.22932610076E+03  0.25684901198E+03  0.92687152597E+02 0.  0.
          5    1    4    4  502    0 -0.47826299847E+02  0.27939133177E+02 -0.58360337971E+02  0.80597575446E+02  0.47000000000E+01 0. -1.
         -5    1    4    4    0  502  0.22184804276E+02  0.36345856642E+02 -0.17096576279E+03  0.17625143654E+03  0.47000000000E+01 0.  1.
          5    1    3    3  503    0  0.57364358548E+02 -0.78674432564E+02 -0.13676419160E+03  0.16794901034E+03  0.47000000000E+01 0.  1.
         -5    1    3    3    0  503 -0.31722862977E+02  0.14389442746E+02 -0.13002840453E+03  0.13469547907E+03  0.47000000000E+01 0.  1.
<mgrwt>
<rscale>  0 0.13553301E+03</rscale>
<asrwt>0</asrwt>
<pdfrwt beam="1">  1        3 0.48749849E-02 0.14288246E+03</pdfrwt>
<pdfrwt beam="2">  1       -3 0.81200939E-01 0.14288246E+03</pdfrwt>
<totfact> 0.79784253E+02</totfact>
</mgrwt>
</event>
<event>
 8    1  0.3629925E-004  0.1988698E+03  0.7546771E-02  0.1155277E+00
         -1   -1    0    0    0  501 -0.00000000000E+00  0.00000000000E+00  0.15235794885E+03  0.15235794885E+03  0.00000000000E+00 0.  1.
          1   -1    0    0  501    0  0.00000000000E+00 -0.00000000000E+00 -0.25134252451E+03  0.25134252451E+03  0.00000000000E+00 0. -1.
         25    2    1    2    0    0 -0.18422448877E+02 -0.15357765834E+03  0.14397669400E+01  0.19887505349E+03  0.12499492073E+03 0.  0.
         23    2    1    2    0    0  0.18422448877E+02  0.15357765834E+03 -0.10042434260E+03  0.20482541987E+03  0.89123062512E+02 0.  0.
          5    1    3    3  502    0 -0.63242259468E+01  0.21358011378E+02 -0.51284862418E+01  0.23335634874E+02  0.47000000000E+01 0.  1.
         -5    1    4    4    0  503  0.41141162677E+02  0.12598318251E+03 -0.47653916052E+02  0.14091608587E+03  0.47000000000E+01 0.  1.
          5    1    4    4  503    0 -0.22718713800E+02  0.27594475828E+02 -0.52770426551E+02  0.63909333992E+02  0.47000000000E+01 0. -1.
         -5    1    3    3    0  502 -0.12098222930E+02 -0.17493566972E+03  0.65682531818E+01  0.17553941862E+03  0.47000000000E+01 0.  1.
<mgrwt>
<rscale>  0 0.19357387E+03</rscale>
<asrwt>0</asrwt>
<pdfrwt beam="1">  1        1 0.38668081E-01 0.19886984E+03</pdfrwt>
<pdfrwt beam="2">  1       -1 0.23439684E-01 0.19886984E+03</pdfrwt>
<totfact> 0.16865636E+03</totfact>
</mgrwt>
</event>
<event>
 8    1  0.3629925E-004  0.1557874E+03  0.7546771E-02  0.1201750E+00
          2   -1    0    0  501    0  0.00000000000E+00  0.00000000000E+00  0.29588536460E+03  0.29588536460E+03  0.00000000000E+00 0. -1.
         -2   -1    0    0    0  501 -0.00000000000E+00 -0.00000000000E+00 -0.69625667769E+02  0.69625667769E+02  0.00000000000E+00 0.  1.
         25    2    1    2    0    0  0.19543355402E+02 -0.90901426176E+02  0.10771195963E+03  0.18939793035E+03  0.12499879101E+03 0.  0.
         23    2    1    2    0    0 -0.19543355402E+02  0.90901426176E+02  0.11854773720E+03  0.17611310201E+03  0.91198940151E+02 0.  0.
          5    1    4    4  502    0 -0.14937547437E+02 -0.14783159058E+02  0.35585918769E+02  0.41594707954E+02  0.47000000000E+01 0. -1.
         -5    1    3    3    0  503  0.84897829747E+01 -0.57508144567E+02 -0.16179712194E+02  0.60523848136E+02  0.47000000000E+01 0. -1.
          5    1    3    3  503    0  0.11053572427E+02 -0.33393281608E+02  0.12389167182E+03  0.12887408222E+03  0.47000000000E+01 0. -1.
         -5    1    4    4    0  502 -0.46058079643E+01  0.10568458523E+03  0.82961818430E+02  0.13451839406E+03  0.47000000000E+01 0.  1.
<mgrwt>
<rscale>  0 0.14896515E+03</rscale>
<asrwt>0</asrwt>
<pdfrwt beam="1">  1        2 0.45520825E-01 0.15578739E+03</pdfrwt>
<pdfrwt beam="2">  1       -2 0.10711641E-01 0.15578739E+03</pdfrwt>
<totfact> 0.63485925E+03</totfact>
</mgrwt>
</event>
<event>
 8    1  0.3629925E-004  0.1567997E+03  0.7546771E-02  0.1200345E+00
         -2   -1    0    0    0  501 -0.00000000000E+00  0.00000000000E+00  0.10903810647E+03  0.10903810647E+03  0.00000000000E+00 0.  1.
          2   -1    0    0  501    0  0.00000000000E+00 -0.00000000000E+00 -0.32349226028E+03  0.32349226028E+03  0.00000000000E+00 0. -1.
         25    2    1    2    0    0 -0.78334856350E+02 -0.53148925342E+02  0.25459235098E+02  0.15885313651E+03  0.12499995337E+03 0.  0.
         23    2    1    2    0    0  0.78334856350E+02  0.53148925342E+02 -0.23991338891E+03  0.27367723025E+03  0.91540341898E+02 0.  0.
          5    1    3    3  502    0 -0.51349705689E+01  0.29219350142E+02  0.37338734263E+02  0.47920866246E+02  0.47000000000E+01 0. -1.
         -5    1    3    3    0  502 -0.73199885781E+02 -0.82368275484E+02 -0.11879499165E+02  0.11093227026E+03  0.47000000000E+01 0. -1.
          5    1    4    4  503    0  0.30277371502E+02  0.53215699311E+02 -0.20524449960E+03  0.21423357462E+03  0.47000000000E+01 0. -1.
         -5    1    4    4    0  503  0.48057484848E+02 -0.66773969540E-01 -0.34668889309E+02  0.59443655630E+02  0.47000000000E+01 0.  1.
<mgrwt>
<rscale>  0 0.15010409E+03</rscale>
<asrwt>0</asrwt>
<pdfrwt beam="1">  1        2 0.49768039E-01 0.15679970E+03</pdfrwt>
<pdfrwt beam="2">  1       -2 0.16775094E-01 0.15679970E+03</pdfrwt>
<totfact> 0.27914505E+03</totfact>
</mgrwt>
</event>
<event>
 8    1  0.3629925E-004  0.2053557E+03  0.7546771E-02  0.1148698E+00
         -1   -1    0    0    0  501 -0.00000000000E+00  0.00000000000E+00  0.15860011641E+02  0.15860011641E+02  0.00000000000E+00 0.  1.
          1   -1    0    0  501    0  0.00000000000E+00 -0.00000000000E+00 -0.24617105535E+04  0.24617105535E+04  0.00000000000E+00 0. -1.
         25    2    1    2    0    0  0.16213145444E+03  0.16317658470E+02 -0.12131402263E+04  0.12303983861E+04  0.12497241822E+03 0.  0.
         23    2    1    2    0    0 -0.16213145444E+03 -0.16317658470E+02 -0.12327103155E+04  0.12471721790E+04  0.96492733556E+02 0.  0.
          5    1    4    4  502    0 -0.11259003182E+03 -0.39330868674E+02 -0.10396137374E+04  0.10464426623E+04  0.47000000000E+01 0. -1.
         -5    1    4    4    0  502 -0.49541422624E+02  0.23013210203E+02 -0.19309657814E+03  0.20072951673E+03  0.47000000000E+01 0.  1.
          5    1    3    3  503    0  0.54138798388E+02  0.62968488522E+02 -0.38116929271E+03  0.39013864170E+03  0.47000000000E+01 0.  1.
         -5    1    3    3    0  503  0.10799265605E+03 -0.46650830052E+02 -0.83197093362E+03  0.84025974442E+03  0.47000000000E+01 0.  1.
<mgrwt>
<rscale>  0 0.20123896E+03</rscale>
<asrwt>0</asrwt>
<pdfrwt beam="1">  1        1 0.37872482E+00 0.20535574E+03</pdfrwt>
<pdfrwt beam="2">  1       -1 0.24400010E-02 0.20535574E+03</pdfrwt>
<totfact> 0.86763266E+02</totfact>
</mgrwt>
</event>
<event>
 8    1  0.3629925E-004  0.1302303E+03  0.7546771E-02  0.1241327E+00
          3   -1    0    0  501    0  0.00000000000E+00  0.00000000000E+00  0.76509211740E+03  0.76509211740E+03  0.00000000000E+00 0. -1.
         -3   -1    0    0    0  501 -0.00000000000E+00 -0.00000000000E+00 -0.17016993263E+02  0.17016993263E+02  0.00000000000E+00 0.  1.
         25    2    1    2    0    0 -0.35965504726E+02 -0.64268705831E+01  0.39824008342E+03  0.41899293875E+03  0.12500038594E+03 0.  0.
         23    2    1    2    0    0  0.35965504726E+02  0.64268705831E+01  0.34983504072E+03  0.36311617191E+03  0.90188560223E+02 0.  0.
          5    1    4    4  502    0  0.49367446465E+02 -0.25043074992E+02  0.27694801848E+03  0.28246521080E+03  0.47000000000E+01 0. -1.
         -5    1    4    4    0  502 -0.13401941738E+02  0.31469945575E+02  0.72887022240E+02  0.80650961109E+02  0.47000000000E+01 0.  1.
          5    1    3    3  503    0 -0.82294864289E+02 -0.63396942885E+01  0.22912478259E+03  0.24358344034E+03  0.47000000000E+01 0. -1.
         -5    1    3    3    0  503  0.46329359562E+02 -0.87176294619E-01  0.16911530083E+03  0.17540949841E+03  0.47000000000E+01 0. -1.
<mgrwt>
<rscale>  0 0.12107954E+03</rscale>
<asrwt>0</asrwt>
<pdfrwt beam="1">  1        3 0.11770645E+00 0.13023025E+03</pdfrwt>
<pdfrwt beam="2">  1       -3 0.26179996E-02 0.13023025E+03</pdfrwt>
<totfact> 0.89767104E+02</totfact>
</mgrwt>
</event>
<event>
 8    1  0.3629925E-004  0.1488254E+03  0.7546771E-02  0.1211597E+00
          2   -1    0    0  501    0  0.00000000000E+00  0.00000000000E+00  0.24523683737E+03  0.24523683737E+03  0.00000000000E+00 0.  1.
         -2   -1    0    0    0  501 -0.00000000000E+00 -0.00000000000E+00 -0.83254470356E+02  0.83254470356E+02  0.00000000000E+00 0. -1.
         25    2    1    2    0    0 -0.59403215456E+02  0.54731015486E+02  0.14244480491E+03  0.20600857943E+03  0.12499914516E+03 0.  0.
         23    2    1    2    0    0  0.59403215456E+02 -0.54731015486E+02  0.19537562107E+02  0.12248272830E+03  0.89978199221E+02 0.  0.
          5    1    4    4  502    0  0.84934734799E+01 -0.63304349930E+02 -0.66770852007E+01  0.64391406870E+02  0.47000000000E+01 0. -1.
         -5    1    4    4    0  502  0.50909741976E+02  0.85733344441E+01  0.26214647308E+02  0.58091321426E+02  0.47000000000E+01 0.  1.
          5    1    3    3  503    0 -0.72920945004E+02 -0.17538571758E+02  0.71094465839E+02  0.10344843543E+03  0.47000000000E+01 0.  1.
         -5    1    3    3    0  503  0.13517729548E+02  0.72269587245E+02  0.71350339071E+02  0.10256014400E+03  0.47000000000E+01 0.  1.
<mgrwt>
<rscale>  0 0.14129521E+03</rscale>
<asrwt>0</asrwt>
<pdfrwt beam="1">  1        2 0.37728744E-01 0.14882544E+03</pdfrwt>
<pdfrwt beam="2">  1       -2 0.12808380E-01 0.14882544E+03</pdfrwt>
<totfact> 0.58120017E+03</totfact>
</mgrwt>
</event>
<event>
 8    1  0.3629925E-004  0.1862209E+03  0.7546771E-02  0.1167144E+00
         -3   -1    0    0    0  501 -0.00000000000E+00  0.00000000000E+00  0.53364832835E+03  0.53364832835E+03  0.00000000000E+00 0.  1.
          3   -1    0    0  501    0  0.00000000000E+00 -0.00000000000E+00 -0.64058212601E+02  0.64058212601E+02  0.00000000000E+00 0. -1.
         25    2    1    2    0    0  0.10424391599E+03  0.90457955174E+02  0.34082549952E+03  0.38838155264E+03  0.12501509362E+03 0.  0.
         23    2    1    2    0    0 -0.10424391599E+03 -0.90457955174E+02  0.12876461623E+03  0.20932498831E+03  0.90483084966E+02 0.  0.
          5    1    3    3  502    0 -0.18423953444E+02  0.12621135246E+02  0.13194074698E+03  0.13389990975E+03  0.47000000000E+01 0. -1.
         -5    1    4    4    0  503  0.95436688339E+01 -0.36958465318E+02  0.38917819498E+02  0.54714682198E+02  0.47000000000E+01 0.  1.
          5    1    4    4  503    0 -0.11378758482E+03 -0.53499489856E+02  0.89846796727E+02  0.15461030611E+03  0.47000000000E+01 0. -1.
         -5    1    3    3    0  502  0.12266786943E+03  0.77836819928E+02  0.20888475254E+03  0.25448164290E+03  0.47000000000E+01 0. -1.
<mgrwt>
<rscale>  0 0.18068222E+03</rscale>
<asrwt>0</asrwt>
<pdfrwt beam="1">  1        3 0.98551100E-02 0.18622086E+03</pdfrwt>
<pdfrwt beam="2">  1       -3 0.82099740E-01 0.18622086E+03</pdfrwt>
<totfact> 0.25797446E+02</totfact>
</mgrwt>
</event>
<event>
 8    1  0.3629925E-004  0.2163477E+03  0.7546771E-02  0.1139859E+00
         -1   -1    0    0    0  501 -0.00000000000E+00  0.00000000000E+00  0.13064777554E+03  0.13064777554E+03  0.00000000000E+00 0.  1.
          1   -1    0    0  501    0  0.00000000000E+00 -0.00000000000E+00 -0.41799976459E+03  0.41799976459E+03  0.00000000000E+00 0. -1.
         25    2    1    2    0    0  0.17607726303E+03 -0.13380980189E+02 -0.23685625197E+02  0.21764036612E+03  0.12499626770E+03 0.  0.
         23    2    1    2    0    0 -0.17607726303E+03  0.13380980189E+02 -0.26366636386E+03  0.33100717400E+03  0.94146399952E+02 0.  0.
          5    1    3    3  502    0  0.14090367844E+03 -0.62097985194E+01 -0.71073050117E+02  0.15800593865E+03  0.47000000000E+01 0. -1.
         -5    1    4    4    0  503 -0.72066848186E+02  0.13843653397E+02 -0.38657653021E+02  0.83076961211E+02  0.47000000000E+01 0.  1.
          5    1    4    4  503    0 -0.10401041484E+03 -0.46267320844E+00 -0.22500871084E+03  0.24793021279E+03  0.47000000000E+01 0. -1.
         -5    1    3    3    0  502  0.35173584586E+02 -0.71711816695E+01  0.47387424921E+02  0.59634427471E+02  0.47000000000E+01 0. -1.
<mgrwt>
<rscale>  0 0.21216992E+03</rscale>
<asrwt>0</asrwt>
<pdfrwt beam="1">  1        1 0.64307657E-01 0.21634768E+03</pdfrwt>
<pdfrwt beam="2">  1       -1 0.20099658E-01 0.21634768E+03</pdfrwt>
<totfact> 0.11431700E+03</totfact>
</mgrwt>
</event>
<event>
 8    1  0.3629925E-004  0.1561773E+03  0.7546771E-02  0.1200698E+00
          3   -1    0    0  501    0  0.00000000000E+00  0.00000000000E+00  0.83467379805E+02  0.83467379805E+02  0.00000000000E+00 0. -1.
         -3   -1    0    0    0  501 -0.00000000000E+00 -0.00000000000E+00 -0.25299684443E+03  0.25299684443E+03  0.00000000000E+00 0.  1.
         25    2    1    2    0    0  0.93536015943E+02  0.42679291282E+01 -0.71062040368E+02  0.17158423931E+03  0.12499654436E+03 0.  0.
         23    2    1    2    0    0 -0.93536015943E+02 -0.42679291282E+01 -0.98467424257E+02  0.16487998492E+03  0.93393652304E+02 0.  0.
          5    1    3    3  502    0  0.73748645533E+02  0.56151932288E+02 -0.17811872355E+02  0.94505317387E+02  0.47000000000E+01 0. -1.
         -5    1    4    4    0  503 -0.20551040698E+02 -0.69406475346E+01 -0.88234405646E+02  0.90983065467E+02  0.47000000000E+01 0.  1.
          5    1    4    4  503    0 -0.72984975245E+02  0.26727184063E+01 -0.10233018610E+02  0.73896919456E+02  0.47000000000E+01 0. -1.
         -5    1    3    3    0  502  0.19787370410E+02 -0.51884003160E+02 -0.53250168013E+02  0.77078921924E+02  0.47000000000E+01 0. -1.
<mgrwt>
<rscale>  0 0.14981689E+03</rscale>
<asrwt>0</asrwt>
<pdfrwt beam="1">  1        3 0.12841135E-01 0.15617726E+03</pdfrwt>
<pdfrwt beam="2">  1       -3 0.38922591E-01 0.15617726E+03</pdfrwt>
<totfact> 0.74858521E+02</totfact>
</mgrwt>
</event>
<event>
 8    1  0.3629925E-004  0.1274271E+03  0.7546771E-02  0.1246107E+00
         -2   -1    0    0    0  501 -0.00000000000E+00  0.00000000000E+00  0.96357918578E+02  0.96357918578E+02  0.00000000000E+00 0.  1.
          2   -1    0    0  501    0  0.00000000000E+00 -0.00000000000E+00 -0.12796255284E+03  0.12796255284E+03  0.00000000000E+00 0. -1.
         25    2    1    2    0    0 -0.88540445707E+01  0.23094402402E+02 -0.12033154360E+02  0.12799398664E+03  0.12500367308E+03 0.  0.
         23    2    1    2    0    0  0.88540445707E+01 -0.23094402402E+02 -0.19571479901E+02  0.96326484778E+02  0.91016500243E+02 0.  0.
          5    1    3    3  502    0  0.41874929893E+02 -0.31025108675E+02  0.19490370264E+01  0.52363688442E+02  0.47000000000E+01 0.  1.
         -5    1    4    4    0  503 -0.18565310959E+00  0.34743175228E+02 -0.24127885805E+01  0.35143053948E+02  0.47000000000E+01 0.  1.
          5    1    4    4  503    0  0.90396976803E+01 -0.57837577631E+02 -0.17158691320E+02  0.61183430830E+02  0.47000000000E+01 0. -1.
         -5    1    3    3    0  502 -0.50728974464E+02  0.54119511077E+02 -0.13982191386E+02  0.75630298197E+02  0.47000000000E+01 0.  1.
<mgrwt>
<rscale>  0 0.11819365E+03</rscale>
<asrwt>0</asrwt>
<pdfrwt beam="1">  1        2 0.19686546E-01 0.12742709E+03</pdfrwt>
<pdfrwt beam="2">  1       -2 0.14824295E-01 0.12742709E+03</pdfrwt>
<totfact> 0.92534291E+03</totfact>
</mgrwt>
</event>
<event>
 8    1  0.3629925E-004  0.1383711E+03  0.7546771E-02  0.1227256E+00
         -2   -1    0    0    0  501 -0.00000000000E+00  0.00000000000E+00  0.31072248772E+02  0.31072248772E+02  0.00000000000E+00 0.  1.
          2   -1    0    0  501    0  0.00000000000E+00 -0.00000000000E+00 -0.66576419351E+03  0.66576419351E+03  0.00000000000E+00 0. -1.
         25    2    1    2    0    0 -0.12374252026E+02 -0.58032198102E+02 -0.16747587765E+03  0.21724346193E+03  0.12500277607E+03 0.  0.
         23    2    1    2    0    0  0.12374252026E+02  0.58032198102E+02 -0.46721606709E+03  0.47959298036E+03  0.90541235531E+02 0.  0.
          5    1    3    3  502    0 -0.47847112418E+02 -0.59197743418E+02 -0.42634621238E+02  0.87370017287E+02  0.47000000000E+01 0. -1.
         -5    1    4    4    0  503  0.16936018404E+02  0.81754582583E+02 -0.35708580983E+03  0.36674651474E+03  0.47000000000E+01 0.  1.
          5    1    4    4  503    0 -0.45617663777E+01 -0.23722384482E+02 -0.11013025726E+03  0.11284646562E+03  0.47000000000E+01 0. -1.
         -5    1    3    3    0  502  0.35472860392E+02  0.11655453160E+01 -0.12484125641E+03  0.12987344464E+03  0.47000000000E+01 0. -1.
<mgrwt>
<rscale>  0 0.13013476E+03</rscale>
<asrwt>0</asrwt>
<pdfrwt beam="1">  1        2 0.10242525E+00 0.13837107E+03</pdfrwt>
<pdfrwt beam="2">  1       -2 0.47803465E-02 0.13837107E+03</pdfrwt>
<totfact> 0.89718173E+03</totfact>
</mgrwt>
</event>
<event>
 8    1  0.3629925E-004  0.1370448E+03  0.7546771E-02  0.1227415E+00
          1   -1    0    0  501    0  0.00000000000E+00  0.00000000000E+00  0.99991024045E+03  0.99991024045E+03  0.00000000000E+00 0. -1.
         -1   -1    0    0    0  501 -0.00000000000E+00 -0.00000000000E+00 -0.15397947088E+02  0.15397947088E+02  0.00000000000E+00 0.  1.
         25    2    1    2    0    0 -0.18445993536E+02 -0.53058846677E+02  0.53251242499E+03  0.54986430535E+03  0.12500310250E+03 0.  0.
         23    2    1    2    0    0  0.18445993536E+02  0.53058846677E+02  0.45199986837E+03  0.46544388219E+03  0.95805169883E+02 0.  0.
          5    1    4    4  502    0 -0.36901898215E+00  0.78104128642E+02  0.34995188905E+03  0.35859281328E+03  0.47000000000E+01 0. -1.
         -5    1    3    3    0  503 -0.54062494678E+02 -0.74623386467E+02  0.41416455045E+03  0.42431800337E+03  0.47000000000E+01 0.  1.
          5    1    3    3  503    0  0.35616501142E+02  0.21564539790E+02  0.11834787454E+03  0.12554630197E+03  0.47000000000E+01 0.  1.
         -5    1    4    4    0  502  0.18815012518E+02 -0.25045281964E+02  0.10204797932E+03  0.10685106891E+03  0.47000000000E+01 0.  1.
<mgrwt>
<rscale>  0 0.13002756E+03</rscale>
<asrwt>0</asrwt>
<pdfrwt beam="1">  1        1 0.15383229E+00 0.13704478E+03</pdfrwt>
<pdfrwt beam="2">  1       -1 0.23689157E-02 0.13704478E+03</pdfrwt>
<totfact> 0.82785358E+03</totfact>
</mgrwt>
</event>
<event>
 8    1  0.3629925E-004  0.1459379E+03  0.7546771E-02  0.1215253E+00
         -1   -1    0    0    0  501 -0.00000000000E+00  0.00000000000E+00  0.17584384237E+02  0.17584384237E+02  0.00000000000E+00 0.  1.
          1   -1    0    0  501    0  0.00000000000E+00 -0.00000000000E+00 -0.10674172299E+04  0.10674172299E+04  0.00000000000E+00 0. -1.
         25    2    1    2    0    0 -0.69131176580E+02  0.29891757088E+02 -0.43512612187E+03  0.45894728295E+03  0.12500091949E+03 0.  0.
         23    2    1    2    0    0  0.69131176580E+02 -0.29891757088E+02 -0.61470672380E+03  0.62605433119E+03  0.91689871891E+02 0.  0.
          5    1    4    4  502    0  0.75539661990E+02  0.20811989231E+01 -0.52610960761E+03  0.53152984972E+03  0.47000000000E+01 0. -1.
         -5    1    4    4    0  502 -0.64084854102E+01 -0.31972956012E+02 -0.88597116190E+02  0.94524481477E+02  0.47000000000E+01 0.  1.
          5    1    3    3  503    0 -0.83068198042E+02 -0.55648737605E+01 -0.15323383042E+03  0.17445340390E+03  0.47000000000E+01 0.  1.
         -5    1    3    3    0  503  0.13937021462E+02  0.35456630849E+02 -0.28189229145E+03  0.28449387905E+03  0.47000000000E+01 0.  1.
<mgrwt>
<rscale>  0 0.13857985E+03</rscale>
<asrwt>0</asrwt>
<pdfrwt beam="1">  1        1 0.16421806E+00 0.14593789E+03</pdfrwt>
<pdfrwt beam="2">  1       -1 0.27052895E-02 0.14593789E+03</pdfrwt>
<totfact> 0.61196068E+03</totfact>
</mgrwt>
</event>
<event>
 8    1  0.3629925E-004  0.1425000E+03  0.7546771E-02  0.1220935E+00
          2   -1    0    0  501    0  0.00000000000E+00  0.00000000000E+00  0.57782579246E+03  0.57782579246E+03  0.00000000000E+00 0. -1.
         -2   -1    0    0    0  501 -0.00000000000E+00 -0.00000000000E+00 -0.28427246344E+02  0.28427246344E+02  0.00000000000E+00 0.  1.
         25    2    1    2    0    0  0.67484502759E+02 -0.11241210543E+02  0.28311160226E+03  0.31695178702E+03  0.12500293209E+03 0.  0.
         23    2    1    2    0    0 -0.67484502759E+02  0.11241210543E+02  0.26628694385E+03  0.28930125178E+03  0.90033076649E+02 0.  0.
          5    1    4    4  502    0  0.89368446619E+01  0.19859669270E+02  0.13697418670E+03  0.13877424645E+03  0.47000000000E+01 0. -1.
         -5    1    4    4    0  502 -0.76421347421E+02 -0.86184587276E+01  0.12931275716E+03  0.15052700534E+03  0.47000000000E+01 0.  1.
          5    1    3    3  503    0  0.98749259486E+02 -0.29278897723E+02  0.23498667999E+03  0.25661157392E+03  0.47000000000E+01 0.  1.
         -5    1    3    3    0  503 -0.31264756727E+02  0.18037687180E+02  0.48124922274E+02  0.60340213091E+02  0.47000000000E+01 0.  1.
<mgrwt>
<rscale>  0 0.13449467E+03</rscale>
<asrwt>0</asrwt>
<pdfrwt beam="1">  1        2 0.88896267E-01 0.14250002E+03</pdfrwt>
<pdfrwt beam="2">  1       -2 0.43734229E-02 0.14250002E+03</pdfrwt>
<totfact> 0.12084762E+04</totfact>
</mgrwt>
</event>
<event>
 8    1  0.3629925E-004  0.1275912E+03  0.7546771E-02  0.1246426E+00
          3   -1    0    0  501    0  0.00000000000E+00  0.00000000000E+00  0.11188949728E+03  0.11188949728E+03  0.00000000000E+00 0. -1.
         -3   -1    0    0    0  501 -0.00000000000E+00 -0.00000000000E+00 -0.11343363225E+03  0.11343363225E+03  0.00000000000E+00 0.  1.
         25    2    1    2    0    0  0.42168226767E+01  0.25232477006E+02 -0.22718588774E+02  0.12959798499E+03  0.12500017579E+03 0.  0.
         23    2    1    2    0    0 -0.42168226767E+01 -0.25232477006E+02  0.21174453801E+02  0.95725144536E+02  0.89780211146E+02 0.  0.
          5    1    4    4  502    0  0.42076361819E+02 -0.10766430410E+02  0.16787586403E+02  0.46800099412E+02  0.47000000000E+01 0. -1.
         -5    1    4    4    0  502 -0.46293184496E+02 -0.14466046596E+02  0.43868673974E+01  0.48925045125E+02  0.47000000000E+01 0.  1.
          5    1    3    3  503    0 -0.50433678322E+02  0.88154813299E+01  0.23004277939E+02  0.56325442064E+02  0.47000000000E+01 0. -1.
         -5    1    3    3    0  503  0.54650500999E+02  0.16416995676E+02 -0.45722866713E+02  0.73272542926E+02  0.47000000000E+01 0. -1.
<mgrwt>
<rscale>  0 0.11800449E+03</rscale>
<asrwt>0</asrwt>
<pdfrwt beam="1">  1        3 0.17213769E-01 0.12759116E+03</pdfrwt>
<pdfrwt beam="2">  1       -3 0.17451328E-01 0.12759116E+03</pdfrwt>
<totfact> 0.18922857E+03</totfact>
</mgrwt>
</event>
<event>
 8    1  0.3629925E-004  0.1267552E+03  0.7546771E-02  0.1244099E+00
          1   -1    0    0  501    0  0.00000000000E+00  0.00000000000E+00  0.55326354948E+03  0.55326354948E+03  0.00000000000E+00 0. -1.
         -1   -1    0    0    0  501 -0.00000000000E+00 -0.00000000000E+00 -0.25138346840E+02  0.25138346840E+02  0.00000000000E+00 0.  1.
         25    2    1    2    0    0  0.15196860675E+02  0.14466540781E+02  0.37307310233E+03  0.39401830157E+03  0.12500662748E+03 0.  0.
         23    2    1    2    0    0 -0.15196860675E+02 -0.14466540781E+02  0.15505210031E+03  0.18438359475E+03  0.97549632626E+02 0.  0.
          5    1    4    4  502    0 -0.23871745129E+01  0.37857429804E+02  0.10072017746E+03  0.10772895498E+03  0.47000000000E+01 0. -1.
         -5    1    4    4    0  502 -0.12809686162E+02 -0.52323970585E+02  0.54331922846E+02  0.76654639765E+02  0.47000000000E+01 0.  1.
          5    1    3    3  503    0  0.35613898914E+02 -0.25797253552E+02  0.32465089034E+03  0.32764941430E+03  0.47000000000E+01 0.  1.
         -5    1    3    3    0  503 -0.20417038239E+02  0.40263794334E+02  0.48422211986E+02  0.66368887276E+02  0.47000000000E+01 0.  1.
<mgrwt>
<rscale>  0 0.11939491E+03</rscale>
<asrwt>0</asrwt>
<pdfrwt beam="1">  1        1 0.85117460E-01 0.12675521E+03</pdfrwt>
<pdfrwt beam="2">  1       -1 0.38674384E-02 0.12675521E+03</pdfrwt>
<totfact> 0.96690764E+03</totfact>
</mgrwt>
</event>
<event>
 8    1  0.3629925E-004  0.1274672E+03  0.7546771E-02  0.1245198E+00
         -1   -1    0    0    0  501 -0.00000000000E+00  0.00000000000E+00  0.30437575895E+02  0.30437575895E+02  0.00000000000E+00 0.  1.
          1   -1    0    0  501    0  0.00000000000E+00 -0.00000000000E+00 -0.47156767236E+03  0.47156767236E+03  0.00000000000E+00 0. -1.
         25    2    1    2    0    0  0.29286274459E+01 -0.24711889032E+02 -0.15772776186E+03  0.20279528637E+03  0.12501450713E+03 0.  0.
         23    2    1    2    0    0 -0.29286274459E+01  0.24711889032E+02 -0.28340233460E+03  0.29920996189E+03  0.92684754496E+02 0.  0.
          5    1    4    4  502    0  0.35319751149E+02  0.16139166267E+02 -0.22711214522E+03  0.23045601319E+03  0.47000000000E+01 0. -1.
         -5    1    3    3    0  503 -0.77888260993E+01 -0.68935287498E+02 -0.13468322998E+03  0.15157309165E+03  0.47000000000E+01 0.  1.
          5    1    3    3  503    0  0.10717453545E+02  0.44223398465E+02 -0.23044531886E+02  0.51222194722E+02  0.47000000000E+01 0.  1.
         -5    1    4    4    0  502 -0.38248378595E+02  0.85727227658E+01 -0.56290189385E+02  0.68753948699E+02  0.47000000000E+01 0.  1.
<mgrwt>
<rscale>  0 0.11873522E+03</rscale>
<asrwt>0</asrwt>
<pdfrwt beam="1">  1        1 0.72548873E-01 0.12746718E+03</pdfrwt>
<pdfrwt beam="2">  1       -1 0.46827040E-02 0.12746718E+03</pdfrwt>
<totfact> 0.90001190E+03</totfact>
</mgrwt>
</event>
<event>
 8    1  0.3629925E-004  0.1252104E+03  0.7546771E-02  0.1250626E+00
         -2   -1    0    0    0  501 -0.00000000000E+00  0.00000000000E+00  0.28684852273E+02  0.28684852273E+02  0.00000000000E+00 0.  1.
          2   -1    0    0  501    0  0.00000000000E+00 -0.00000000000E+00 -0.48385476185E+03  0.48385476185E+03  0.00000000000E+00 0. -1.
         25    2    1    2    0    0 -0.36586970357E+01 -0.63500624737E+01 -0.35927953441E+03  0.38047263279E+03  0.12499572435E+03 0.  0.
         23    2    1    2    0    0  0.36586970357E+01  0.63500624737E+01 -0.95890375174E+02  0.13206698133E+03  0.90515270255E+02 0.  0.
          5    1    3    3  502    0 -0.29120870490E+02 -0.44216597762E+02 -0.30412477193E+03  0.30873467495E+03  0.47000000000E+01 0.  1.
         -5    1    4    4    0  503  0.26472234340E+02 -0.31813849657E+02 -0.26009262763E+02  0.49106740581E+02  0.47000000000E+01 0.  1.
          5    1    4    4  503    0 -0.22813537304E+02  0.38163912131E+02 -0.69881112411E+02  0.82960240750E+02  0.47000000000E+01 0. -1.
         -5    1    3    3    0  502  0.25462173455E+02  0.37866535289E+02 -0.55154762474E+02  0.71737957842E+02  0.47000000000E+01 0.  1.
<mgrwt>
<rscale>  0 0.11554880E+03</rscale>
<asrwt>0</asrwt>
<pdfrwt beam="1">  1        2 0.74439195E-01 0.12521038E+03</pdfrwt>
<pdfrwt beam="2">  1       -2 0.44130541E-02 0.12521038E+03</pdfrwt>
<totfact> 0.14374409E+04</totfact>
</mgrwt>
</event>
<event>
 8    1  0.3629925E-004  0.1951403E+03  0.7546771E-02  0.1158474E+00
          2   -1    0    0  501    0  0.00000000000E+00  0.00000000000E+00  0.50861294076E+03  0.50861294076E+03  0.00000000000E+00 0. -1.
         -2   -1    0    0    0  501 -0.00000000000E+00 -0.00000000000E+00 -0.84832236111E+02  0.84832236111E+02  0.00000000000E+00 0.  1.
         25    2    1    2    0    0 -0.16087656254E+02  0.14897789731E+03  0.86782435388E+02  0.21356710822E+03  0.12500596806E+03 0.  0.
         23    2    1    2    0    0  0.16087656254E+02 -0.14897789731E+03  0.33699826926E+03  0.37987806865E+03  0.91029044737E+02 0.  0.
          5    1    3    3  502    0 -0.68794435653E+02  0.61214219524E+02  0.33855641760E+02  0.98224994414E+02  0.47000000000E+01 0. -1.
         -5    1    3    3    0  502  0.52706779399E+02  0.87763677788E+02  0.52926793628E+02  0.11534211381E+03  0.47000000000E+01 0. -1.
          5    1    4    4  503    0  0.42575362072E+02 -0.78103763567E+02  0.24487439820E+03  0.26057325310E+03  0.47000000000E+01 0. -1.
         -5    1    4    4    0  503 -0.26487705818E+02 -0.70874133745E+02  0.92123871060E+02  0.11930481555E+03  0.47000000000E+01 0.  1.
<mgrwt>
<rscale>  0 0.18998629E+03</rscale>
<asrwt>0</asrwt>
<pdfrwt beam="1">  1        2 0.78248143E-01 0.19514025E+03</pdfrwt>
<pdfrwt beam="2">  1       -2 0.13051114E-01 0.19514025E+03</pdfrwt>
<totfact> 0.26009013E+03</totfact>
</mgrwt>
</event>
<event>
 8    1  0.3629925E-004  0.1837532E+03  0.7546771E-02  0.1169481E+00
          3   -1    0    0  501    0  0.00000000000E+00  0.00000000000E+00  0.14511239181E+03  0.14511239181E+03  0.00000000000E+00 0. -1.
         -3   -1    0    0    0  501 -0.00000000000E+00 -0.00000000000E+00 -0.22248041805E+03  0.22248041805E+03  0.00000000000E+00 0.  1.
         25    2    1    2    0    0  0.13442391846E+03  0.83873438613E+01 -0.89383904590E+02  0.20433972159E+03  0.12500040810E+03 0.  0.
         23    2    1    2    0    0 -0.13442391846E+03 -0.83873438613E+01  0.12015878359E+02  0.16325308827E+03  0.91471591794E+02 0.  0.
          5    1    3    3  502    0  0.12684015372E+03 -0.40467252024E+02 -0.56082123679E+02  0.14454520981E+03  0.47000000000E+01 0.  1.
         -5    1    3    3    0  502  0.75837647413E+01  0.48854595886E+02 -0.33301780911E+02  0.59794511777E+02  0.47000000000E+01 0.  1.
          5    1    4    4  503    0 -0.73509485796E+00  0.24485016162E+02 -0.37573932375E+00  0.24945692232E+02  0.47000000000E+01 0. -1.
         -5    1    4    4    0  503 -0.13368882361E+03 -0.32872360023E+02  0.12391617682E+02  0.13830739604E+03  0.47000000000E+01 0.  1.
<mgrwt>
<rscale>  0 0.17827755E+03</rscale>
<asrwt>0</asrwt>
<pdfrwt beam="1">  1        3 0.22324983E-01 0.18375320E+03</pdfrwt>
<pdfrwt beam="2">  1       -3 0.34227757E-01 0.18375320E+03</pdfrwt>
<totfact> 0.37337767E+02</totfact>
</mgrwt>
</event>
<event>
 8    1  0.3629925E-004  0.1496064E+03  0.7546771E-02  0.1210736E+00
          2   -1    0    0  501    0  0.00000000000E+00  0.00000000000E+00  0.81859860803E+03  0.81859860803E+03  0.00000000000E+00 0. -1.
         -2   -1    0    0    0  501 -0.00000000000E+00 -0.00000000000E+00 -0.36702730331E+02  0.36702730331E+02  0.00000000000E+00 0.  1.
         25    2    1    2    0    0 -0.14221010824E+02 -0.80963212354E+02  0.68199102403E+03  0.69820757980E+03  0.12499915491E+03 0.  0.
         23    2    1    2    0    0  0.14221010824E+02  0.80963212354E+02  0.99904853673E+02  0.15709375857E+03  0.89107745396E+02 0.  0.
          5    1    3    3  502    0 -0.55485985765E+02  0.21875792237E+01  0.21899326218E+03  0.22597260674E+03  0.47000000000E+01 0.  1.
         -5    1    3    3    0  502  0.41264974941E+02 -0.83150791578E+02  0.46299776185E+03  0.47223497305E+03  0.47000000000E+01 0.  1.
          5    1    4    4  503    0  0.37504356400E+02  0.63975840221E+02  0.10377562721E+03  0.12763602816E+03  0.47000000000E+01 0. -1.
         -5    1    4    4    0  503 -0.23283345576E+02  0.16987372133E+02 -0.38707735348E+01  0.29457730411E+02  0.47000000000E+01 0.  1.
<mgrwt>
<rscale>  0 0.14194428E+03</rscale>
<asrwt>0</asrwt>
<pdfrwt beam="1">  1        2 0.12593823E+00 0.14960638E+03</pdfrwt>
<pdfrwt beam="2">  1       -2 0.56465745E-02 0.14960638E+03</pdfrwt>
<totfact> 0.54557507E+03</totfact>
</mgrwt>
</event>
<event>
 8    1  0.3629925E-004  0.1744460E+03  0.7546771E-02  0.1179479E+00
          2   -1    0    0  501    0  0.00000000000E+00  0.00000000000E+00  0.81288337192E+03  0.81288337192E+03  0.00000000000E+00 0. -1.
         -2   -1    0    0    0  501 -0.00000000000E+00 -0.00000000000E+00 -0.35371973389E+02  0.35371973389E+02  0.00000000000E+00 0.  1.
         25    2    1    2    0    0  0.91232485950E+02 -0.80516981525E+02  0.53007224259E+03  0.55803942747E+03  0.12500027778E+03 0.  0.
         23    2    1    2    0    0 -0.91232485950E+02  0.80516981525E+02  0.24743915594E+03  0.29021591784E+03  0.90514044575E+02 0.  0.
          5    1    3    3  502    0  0.27422981034E+02 -0.58277075441E+02  0.44319861381E+03  0.44787870980E+03  0.47000000000E+01 0. -1.
         -5    1    4    4    0  503 -0.54352338105E+01  0.41353218622E+02  0.25722594783E+02  0.49227759845E+02  0.47000000000E+01 0.  1.
          5    1    4    4  503    0 -0.85797252139E+02  0.39163762903E+02  0.22171656116E+03  0.24098815799E+03  0.47000000000E+01 0. -1.
         -5    1    3    3    0  502  0.63809504916E+02 -0.22239906084E+02  0.86873628773E+02  0.11016071766E+03  0.47000000000E+01 0. -1.
<mgrwt>
<rscale>  0 0.16844565E+03</rscale>
<asrwt>0</asrwt>
<pdfrwt beam="1">  1        2 0.12505897E+00 0.17444604E+03</pdfrwt>
<pdfrwt beam="2">  1       -2 0.54418427E-02 0.17444604E+03</pdfrwt>
<totfact> 0.58588527E+03</totfact>
</mgrwt>
</event>
<event>
 8    1  0.3629925E-004  0.1286152E+03  0.7546771E-02  0.1243832E+00
          3   -1    0    0  501    0  0.00000000000E+00  0.00000000000E+00  0.34668982098E+02  0.34668982098E+02  0.00000000000E+00 0. -1.
         -3   -1    0    0    0  501 -0.00000000000E+00 -0.00000000000E+00 -0.39262240238E+03  0.39262240238E+03  0.00000000000E+00 0.  1.
         25    2    1    2    0    0 -0.35822308556E+01  0.30033168336E+02 -0.26025282416E+03  0.29029880992E+03  0.12500817166E+03 0.  0.
         23    2    1    2    0    0  0.35822308556E+01 -0.30033168336E+02 -0.97700596126E+02  0.13699257456E+03  0.91141293726E+02 0.  0.
          5    1    3    3  502    0  0.26054134147E+02  0.52401056809E+02 -0.51128326759E+02  0.77851682435E+02  0.47000000000E+01 0.  1.
         -5    1    4    4    0  503  0.29003429686E+02 -0.50598211008E+02 -0.81151149879E+02  0.10004487502E+03  0.47000000000E+01 0.  1.
          5    1    4    4  503    0 -0.25421198831E+02  0.20565042672E+02 -0.16549446247E+02  0.36947699538E+02  0.47000000000E+01 0. -1.
         -5    1    3    3    0  502 -0.29636365003E+02 -0.22367888472E+02 -0.20912449740E+03  0.21244712749E+03  0.47000000000E+01 0.  1.
<mgrwt>
<rscale>  0 0.11955555E+03</rscale>
<asrwt>0</asrwt>
<pdfrwt beam="1">  1        3 0.53336890E-02 0.12861519E+03</pdfrwt>
<pdfrwt beam="2">  1       -3 0.60403452E-01 0.12861519E+03</pdfrwt>
<totfact> 0.12735307E+03</totfact>
</mgrwt>
</event>
<event>
 8    1  0.3629925E-004  0.1519503E+03  0.7546771E-02  0.1207257E+00
         -4   -1    0    0    0  501 -0.00000000000E+00  0.00000000000E+00  0.92325020998E+02  0.92325020998E+02  0.00000000000E+00 0.  1.
          4   -1    0    0  501    0  0.00000000000E+00 -0.00000000000E+00 -0.21895006154E+03  0.21895006154E+03  0.00000000000E+00 0. -1.
         25    2    1    2    0    0 -0.82083287002E+02  0.26987212648E+02 -0.10516418018E+03  0.18479289386E+03  0.12499173244E+03 0.  0.
         23    2    1    2    0    0  0.82083287002E+02 -0.26987212648E+02 -0.21460860365E+02  0.12648218868E+03  0.89839856821E+02 0.  0.
          5    1    4    4  502    0  0.36593669179E+02  0.31867998600E+02 -0.17657337863E+02  0.51851109334E+02  0.47000000000E+01 0. -1.
         -5    1    4    4    0  502  0.45489617823E+02 -0.58855211247E+02 -0.38035225022E+01  0.74631079344E+02  0.47000000000E+01 0.  1.
          5    1    3    3  503    0 -0.62353875538E+02 -0.19469519260E+02  0.27676155244E+01  0.65550115717E+02  0.47000000000E+01 0. -1.
         -5    1    3    3    0  503 -0.19729411464E+02  0.46456731907E+02 -0.10793179571E+03  0.11924277815E+03  0.47000000000E+01 0. -1.
<mgrwt>
<rscale>  0 0.14460982E+03</rscale>
<asrwt>0</asrwt>
<pdfrwt beam="1">  1        4 0.33684624E-01 0.15195035E+03</pdfrwt>
<pdfrwt beam="2">  1       -4 0.14203850E-01 0.15195035E+03</pdfrwt>
<totfact> 0.59804910E+02</totfact>
</mgrwt>
</event>
<event>
 8    1  0.3629925E-004  0.3332391E+03  0.7546771E-02  0.1071030E+00
         -1   -1    0    0    0  501 -0.00000000000E+00  0.00000000000E+00  0.12538771869E+03  0.12538771869E+03  0.00000000000E+00 0.  1.
          1   -1    0    0  501    0  0.00000000000E+00 -0.00000000000E+00 -0.85452334677E+03  0.85452334677E+03  0.00000000000E+00 0. -1.
         25    2    1    2    0    0  0.22505273947E+03 -0.21160193199E+03 -0.36808621216E+03  0.49652365696E+03  0.12499667666E+03 0.  0.
         23    2    1    2    0    0 -0.22505273947E+03  0.21160193199E+03 -0.36104941592E+03  0.48338740850E+03  0.88783966998E+02 0.  0.
          5    1    4    4  502    0 -0.21190609840E+03  0.15645568447E+03 -0.31131793401E+03  0.40782780898E+03  0.47000000000E+01 0. -1.
         -5    1    4    4    0  502 -0.13146641075E+02  0.55146247516E+02 -0.49731481906E+02  0.75559599517E+02  0.47000000000E+01 0.  1.
          5    1    3    3  503    0  0.89895718100E+02 -0.15056625399E+03 -0.25704157636E+03  0.31119752401E+03  0.47000000000E+01 0. -1.
         -5    1    3    3    0  503  0.13515702137E+03 -0.61035678004E+02 -0.11104463580E+03  0.18532613295E+03  0.47000000000E+01 0. -1.
<mgrwt>
<rscale>  0 0.33024253E+03</rscale>
<asrwt>0</asrwt>
<pdfrwt beam="1">  1        1 0.13146513E+00 0.33323908E+03</pdfrwt>
<pdfrwt beam="2">  1       -1 0.19290418E-01 0.33323908E+03</pdfrwt>
<totfact> 0.44459943E+02</totfact>
</mgrwt>
</event>
<event>
 8    1  0.3629925E-004  0.1748562E+03  0.7546771E-02  0.1177619E+00
         -1   -1    0    0    0  501 -0.00000000000E+00  0.00000000000E+00  0.11562861387E+03  0.11562861387E+03  0.00000000000E+00 0.  1.
          1   -1    0    0  501    0  0.00000000000E+00 -0.00000000000E+00 -0.23872465420E+03  0.23872465420E+03  0.00000000000E+00 0. -1.
         25    2    1    2    0    0 -0.12169899271E+03  0.11808652282E+02 -0.56230542940E+02  0.18367511913E+03  0.12499834532E+03 0.  0.
         23    2    1    2    0    0  0.12169899271E+03 -0.11808652282E+02 -0.66865497386E+02  0.17067814893E+03  0.98539061731E+02 0.  0.
          5    1    3    3  502    0 -0.91922907284E+02  0.48742803760E+02 -0.79114309641E+02  0.13079314123E+03  0.47000000000E+01 0.  1.
         -5    1    4    4    0  503  0.22558581147E+02 -0.24940162571E+02  0.18888692843E+02  0.38855810502E+02  0.47000000000E+01 0.  1.
          5    1    4    4  503    0  0.99140411564E+02  0.13131510289E+02 -0.85754190229E+02  0.13182233843E+03  0.47000000000E+01 0. -1.
         -5    1    3    3    0  502 -0.29776085428E+02 -0.36934151477E+02  0.22883766702E+02  0.52881977906E+02  0.47000000000E+01 0.  1.
<mgrwt>
<rscale>  0 0.17021973E+03</rscale>
<asrwt>0</asrwt>
<pdfrwt beam="1">  1        1 0.36726870E-01 0.17485616E+03</pdfrwt>
<pdfrwt beam="2">  1       -1 0.17789017E-01 0.17485616E+03</pdfrwt>
<totfact> 0.28017860E+03</totfact>
</mgrwt>
</event>
<event>
 8    1  0.3629925E-004  0.2262652E+03  0.7546771E-02  0.1132694E+00
         -3   -1    0    0    0  501 -0.00000000000E+00  0.00000000000E+00  0.33175550396E+03  0.33175550396E+03  0.00000000000E+00 0.  1.
          3   -1    0    0  501    0  0.00000000000E+00 -0.00000000000E+00 -0.26247482315E+03  0.26247482315E+03  0.00000000000E+00 0. -1.
         25    2    1    2    0    0 -0.17877763800E+03 -0.60076855152E+02 -0.16558221781E+03  0.28038079377E+03  0.12500098515E+03 0.  0.
         23    2    1    2    0    0  0.17877763800E+03  0.60076855152E+02  0.23486289862E+03  0.31384953335E+03  0.88149169370E+02 0.  0.
          5    1    4    4  502    0  0.57499265402E+02 -0.15615435525E+02  0.39189014819E+02  0.71469407658E+02  0.47000000000E+01 0. -1.
         -5    1    4    4    0  502  0.12127837260E+03  0.75692290677E+02  0.19567388380E+03  0.24238012569E+03  0.47000000000E+01 0.  1.
          5    1    3    3  503    0 -0.11421022978E+03  0.21715455960E+02 -0.11804458389E+03  0.16574725156E+03  0.47000000000E+01 0.  1.
         -5    1    3    3    0  503 -0.64567408219E+02 -0.81792311112E+02 -0.47537633921E+02  0.11463354221E+03  0.47000000000E+01 0.  1.
<mgrwt>
<rscale>  0 0.22160296E+03</rscale>
<asrwt>0</asrwt>
<pdfrwt beam="1">  1        3 0.40380742E-01 0.22626515E+03</pdfrwt>
<pdfrwt beam="2">  1       -3 0.51039308E-01 0.22626515E+03</pdfrwt>
<totfact> 0.57634512E+01</totfact>
</mgrwt>
</event>
<event>
 8    1  0.3629925E-004  0.1414537E+03  0.7546771E-02  0.1221917E+00
          2   -1    0    0  501    0  0.00000000000E+00  0.00000000000E+00  0.54455715135E+03  0.54455715135E+03  0.00000000000E+00 0. -1.
         -2   -1    0    0    0  501 -0.00000000000E+00 -0.00000000000E+00 -0.32418755576E+02  0.32418755576E+02  0.00000000000E+00 0.  1.
         25    2    1    2    0    0  0.48000080888E+02  0.45607743715E+02  0.20032712413E+03  0.24523481741E+03  0.12500033982E+03 0.  0.
         23    2    1    2    0    0 -0.48000080888E+02 -0.45607743715E+02  0.31181127164E+03  0.33174108951E+03  0.91879308321E+02 0.  0.
          5    1    3    3  502    0  0.57910317243E+02  0.77734158289E+02  0.18295462187E+03  0.20710067086E+03  0.47000000000E+01 0. -1.
         -5    1    3    3    0  502 -0.99102363545E+01 -0.32126414573E+02  0.17372502258E+02  0.38134146544E+02  0.47000000000E+01 0. -1.
          5    1    4    4  503    0  0.19675816580E+02  0.49296385610E+01  0.12428970061E+03  0.12602165993E+03  0.47000000000E+01 0. -1.
         -5    1    4    4    0  503 -0.67675897468E+02 -0.50537382276E+02  0.18752157103E+03  0.20571942958E+03  0.47000000000E+01 0.  1.
<mgrwt>
<rscale>  0 0.13380481E+03</rscale>
<asrwt>0</asrwt>
<pdfrwt beam="1">  1        2 0.83778017E-01 0.14145373E+03</pdfrwt>
<pdfrwt beam="2">  1       -2 0.49875012E-02 0.14145373E+03</pdfrwt>
<totfact> 0.10603272E+04</totfact>
</mgrwt>
</event>
<event>
 8    1  0.3629925E-004  0.2367079E+03  0.7546771E-02  0.1125126E+00
          2   -1    0    0  501    0  0.00000000000E+00  0.00000000000E+00  0.93469614215E+03  0.93469614215E+03  0.00000000000E+00 0. -1.
         -2   -1    0    0    0  501 -0.00000000000E+00 -0.00000000000E+00 -0.77018111211E+02  0.77018111211E+02  0.00000000000E+00 0.  1.
         25    2    1    2    0    0 -0.18690173164E+03  0.73989860968E+02  0.17393768591E+03  0.29374296667E+03  0.12499542020E+03 0.  0.
         23    2    1    2    0    0  0.18690173164E+03 -0.73989860968E+02  0.68374034503E+03  0.71797128669E+03  0.87035350699E+02 0.  0.
          5    1    3    3  502    0 -0.50677260668E+02 -0.26836427242E+02  0.10964716065E+02  0.58572122843E+02  0.47000000000E+01 0.  1.
         -5    1    3    3    0  502 -0.13622447098E+03  0.10082628821E+03  0.16297296984E+03  0.23517084383E+03  0.47000000000E+01 0.  1.
          5    1    4    4  503    0  0.81797930771E+02 -0.28453746481E+02  0.44194835211E+03  0.45037867745E+03  0.47000000000E+01 0. -1.
         -5    1    4    4    0  503  0.10510380087E+03 -0.45536114488E+02  0.24179199292E+03  0.26759260925E+03  0.47000000000E+01 0.  1.
<mgrwt>
<rscale>  0 0.23216364E+03</rscale>
<asrwt>0</asrwt>
<pdfrwt beam="1">  1        2 0.14379940E+00 0.23670786E+03</pdfrwt>
<pdfrwt beam="2">  1       -2 0.11848941E-01 0.23670786E+03</pdfrwt>
<totfact> 0.14564595E+03</totfact>
</mgrwt>
</event>
<event>
 8    1  0.3629925E-004  0.1342484E+03  0.7546771E-02  0.1233873E+00
          1   -1    0    0  501    0  0.00000000000E+00  0.00000000000E+00  0.77178627925E+03  0.77178627925E+03  0.00000000000E+00 0. -1.
         -1   -1    0    0    0  501 -0.00000000000E+00 -0.00000000000E+00 -0.19748251298E+02  0.19748251298E+02  0.00000000000E+00 0.  1.
         25    2    1    2    0    0  0.43381195464E+01  0.48789008256E+02  0.31472984717E+03  0.34216591674E+03  0.12499380493E+03 0.  0.
         23    2    1    2    0    0 -0.43381195464E+01 -0.48789008256E+02  0.43730818079E+03  0.44936861381E+03  0.91074252615E+02 0.  0.
          5    1    3    3  502    0  0.38511352958E+02  0.72197652031E+02  0.13728770447E+03  0.15989255474E+03  0.47000000000E+01 0. -1.
         -5    1    4    4    0  503 -0.36425592997E+02 -0.52435156435E+02  0.20455530210E+03  0.21433905634E+03  0.47000000000E+01 0.  1.
          5    1    4    4  503    0  0.32087473451E+02  0.36461481791E+01  0.23275287868E+03  0.23502955747E+03  0.47000000000E+01 0. -1.
         -5    1    3    3    0  502 -0.34173233412E+02 -0.23408643775E+02  0.17744214271E+03  0.18227336200E+03  0.47000000000E+01 0. -1.
<mgrwt>
<rscale>  0 0.12576880E+03</rscale>
<asrwt>0</asrwt>
<pdfrwt beam="1">  1        1 0.11873633E+00 0.13424842E+03</pdfrwt>
<pdfrwt beam="2">  1       -1 0.30381931E-02 0.13424842E+03</pdfrwt>
<totfact> 0.86676542E+03</totfact>
</mgrwt>
</event>
<event>
 8    1  0.3629925E-004  0.1337053E+03  0.7546771E-02  0.1233863E+00
          2   -1    0    0  501    0  0.00000000000E+00  0.00000000000E+00  0.73140257392E+03  0.73140257392E+03  0.00000000000E+00 0. -1.
         -2   -1    0    0    0  501 -0.00000000000E+00 -0.00000000000E+00 -0.20308010922E+02  0.20308010922E+02  0.00000000000E+00 0.  1.
         25    2    1    2    0    0 -0.13166464212E+02  0.45568036100E+02  0.47467667845E+03  0.49314810411E+03  0.12500920700E+03 0.  0.
         23    2    1    2    0    0  0.13166464212E+02 -0.45568036100E+02  0.23641788455E+03  0.25856248073E+03  0.93334552075E+02 0.  0.
          5    1    3    3  502    0 -0.62341755098E+02  0.23479662144E+02  0.15282830009E+03  0.16678239797E+03  0.47000000000E+01 0. -1.
         -5    1    3    3    0  502  0.49175290887E+02  0.22088373956E+02  0.32184837835E+03  0.32636570614E+03  0.47000000000E+01 0. -1.
          5    1    4    4  503    0  0.39423544111E+01 -0.68373948150E+02  0.21471400496E+03  0.22542123429E+03  0.47000000000E+01 0. -1.
         -5    1    4    4    0  503  0.92241098005E+01  0.22805912050E+02  0.21703879590E+02  0.33141246435E+02  0.47000000000E+01 0.  1.
<mgrwt>
<rscale>  0 0.12577473E+03</rscale>
<asrwt>0</asrwt>
<pdfrwt beam="1">  1        2 0.11252345E+00 0.13370529E+03</pdfrwt>
<pdfrwt beam="2">  1       -2 0.31243099E-02 0.13370529E+03</pdfrwt>
<totfact> 0.15052676E+04</totfact>
</mgrwt>
</event>
<event>
 8    1  0.3629925E-004  0.1265727E+03  0.7546771E-02  0.1247342E+00
          1   -1    0    0  501    0  0.00000000000E+00  0.00000000000E+00  0.42046844922E+03  0.42046844922E+03  0.00000000000E+00 0. -1.
         -1   -1    0    0    0  501 -0.00000000000E+00 -0.00000000000E+00 -0.31251808071E+02  0.31251808071E+02  0.00000000000E+00 0.  1.
         25    2    1    2    0    0 -0.17872468750E+02 -0.87535559399E+01  0.15992024067E+03  0.20394883774E+03  0.12499838062E+03 0.  0.
         23    2    1    2    0    0  0.17872468750E+02  0.87535559399E+01  0.22929640048E+03  0.24777141956E+03  0.91748499677E+02 0.  0.
          5    1    3    3  502    0 -0.12590109525E+02 -0.30109564410E+02  0.17420675680E+03  0.17729969216E+03  0.47000000000E+01 0.  1.
         -5    1    3    3    0  502 -0.52823592250E+01  0.21356008470E+02 -0.14286516130E+02  0.26649145575E+02  0.47000000000E+01 0.  1.
          5    1    4    4  503    0  0.46236011262E+02  0.27434511974E+02  0.95932364163E+02  0.11007056681E+03  0.47000000000E+01 0. -1.
         -5    1    4    4    0  503 -0.28363542512E+02 -0.18680956034E+02  0.13336403632E+03  0.13770085274E+03  0.47000000000E+01 0.  1.
<mgrwt>
<rscale>  0 0.11746288E+03</rscale>
<asrwt>0</asrwt>
<pdfrwt beam="1">  1        1 0.64687450E-01 0.12657269E+03</pdfrwt>
<pdfrwt beam="2">  1       -1 0.48079708E-02 0.12657269E+03</pdfrwt>
<totfact> 0.10015304E+04</totfact>
</mgrwt>
</event>
<event>
 8    1  0.3629925E-004  0.1377046E+03  0.7546771E-02  0.1230286E+00
         -1   -1    0    0    0  501 -0.00000000000E+00  0.00000000000E+00  0.18981030875E+03  0.18981030875E+03  0.00000000000E+00 0.  1.
          1   -1    0    0  501    0  0.00000000000E+00 -0.00000000000E+00 -0.76416058339E+02  0.76416058339E+02  0.00000000000E+00 0. -1.
         25    2    1    2    0    0 -0.44624712483E+02 -0.36704610947E+02  0.65960430181E+02  0.15268701268E+03  0.12499580818E+03 0.  0.
         23    2    1    2    0    0  0.44624712483E+02  0.36704610947E+02  0.47433820229E+02  0.11353935441E+03  0.85455393444E+02 0.  0.
          5    1    4    4  502    0 -0.20474599919E+00  0.48168006304E+02  0.18751651450E+01  0.48433511090E+02  0.47000000000E+01 0. -1.
         -5    1    3    3    0  503  0.39139863565E+02  0.11174465480E+02  0.22742743610E+02  0.46862778252E+02  0.47000000000E+01 0.  1.
          5    1    3    3  503    0 -0.83764576048E+02 -0.47879076427E+02  0.43217686571E+02  0.10582423443E+03  0.47000000000E+01 0.  1.
         -5    1    4    4    0  502  0.44829458482E+02 -0.11463395357E+02  0.45558655084E+02  0.65105843317E+02  0.47000000000E+01 0.  1.
<mgrwt>
<rscale>  0 0.12811063E+03</rscale>
<asrwt>0</asrwt>
<pdfrwt beam="1">  1        1 0.11756317E-01 0.13770456E+03</pdfrwt>
<pdfrwt beam="2">  1       -1 0.29201586E-01 0.13770456E+03</pdfrwt>
<totfact> 0.52644152E+03</totfact>
</mgrwt>
</event>
<event>
 8    1  0.3629925E-004  0.1267880E+03  0.7546771E-02  0.1252995E+00
          4   -1    0    0  501    0  0.00000000000E+00  0.00000000000E+00  0.16733353851E+03  0.16733353851E+03  0.00000000000E+00 0. -1.
         -4   -1    0    0    0  501 -0.00000000000E+00 -0.00000000000E+00 -0.66878466104E+02  0.66878466104E+02  0.00000000000E+00 0.  1.
         25    2    1    2    0    0 -0.83621019478E+01  0.19515048334E+02  0.47501947968E+02  0.13539431613E+03  0.12499769566E+03 0.  0.
         23    2    1    2    0    0  0.83621019478E+01 -0.19515048334E+02  0.52953124434E+02  0.98817688478E+02  0.80685440498E+02 0.  0.
          5    1    3    3  502    0  0.11574255491E+02  0.56132015457E+02  0.67702243222E+02  0.88828206594E+02  0.47000000000E+01 0. -1.
         -5    1    3    3    0  502 -0.19936357439E+02 -0.36616967122E+02 -0.20200295254E+02  0.46566109538E+02  0.47000000000E+01 0. -1.
          5    1    4    4  503    0  0.22322250356E+00 -0.43748015689E+02  0.57528648803E+02  0.72426335943E+02  0.47000000000E+01 0. -1.
         -5    1    4    4    0  503  0.81388794442E+01  0.24232967355E+02 -0.45755243687E+01  0.26391352536E+02  0.47000000000E+01 0.  1.
<mgrwt>
<rscale>  0 0.11419358E+03</rscale>
<asrwt>0</asrwt>
<pdfrwt beam="1">  1        4 0.25743621E-01 0.12678796E+03</pdfrwt>
<pdfrwt beam="2">  1       -4 0.10288995E-01 0.12678796E+03</pdfrwt>
<totfact> 0.16616443E+03</totfact>
</mgrwt>
</event>
<event>
 8    1  0.3629925E-004  0.1379853E+03  0.7546771E-02  0.1227953E+00
          1   -1    0    0  501    0  0.00000000000E+00  0.00000000000E+00  0.11837357687E+03  0.11837357687E+03  0.00000000000E+00 0. -1.
         -1   -1    0    0    0  501 -0.00000000000E+00 -0.00000000000E+00 -0.21405082434E+03  0.21405082434E+03  0.00000000000E+00 0.  1.
         25    2    1    2    0    0  0.58100778804E+02  0.62136823645E+01 -0.15664676680E+03  0.20875380306E+03  0.12500252157E+03 0.  0.
         23    2    1    2    0    0 -0.58100778804E+02 -0.62136823645E+01  0.60969519323E+02  0.12367059815E+03  0.90348349265E+02 0.  0.
          5    1    4    4  502    0 -0.33473914731E+02 -0.53200518226E+01  0.83319005045E+02  0.90071929703E+02  0.47000000000E+01 0. -1.
         -5    1    3    3    0  503  0.58874754776E+02 -0.51200788566E+02 -0.71413051641E+02  0.10587573586E+03  0.47000000000E+01 0.  1.
          5    1    3    3  503    0 -0.77397597218E+00  0.57414470930E+02 -0.85233715156E+02  0.10287806720E+03  0.47000000000E+01 0.  1.
         -5    1    4    4    0  502 -0.24626864073E+02 -0.89363054188E+00 -0.22349485721E+02  0.33598668450E+02  0.47000000000E+01 0.  1.
<mgrwt>
<rscale>  0 0.12966559E+03</rscale>
<asrwt>0</asrwt>
<pdfrwt beam="1">  1        1 0.18211320E-01 0.13798529E+03</pdfrwt>
<pdfrwt beam="2">  1       -1 0.32930896E-01 0.13798529E+03</pdfrwt>
<totfact> 0.24366343E+03</totfact>
</mgrwt>
</event>
<event>
 8    1  0.3629925E-004  0.1383545E+03  0.7546771E-02  0.1227076E+00
          2   -1    0    0  501    0  0.00000000000E+00  0.00000000000E+00  0.83670240521E+02  0.83670240521E+02  0.00000000000E+00 0. -1.
         -2   -1    0    0    0  501 -0.00000000000E+00 -0.00000000000E+00 -0.23378588182E+03  0.23378588182E+03  0.00000000000E+00 0.  1.
         25    2    1    2    0    0 -0.38735749722E+02  0.44924131301E+02 -0.15610803258E+03  0.20859457318E+03  0.12499336880E+03 0.  0.
         23    2    1    2    0    0  0.38735749722E+02 -0.44924131301E+02  0.59923912810E+01  0.10886154916E+03  0.91083984611E+02 0.  0.
          5    1    4    4  502    0  0.12570631070E+02  0.23048396014E+02  0.21486215047E+02  0.34249040299E+02  0.47000000000E+01 0. -1.
         -5    1    4    4    0  502  0.26165118652E+02 -0.67972527315E+02 -0.15493823766E+02  0.74612508861E+02  0.47000000000E+01 0.  1.
          5    1    3    3  503    0 -0.47603705040E+02 -0.14421755725E+02 -0.13639873301E+03  0.14526115840E+03  0.47000000000E+01 0.  1.
         -5    1    3    3    0  503  0.88679553181E+01  0.59345887026E+02 -0.19709299565E+02  0.63333414780E+02  0.47000000000E+01 0.  1.
<mgrwt>
<rscale>  0 0.13025636E+03</rscale>
<asrwt>0</asrwt>
<pdfrwt beam="1">  1        2 0.12872345E-01 0.13835454E+03</pdfrwt>
<pdfrwt beam="2">  1       -2 0.35967059E-01 0.13835454E+03</pdfrwt>
<totfact> 0.32867820E+03</totfact>
</mgrwt>
</event>
<event>
 8    1  0.3629925E-004  0.1682717E+03  0.7546771E-02  0.1186344E+00
          2   -1    0    0  501    0  0.00000000000E+00  0.00000000000E+00  0.12550063620E+03  0.12550063620E+03  0.00000000000E+00 0. -1.
         -2   -1    0    0    0  501 -0.00000000000E+00 -0.00000000000E+00 -0.19617299262E+03  0.19617299262E+03  0.00000000000E+00 0.  1.
         25    2    1    2    0    0  0.11082462169E+03 -0.20237713874E+02 -0.27832043302E+02  0.17055788678E+03  0.12499483299E+03 0.  0.
         23    2    1    2    0    0 -0.11082462169E+03  0.20237713874E+02 -0.42840313127E+02  0.15111574204E+03  0.91153788891E+02 0.  0.
          5    1    4    4  502    0 -0.63883321263E+02 -0.33801115096E+02 -0.29224553049E+02  0.78100951455E+02  0.47000000000E+01 0. -1.
         -5    1    4    4    0  502 -0.46941300423E+02  0.54038828970E+02 -0.13615760078E+02  0.73014790586E+02  0.47000000000E+01 0.  1.
          5    1    3    3  503    0  0.13520105444E+03 -0.40729931396E+01 -0.35569185713E+02  0.13993988484E+03  0.47000000000E+01 0. -1.
         -5    1    3    3    0  503 -0.24376432756E+02 -0.16164720734E+02  0.77371424106E+01  0.30618001944E+02  0.47000000000E+01 0. -1.
<mgrwt>
<rscale>  0 0.16210167E+03</rscale>
<asrwt>0</asrwt>
<pdfrwt beam="1">  1        2 0.19307790E-01 0.16827172E+03</pdfrwt>
<pdfrwt beam="2">  1       -2 0.30180460E-01 0.16827172E+03</pdfrwt>
<totfact> 0.28524200E+03</totfact>
</mgrwt>
</event>
<event>
 8    1  0.3629925E-004  0.1511736E+03  0.7546771E-02  0.1208907E+00
         -1   -1    0    0    0  501 -0.00000000000E+00  0.00000000000E+00  0.13812015909E+03  0.13812015909E+03  0.00000000000E+00 0.  1.
          1   -1    0    0  501    0  0.00000000000E+00 -0.00000000000E+00 -0.24234985873E+03  0.24234985873E+03  0.00000000000E+00 0. -1.
         25    2    1    2    0    0 -0.83182050138E+02  0.17541142835E+02 -0.18126378614E+03  0.23602970371E+03  0.12500606270E+03 0.  0.
         23    2    1    2    0    0  0.83182050138E+02 -0.17541142835E+02  0.77034086505E+02  0.14444031411E+03  0.87759949283E+02 0.  0.
          5    1    4    4  502    0  0.55434716393E+02 -0.42757676133E+02  0.14919873629E+02  0.71735063107E+02  0.47000000000E+01 0. -1.
         -5    1    3    3    0  503 -0.59426362221E+02 -0.55219605064E+00 -0.80002206158E+01  0.60148906700E+02  0.47000000000E+01 0.  1.
          5    1    3    3  503    0 -0.23755687917E+02  0.18093338886E+02 -0.17326356552E+03  0.17588079701E+03  0.47000000000E+01 0.  1.
         -5    1    4    4    0  502  0.27747333745E+02  0.25216533298E+02  0.62114212877E+02  0.72705250999E+02  0.47000000000E+01 0.  1.
<mgrwt>
<rscale>  0 0.14333754E+03</rscale>
<asrwt>0</asrwt>
<pdfrwt beam="1">  1        1 0.37284593E-01 0.15117361E+03</pdfrwt>
<pdfrwt beam="2">  1       -1 0.21249255E-01 0.15117361E+03</pdfrwt>
<totfact> 0.20548748E+03</totfact>
</mgrwt>
</event>
<event>
 8    1  0.3629925E-004  0.1278508E+03  0.7546771E-02  0.1246133E+00
         -2   -1    0    0    0  501 -0.00000000000E+00  0.00000000000E+00  0.54023262606E+02  0.54023262606E+02  0.00000000000E+00 0.  1.
          2   -1    0    0  501    0  0.00000000000E+00 -0.00000000000E+00 -0.25899251418E+03  0.25899251418E+03  0.00000000000E+00 0. -1.
         25    2    1    2    0    0 -0.23696668720E+02  0.12517738833E+02 -0.17139376108E+03  0.21382622902E+03  0.12501043552E+03 0.  0.
         23    2    1    2    0    0  0.23696668720E+02 -0.12517738833E+02 -0.33575490500E+02  0.99189547762E+02  0.89403729950E+02 0.  0.
          5    1    3    3  502    0  0.10848925237E+02  0.60846310405E+02 -0.54144788221E+02  0.82302616970E+02  0.47000000000E+01 0.  1.
         -5    1    3    3    0  502 -0.34545593957E+02 -0.48328571573E+02 -0.11724897285E+03  0.13152361205E+03  0.47000000000E+01 0.  1.
          5    1    4    4  503    0 -0.51230398826E+01 -0.41327154683E+02 -0.39685839626E+02  0.57716852986E+02  0.47000000000E+01 0. -1.
         -5    1    4    4    0  503  0.28819708603E+02  0.28809415850E+02  0.61103491261E+01  0.41472694776E+02  0.47000000000E+01 0.  1.
<mgrwt>
<rscale>  0 0.11817830E+03</rscale>
<asrwt>0</asrwt>
<pdfrwt beam="1">  1        2 0.39845002E-01 0.12785083E+03</pdfrwt>
<pdfrwt beam="2">  1       -2 0.83112713E-02 0.12785083E+03</pdfrwt>
<totfact> 0.10730277E+04</totfact>
</mgrwt>
</event>
<event>
 8    1  0.3629925E-004  0.1864008E+03  0.7546771E-02  0.1165412E+00
          1   -1    0    0  501    0  0.00000000000E+00  0.00000000000E+00  0.25715048904E+03  0.25715048904E+03  0.00000000000E+00 0. -1.
         -1   -1    0    0    0  501 -0.00000000000E+00 -0.00000000000E+00 -0.12510002462E+03  0.12510002462E+03  0.00000000000E+00 0.  1.
         25    2    1    2    0    0  0.12195753273E+03 -0.65169427856E+02  0.54127341629E+02  0.19410054593E+03  0.12499823479E+03 0.  0.
         23    2    1    2    0    0 -0.12195753273E+03  0.65169427856E+02  0.77923122789E+02  0.18814996773E+03  0.10103317857E+03 0.  0.
          5    1    3    3  502    0  0.98805985651E+02 -0.52357848059E+02 -0.21388527107E+02  0.11394527698E+03  0.47000000000E+01 0.  1.
         -5    1    3    3    0  502  0.23151547083E+02 -0.12811579797E+02  0.75515868737E+02  0.80155268949E+02  0.47000000000E+01 0.  1.
          5    1    4    4  503    0 -0.19917091855E+02  0.55335749497E+02  0.59680710278E+02  0.83920277047E+02  0.47000000000E+01 0. -1.
         -5    1    4    4    0  503 -0.10204044088E+03  0.98336783585E+01  0.18242412511E+02  0.10422969068E+03  0.47000000000E+01 0.  1.
<mgrwt>
<rscale>  0 0.18249327E+03</rscale>
<asrwt>0</asrwt>
<pdfrwt beam="1">  1        1 0.39561614E-01 0.18640079E+03</pdfrwt>
<pdfrwt beam="2">  1       -1 0.19246158E-01 0.18640079E+03</pdfrwt>
<totfact> 0.22556115E+03</totfact>
</mgrwt>
</event>
<event>
 8    1  0.3629925E-004  0.1314925E+03  0.7546771E-02  0.1239710E+00
          1   -1    0    0  501    0  0.00000000000E+00  0.00000000000E+00  0.94777676746E+02  0.94777676746E+02  0.00000000000E+00 0. -1.
         -1   -1    0    0    0  501 -0.00000000000E+00 -0.00000000000E+00 -0.14317747583E+03  0.14317747583E+03  0.00000000000E+00 0.  1.
         25    2    1    2    0    0  0.37120450426E+02 -0.16945889091E+02 -0.64705105692E+01  0.13165158896E+03  0.12500072948E+03 0.  0.
         23    2    1    2    0    0 -0.37120450426E+02  0.16945889091E+02 -0.41929288510E+02  0.10630356362E+03  0.88754106415E+02 0.  0.
          5    1    4    4  502    0 -0.20268581367E+02  0.44003487158E+02  0.54792984667E+01  0.48981986325E+02  0.47000000000E+01 0. -1.
         -5    1    3    3    0  503 -0.13274425008E+02  0.38558606589E+02  0.27294187393E+02  0.49295427443E+02  0.47000000000E+01 0.  1.
          5    1    3    3  503    0  0.50394875434E+02 -0.55504495680E+02 -0.33764697962E+02  0.82356161513E+02  0.47000000000E+01 0.  1.
         -5    1    4    4    0  502 -0.16851869059E+02 -0.27057598067E+02 -0.47408586977E+02  0.57321577291E+02  0.47000000000E+01 0.  1.
<mgrwt>
<rscale>  0 0.12207671E+03</rscale>
<asrwt>0</asrwt>
<pdfrwt beam="1">  1        1 0.14581181E-01 0.13149248E+03</pdfrwt>
<pdfrwt beam="2">  1       -1 0.22027304E-01 0.13149248E+03</pdfrwt>
<totfact> 0.63018975E+03</totfact>
</mgrwt>
</event>
<event>
 8    1  0.3629925E-004  0.1315954E+03  0.7546771E-02  0.1241746E+00
         -2   -1    0    0    0  501 -0.00000000000E+00  0.00000000000E+00  0.34700970784E+02  0.34700970784E+02  0.00000000000E+00 0.  1.
          2   -1    0    0  501    0  0.00000000000E+00 -0.00000000000E+00 -0.40557421380E+03  0.40557421380E+03  0.00000000000E+00 0. -1.
         25    2    1    2    0    0  0.12839924156E+02 -0.39082761306E+02 -0.28233456466E+03  0.31149663672E+03  0.12500008961E+03 0.  0.
         23    2    1    2    0    0 -0.12839924156E+02  0.39082761306E+02 -0.88538678363E+02  0.12877854787E+03  0.83979110154E+02 0.  0.
          5    1    4    4  502    0 -0.21757026384E+02  0.63215950541E+02 -0.68477835543E+02  0.95817162139E+02  0.47000000000E+01 0. -1.
         -5    1    3    3    0  503  0.58809230706E+02 -0.33971982205E+02 -0.23691288839E+03  0.24650036080E+03  0.47000000000E+01 0.  1.
          5    1    3    3  503    0 -0.45969306551E+02 -0.51107791016E+01 -0.45421676272E+02  0.64996275917E+02  0.47000000000E+01 0.  1.
         -5    1    4    4    0  502  0.89171022279E+01 -0.24133189235E+02 -0.20060842820E+02  0.32961385733E+02  0.47000000000E+01 0.  1.
<mgrwt>
<rscale>  0 0.12082293E+03</rscale>
<asrwt>0</asrwt>
<pdfrwt beam="1">  1        2 0.62396031E-01 0.13159540E+03</pdfrwt>
<pdfrwt beam="2">  1       -2 0.53386110E-02 0.13159540E+03</pdfrwt>
<totfact> 0.13126730E+04</totfact>
</mgrwt>
</event>
<event>
 8    1  0.3629925E-004  0.2213330E+03  0.7546771E-02  0.1136297E+00
         -1   -1    0    0    0  501 -0.00000000000E+00  0.00000000000E+00  0.15362212282E+04  0.15362212282E+04  0.00000000000E+00 0.  1.
          1   -1    0    0  501    0  0.00000000000E+00 -0.00000000000E+00 -0.29556448582E+02  0.29556448582E+02  0.00000000000E+00 0. -1.
         25    2    1    2    0    0  0.14719002347E+03 -0.10814663790E+03  0.84087904639E+03  0.86952047634E+03  0.12501075886E+03 0.  0.
         23    2    1    2    0    0 -0.14719002347E+03  0.10814663790E+03  0.66578573328E+03  0.69625720048E+03  0.90237732084E+02 0.  0.
          5    1    3    3  502    0  0.93811964641E+02 -0.13246936461E+03  0.60576955202E+03  0.62715839899E+03  0.47000000000E+01 0.  1.
         -5    1    4    4    0  503 -0.69924863727E+02  0.23614816114E+01  0.28659511442E+03  0.29504900063E+03  0.47000000000E+01 0.  1.
          5    1    4    4  503    0 -0.77265159739E+02  0.10578515629E+03  0.37919061886E+03  0.40120819985E+03  0.47000000000E+01 0. -1.
         -5    1    3    3    0  502  0.53378058826E+02  0.24322726702E+02  0.23510949437E+03  0.24236207736E+03  0.47000000000E+01 0.  1.
<mgrwt>
<rscale>  0 0.21679293E+03</rscale>
<asrwt>0</asrwt>
<pdfrwt beam="1">  1        1 0.45471471E-02 0.22133298E+03</pdfrwt>
<pdfrwt beam="2">  1       -1 0.23634167E+00 0.22133298E+03</pdfrwt>
<totfact> 0.18473095E+02</totfact>
</mgrwt>
</event>
<event>
 8    1  0.3629925E-004  0.1267543E+03  0.7546771E-02  0.1249464E+00
         -1   -1    0    0    0  501 -0.00000000000E+00  0.00000000000E+00  0.17124385124E+02  0.17124385124E+02  0.00000000000E+00 0.  1.
          1   -1    0    0  501    0  0.00000000000E+00 -0.00000000000E+00 -0.73316631625E+03  0.73316631625E+03  0.00000000000E+00 0. -1.
         25    2    1    2    0    0  0.10567792192E+02 -0.18160435810E+02 -0.31886243048E+03  0.34313248655E+03  0.12500069638E+03 0.  0.
         23    2    1    2    0    0 -0.10567792192E+02  0.18160435810E+02 -0.39717950065E+03  0.40715821482E+03  0.87090622360E+02 0.  0.
          5    1    3    3  502    0  0.61220244550E+02  0.18223852247E+02 -0.15259986083E+03  0.16549572399E+03  0.47000000000E+01 0.  1.
         -5    1    4    4    0  503 -0.95495229347E+01 -0.32663395939E+02 -0.22372208679E+03  0.22634432385E+03  0.47000000000E+01 0.  1.
          5    1    4    4  503    0 -0.10182692577E+01  0.50823831749E+02 -0.17345741386E+03  0.18081389097E+03  0.47000000000E+01 0. -1.
         -5    1    3    3    0  502 -0.50652452357E+02 -0.36384288058E+02 -0.16626256966E+03  0.17763676257E+03  0.47000000000E+01 0.  1.
<mgrwt>
<rscale>  0 0.11622142E+03</rscale>
<asrwt>0</asrwt>
<pdfrwt beam="1">  1        1 0.11279481E+00 0.12675430E+03</pdfrwt>
<pdfrwt beam="2">  1       -1 0.26345210E-02 0.12675430E+03</pdfrwt>
<totfact> 0.11452185E+04</totfact>
</mgrwt>
</event>
<event>
 8    1  0.3629925E-004  0.1486265E+03  0.7546771E-02  0.1211586E+00
          1   -1    0    0  501    0  0.00000000000E+00  0.00000000000E+00  0.41067555678E+03  0.41067555678E+03  0.00000000000E+00 0. -1.
         -1   -1    0    0    0  501 -0.00000000000E+00 -0.00000000000E+00 -0.78178983546E+02  0.78178983546E+02  0.00000000000E+00 0.  1.
         25    2    1    2    0    0 -0.77006703698E+02 -0.23191162806E+02  0.15543447197E+02  0.14943701339E+03  0.12498783850E+03 0.  0.
         23    2    1    2    0    0  0.77006703698E+02  0.23191162806E+02  0.31695312603E+03  0.33941752694E+03  0.90978629586E+02 0.  0.
          5    1    4    4  502    0  0.36357755425E+02 -0.26778320113E+02  0.20681383272E+03  0.21173808399E+03  0.47000000000E+01 0. -1.
         -5    1    4    4    0  502  0.40648948273E+02  0.49969482919E+02  0.11013929331E+03  0.12767944294E+03  0.47000000000E+01 0.  1.
          5    1    3    3  503    0 -0.72420288207E+02 -0.69588662566E+02  0.19468980700E+02  0.10241294504E+03  0.47000000000E+01 0. -1.
         -5    1    3    3    0  503 -0.45864154908E+01  0.46397499760E+02 -0.39255335028E+01  0.47024068351E+02  0.47000000000E+01 0. -1.
<mgrwt>
<rscale>  0 0.14130339E+03</rscale>
<asrwt>0</asrwt>
<pdfrwt beam="1">  1        1 0.63180854E-01 0.14862645E+03</pdfrwt>
<pdfrwt beam="2">  1       -1 0.12027536E-01 0.14862645E+03</pdfrwt>
<totfact> 0.26140570E+03</totfact>
</mgrwt>
</event>
<event>
 8    1  0.3629925E-004  0.1534967E+03  0.7546771E-02  0.1204473E+00
          2   -1    0    0  501    0  0.00000000000E+00  0.00000000000E+00  0.66221636689E+03  0.66221636689E+03  0.00000000000E+00 0. -1.
         -2   -1    0    0    0  501 -0.00000000000E+00 -0.00000000000E+00 -0.33539454244E+02  0.33539454244E+02  0.00000000000E+00 0.  1.
         25    2    1    2    0    0  0.89015163049E+02 -0.34041113738E+01  0.22671334554E+03  0.27378858512E+03  0.12500384422E+03 0.  0.
         23    2    1    2    0    0 -0.89015163049E+02  0.34041113738E+01  0.40196356710E+03  0.42196723601E+03  0.92446480512E+02 0.  0.
          5    1    4    4  502    0 -0.69930805298E+02  0.16916974556E+02  0.38733152725E+03  0.39398515652E+03  0.47000000000E+01 0. -1.
         -5    1    4    4    0  502 -0.19084357751E+02 -0.13512863182E+02  0.14632039855E+02  0.27982079488E+02  0.47000000000E+01 0.  1.
          5    1    3    3  503    0  0.52195436231E+02 -0.36034698739E+02  0.21329813380E+03  0.22257818168E+03  0.47000000000E+01 0. -1.
         -5    1    3    3    0  503  0.36819726818E+02  0.32630587365E+02  0.13415211737E+02  0.51210403442E+02  0.47000000000E+01 0. -1.
<mgrwt>
<rscale>  0 0.14679099E+03</rscale>
<asrwt>0</asrwt>
<pdfrwt beam="1">  1        2 0.10187943E+00 0.15349674E+03</pdfrwt>
<pdfrwt beam="2">  1       -2 0.51599165E-02 0.15349674E+03</pdfrwt>
<totfact> 0.80972662E+03</totfact>
</mgrwt>
</event>
<event>
 8    1  0.3629925E-004  0.1394067E+03  0.7546771E-02  0.1225905E+00
         -1   -1    0    0    0  501 -0.00000000000E+00  0.00000000000E+00  0.14452135005E+03  0.14452135005E+03  0.00000000000E+00 0.  1.
          1   -1    0    0  501    0  0.00000000000E+00 -0.00000000000E+00 -0.10748844759E+03  0.10748844759E+03  0.00000000000E+00 0. -1.
         25    2    1    2    0    0 -0.42272690502E+02  0.44975434659E+02  0.95983104642E+01  0.13973670994E+03  0.12499780181E+03 0.  0.
         23    2    1    2    0    0  0.42272690502E+02 -0.44975434659E+02  0.27434592000E+02  0.11227308769E+03  0.89681766805E+02 0.  0.
          5    1    4    4  502    0  0.62407315582E+02 -0.17951334462E+02 -0.49545483430E+01  0.65295949311E+02  0.47000000000E+01 0. -1.
         -5    1    3    3    0  503 -0.21256868430E+02  0.72283364085E+01  0.65228318025E+02  0.69144246146E+02  0.47000000000E+01 0.  1.
          5    1    3    3  503    0 -0.21015822072E+02  0.37747098250E+02 -0.55630007561E+02  0.70592463797E+02  0.47000000000E+01 0.  1.
         -5    1    4    4    0  502 -0.20134625080E+02 -0.27024100196E+02  0.32389140343E+02  0.46977138383E+02  0.47000000000E+01 0.  1.
<mgrwt>
<rscale>  0 0.13105069E+03</rscale>
<asrwt>0</asrwt>
<pdfrwt beam="1">  1        1 0.16536684E-01 0.13940667E+03</pdfrwt>
<pdfrwt beam="2">  1       -1 0.22234054E-01 0.13940667E+03</pdfrwt>
<totfact> 0.52965637E+03</totfact>
</mgrwt>
</event>
<event>
 8    1  0.3629925E-004  0.1524340E+03  0.7546771E-02  0.1206579E+00
          2   -1    0    0  501    0  0.00000000000E+00  0.00000000000E+00  0.76354741296E+03  0.76354741296E+03  0.00000000000E+00 0.  1.
         -2   -1    0    0    0  501 -0.00000000000E+00 -0.00000000000E+00 -0.28095383964E+02  0.28095383964E+02  0.00000000000E+00 0. -1.
         25    2    1    2    0    0  0.19261708424E+02 -0.85070507252E+02  0.27465871453E+03  0.31412341964E+03  0.12501243413E+03 0.  0.
         23    2    1    2    0    0 -0.19261708424E+02  0.85070507252E+02  0.46079331447E+03  0.47751937728E+03  0.89923703247E+02 0.  0.
          5    1    4    4  502    0  0.17210193381E+02  0.15314547092E+02  0.23752260520E+02  0.33421340318E+02  0.47000000000E+01 0. -1.
         -5    1    3    3    0  503 -0.30670469042E+02 -0.92892834845E+02  0.14592519772E+03  0.17574415998E+03  0.47000000000E+01 0.  1.
          5    1    3    3  503    0  0.49932177466E+02  0.78223275933E+01  0.12873351681E+03  0.13837925966E+03  0.47000000000E+01 0.  1.
         -5    1    4    4    0  502 -0.36471901804E+02  0.69755960160E+02  0.43704105395E+03  0.44409803696E+03  0.47000000000E+01 0.  1.
<mgrwt>
<rscale>  0 0.14513728E+03</rscale>
<asrwt>0</asrwt>
<pdfrwt beam="1">  1        2 0.11746882E+00 0.15243396E+03</pdfrwt>
<pdfrwt beam="2">  1       -2 0.43223673E-02 0.15243396E+03</pdfrwt>
<totfact> 0.89025906E+03</totfact>
</mgrwt>
</event>
<event>
 8    1  0.3629925E-004  0.1269890E+03  0.7546771E-02  0.1246315E+00
          2   -1    0    0  501    0  0.00000000000E+00  0.00000000000E+00  0.10472504035E+04  0.10472504035E+04  0.00000000000E+00 0. -1.
         -2   -1    0    0    0  501 -0.00000000000E+00 -0.00000000000E+00 -0.13854315879E+02  0.13854315879E+02  0.00000000000E+00 0.  1.
         25    2    1    2    0    0 -0.11656177157E+02 -0.19111148758E+02  0.37531894467E+03  0.39622029454E+03  0.12500043643E+03 0.  0.
         23    2    1    2    0    0  0.11656177157E+02  0.19111148758E+02  0.65807714297E+03  0.66488442486E+03  0.92220766870E+02 0.  0.
          5    1    4    4  502    0 -0.62070215002E+01 -0.35949882275E+02  0.26449802736E+03  0.26704347516E+03  0.47000000000E+01 0. -1.
         -5    1    4    4    0  502  0.17863198657E+02  0.55061031033E+02  0.39357911561E+03  0.39784094969E+03  0.47000000000E+01 0.  1.
          5    1    3    3  503    0  0.51923672669E+02 -0.11949027868E+02  0.24739190383E+03  0.25310806216E+03  0.47000000000E+01 0. -1.
         -5    1    3    3    0  503 -0.63579849826E+02 -0.71621208904E+01  0.12792704084E+03  0.14311223238E+03  0.47000000000E+01 0. -1.
<mgrwt>
<rscale>  0 0.11807005E+03</rscale>
<asrwt>0</asrwt>
<pdfrwt beam="1">  1        2 0.16111538E+00 0.12698902E+03</pdfrwt>
<pdfrwt beam="2">  1       -2 0.21314340E-02 0.12698902E+03</pdfrwt>
<totfact> 0.16482152E+04</totfact>
</mgrwt>
</event>
<event>
 8    1  0.3629925E-004  0.1452133E+03  0.7546771E-02  0.1216027E+00
         -2   -1    0    0    0  501 -0.00000000000E+00  0.00000000000E+00  0.18236418151E+03  0.18236418151E+03  0.00000000000E+00 0.  1.
          2   -1    0    0  501    0  0.00000000000E+00 -0.00000000000E+00 -0.95381933028E+02  0.95381933028E+02  0.00000000000E+00 0. -1.
         25    2    1    2    0    0  0.35906032831E+02  0.64584514156E+02  0.51207971565E+02  0.15397777833E+03  0.12500598868E+03 0.  0.
         23    2    1    2    0    0 -0.35906032831E+02 -0.64584514156E+02  0.35774276916E+02  0.12376833620E+03  0.92619649620E+02 0.  0.
          5    1    3    3  502    0 -0.63207947456E+01  0.83299932199E+02 -0.15693053033E+01  0.83686222699E+02  0.47000000000E+01 0. -1.
         -5    1    3    3    0  502  0.42226827576E+02 -0.18715418043E+02  0.52777276868E+02  0.70291555633E+02  0.47000000000E+01 0. -1.
          5    1    4    4  503    0  0.10571240075E+02 -0.52673265097E+02 -0.12698606702E+02  0.55403687466E+02  0.47000000000E+01 0. -1.
         -5    1    4    4    0  503 -0.46477272906E+02 -0.11911249059E+02  0.48472883618E+02  0.68364648738E+02  0.47000000000E+01 0.  1.
<mgrwt>
<rscale>  0 0.13801333E+03</rscale>
<asrwt>0</asrwt>
<pdfrwt beam="1">  1        2 0.14674144E-01 0.14521329E+03</pdfrwt>
<pdfrwt beam="2">  1       -2 0.28056028E-01 0.14521329E+03</pdfrwt>
<totfact> 0.44333943E+03</totfact>
</mgrwt>
</event>
<event>
 8    1  0.3629925E-004  0.1366234E+03  0.7546771E-02  0.1229973E+00
         -2   -1    0    0    0  501 -0.00000000000E+00  0.00000000000E+00  0.35960838868E+02  0.35960838868E+02  0.00000000000E+00 0.  1.
          2   -1    0    0  501    0  0.00000000000E+00 -0.00000000000E+00 -0.43209304954E+03  0.43209304954E+03  0.00000000000E+00 0. -1.
         25    2    1    2    0    0  0.40693998895E+02  0.37214069044E+02 -0.27371823331E+03  0.30592094739E+03  0.12500026530E+03 0.  0.
         23    2    1    2    0    0 -0.40693998895E+02 -0.37214069044E+02 -0.12241397736E+03  0.16213294102E+03  0.90890154736E+02 0.  0.
          5    1    3    3  502    0  0.44182426149E+02 -0.37118459848E+01 -0.20017669288E+02  0.48873936457E+02  0.47000000000E+01 0.  1.
         -5    1    4    4    0  503 -0.59709237545E+02 -0.25818642916E+02 -0.39662609079E+02  0.76334840860E+02  0.47000000000E+01 0.  1.
          5    1    4    4  503    0  0.19015238650E+02 -0.11395426129E+02 -0.82751368286E+02  0.85798100158E+02  0.47000000000E+01 0. -1.
         -5    1    3    3    0  502 -0.34884272548E+01  0.40925915029E+02 -0.25370056402E+03  0.25704701093E+03  0.47000000000E+01 0.  1.
<mgrwt>
<rscale>  0 0.12831807E+03</rscale>
<asrwt>0</asrwt>
<pdfrwt beam="1">  1        2 0.66475855E-01 0.13662341E+03</pdfrwt>
<pdfrwt beam="2">  1       -2 0.55324366E-02 0.13662341E+03</pdfrwt>
<totfact> 0.11655739E+04</totfact>
</mgrwt>
</event>
<event>
 8    1  0.3629925E-004  0.1298652E+03  0.7546771E-02  0.1240419E+00
          1   -1    0    0  501    0  0.00000000000E+00  0.00000000000E+00  0.22119523646E+03  0.22119523646E+03  0.00000000000E+00 0. -1.
         -1   -1    0    0    0  501 -0.00000000000E+00 -0.00000000000E+00 -0.63566711271E+02  0.63566711271E+02  0.00000000000E+00 0.  1.
         25    2    1    2    0    0 -0.31342498246E+02 -0.16024703212E+02  0.12330782785E+03  0.17908039453E+03  0.12500329590E+03 0.  0.
         23    2    1    2    0    0  0.31342498246E+02  0.16024703212E+02  0.34320697339E+02  0.10568155320E+03  0.93549650519E+02 0.  0.
          5    1    3    3  502    0  0.26187849170E+01  0.45872905155E+02  0.12918577883E+02  0.47959994957E+02  0.47000000000E+01 0. -1.
         -5    1    3    3    0  502 -0.33961283163E+02 -0.61897608367E+02  0.11038924997E+03  0.13112039957E+03  0.47000000000E+01 0. -1.
          5    1    4    4  503    0  0.15806179336E+02 -0.19598666766E+02  0.55534224079E+02  0.61156218722E+02  0.47000000000E+01 0. -1.
         -5    1    4    4    0  503  0.15536318910E+02  0.35623369979E+02 -0.21213526740E+02  0.44525334481E+02  0.47000000000E+01 0.  1.
<mgrwt>
<rscale>  0 0.12163791E+03</rscale>
<asrwt>0</asrwt>
<pdfrwt beam="1">  1        1 0.34030036E-01 0.12986519E+03</pdfrwt>
<pdfrwt beam="2">  1       -1 0.97794942E-02 0.12986519E+03</pdfrwt>
<totfact> 0.76959807E+03</totfact>
</mgrwt>
</event>
<event>
 8    1  0.3629925E-004  0.1831870E+03  0.7546771E-02  0.1170220E+00
         -2   -1    0    0    0  501 -0.00000000000E+00  0.00000000000E+00  0.49628256451E+02  0.49628256451E+02  0.00000000000E+00 0. -1.
          2   -1    0    0  501    0  0.00000000000E+00 -0.00000000000E+00 -0.65459639537E+03  0.65459639537E+03  0.00000000000E+00 0.  1.
         25    2    1    2    0    0 -0.13368655969E+03  0.76892876259E+01 -0.21715343291E+03  0.28410050828E+03  0.12500505589E+03 0.  0.
         23    2    1    2    0    0  0.13368655969E+03 -0.76892876259E+01 -0.38781470601E+03  0.42012414354E+03  0.90403696832E+02 0.  0.
          5    1    4    4  502    0  0.57206512933E+02 -0.25034013660E+02 -0.75550804879E+02  0.98129002236E+02  0.47000000000E+01 0. -1.
         -5    1    3    3    0  503 -0.10224395813E+03 -0.18133018231E+02 -0.21971542231E+03  0.24306293450E+03  0.47000000000E+01 0.  1.
          5    1    3    3  503    0 -0.31442601556E+02  0.25822305857E+02  0.25619894056E+01  0.41037573785E+02  0.47000000000E+01 0.  1.
         -5    1    4    4    0  502  0.76480046752E+02  0.17344726034E+02 -0.31226390114E+03  0.32199514131E+03  0.47000000000E+01 0.  1.
<mgrwt>
<rscale>  0 0.17752500E+03</rscale>
<asrwt>0</asrwt>
<pdfrwt beam="1">  1        2 0.10070714E+00 0.18318702E+03</pdfrwt>
<pdfrwt beam="2">  1       -2 0.76351164E-02 0.18318702E+03</pdfrwt>
<totfact> 0.45473126E+03</totfact>
</mgrwt>
</event>
<event>
 8    1  0.3629925E-004  0.1504822E+03  0.7546771E-02  0.1209347E+00
         -1   -1    0    0    0  501 -0.00000000000E+00  0.00000000000E+00  0.34501508544E+02  0.34501508544E+02  0.00000000000E+00 0.  1.
          1   -1    0    0  501    0  0.00000000000E+00 -0.00000000000E+00 -0.54508703454E+03  0.54508703454E+03  0.00000000000E+00 0. -1.
         25    2    1    2    0    0  0.23162366666E+02  0.80513198449E+02 -0.25555077076E+03  0.29656546858E+03  0.12500404137E+03 0.  0.
         23    2    1    2    0    0 -0.23162366666E+02 -0.80513198449E+02 -0.25503475523E+03  0.28302307451E+03  0.89668634279E+02 0.  0.
          5    1    3    3  502    0  0.46018138063E+02  0.23148010045E+02 -0.24269937704E+02  0.57136846921E+02  0.47000000000E+01 0. -1.
         -5    1    4    4    0  503 -0.57175805996E+02 -0.52202997658E+02 -0.14769358137E+03  0.16682238979E+03  0.47000000000E+01 0.  1.
          5    1    4    4  503    0  0.34013439330E+02 -0.28310200792E+02 -0.10734117386E+03  0.11620068472E+03  0.47000000000E+01 0. -1.
         -5    1    3    3    0  502 -0.22855771397E+02  0.57365188404E+02 -0.23128083306E+03  0.23942862165E+03  0.47000000000E+01 0. -1.
<mgrwt>
<rscale>  0 0.14300114E+03</rscale>
<asrwt>0</asrwt>
<pdfrwt beam="1">  1        1 0.83859539E-01 0.15048216E+03</pdfrwt>
<pdfrwt beam="2">  1       -1 0.53079247E-02 0.15048216E+03</pdfrwt>
<totfact> 0.62485553E+03</totfact>
</mgrwt>
</event>
<event>
 8    1  0.3629925E-004  0.1344773E+03  0.7546771E-02  0.1233445E+00
          1   -1    0    0  501    0  0.00000000000E+00  0.00000000000E+00  0.20491377908E+03  0.20491377908E+03  0.00000000000E+00 0. -1.
         -1   -1    0    0    0  501 -0.00000000000E+00 -0.00000000000E+00 -0.15028117545E+03  0.15028117545E+03  0.00000000000E+00 0.  1.
         25    2    1    2    0    0  0.48749700339E+02  0.90876082904E+01  0.15883771726E+03  0.20811911937E+03  0.12500011806E+03 0.  0.
         23    2    1    2    0    0 -0.48749700339E+02 -0.90876082904E+01 -0.10420511363E+03  0.14707583516E+03  0.91178274134E+02 0.  0.
          5    1    4    4  502    0  0.67156154389E+01 -0.19982819902E+02  0.66105497767E+01  0.22587650394E+02  0.47000000000E+01 0. -1.
         -5    1    3    3    0  503  0.64143202792E+02 -0.43231226974E+02  0.11129267929E+03  0.13561504309E+03  0.47000000000E+01 0. -1.
          5    1    3    3  503    0 -0.15393502453E+02  0.52318835264E+02  0.47545037976E+02  0.72504076281E+02  0.47000000000E+01 0. -1.
         -5    1    4    4    0  502 -0.55465315778E+02  0.10895211611E+02 -0.11081566341E+03  0.12448818477E+03  0.47000000000E+01 0.  1.
<mgrwt>
<rscale>  0 0.12604534E+03</rscale>
<asrwt>0</asrwt>
<pdfrwt beam="1">  1        1 0.31525197E-01 0.13447731E+03</pdfrwt>
<pdfrwt beam="2">  1       -1 0.23120181E-01 0.13447731E+03</pdfrwt>
<totfact> 0.21971327E+03</totfact>
</mgrwt>
</event>
<event>
 8    1  0.3629925E-004  0.1631104E+03  0.7546771E-02  0.1192538E+00
          2   -1    0    0  501    0  0.00000000000E+00  0.00000000000E+00  0.10782530597E+03  0.10782530597E+03  0.00000000000E+00 0. -1.
         -2   -1    0    0    0  501 -0.00000000000E+00 -0.00000000000E+00 -0.21730719432E+03  0.21730719432E+03  0.00000000000E+00 0.  1.
         25    2    1    2    0    0  0.32166604679E+02 -0.99728106977E+02 -0.86073370125E+02  0.18442787782E+03  0.12499852517E+03 0.  0.
         23    2    1    2    0    0 -0.32166604679E+02  0.99728106977E+02 -0.23408518225E+02  0.14070462247E+03  0.90936495866E+02 0.  0.
          5    1    4    4  502    0  0.13112522833E+02  0.74260381369E+02  0.13570447691E+02  0.76764507077E+02  0.47000000000E+01 0. -1.
         -5    1    4    4    0  502 -0.45279127513E+02  0.25467725607E+02 -0.36978965916E+02  0.63940115390E+02  0.47000000000E+01 0.  1.
          5    1    3    3  503    0 -0.29872195427E+02 -0.87487089637E+02 -0.76934407819E+02  0.12036333337E+03  0.47000000000E+01 0. -1.
         -5    1    3    3    0  503  0.62038800106E+02 -0.12241017339E+02 -0.91389623063E+01  0.64064544455E+02  0.47000000000E+01 0. -1.
<mgrwt>
<rscale>  0 0.15664434E+03</rscale>
<asrwt>0</asrwt>
<pdfrwt beam="1">  1        2 0.16588509E-01 0.16311044E+03</pdfrwt>
<pdfrwt beam="2">  1       -2 0.33431876E-01 0.16311044E+03</pdfrwt>
<totfact> 0.28154595E+03</totfact>
</mgrwt>
</event>
<event>
 8    1  0.3629925E-004  0.1263458E+03  0.7546771E-02  0.1249005E+00
          2   -1    0    0  501    0  0.00000000000E+00  0.00000000000E+00  0.47955201947E+03  0.47955201947E+03  0.00000000000E+00 0. -1.
         -2   -1    0    0    0  501 -0.00000000000E+00 -0.00000000000E+00 -0.26062396310E+02  0.26062396310E+02  0.00000000000E+00 0.  1.
         25    2    1    2    0    0  0.44156959564E+01  0.17876639279E+02  0.20412419227E+03  0.24006237454E+03  0.12499674075E+03 0.  0.
         23    2    1    2    0    0 -0.44156959564E+01 -0.17876639279E+02  0.24936543088E+03  0.26555204123E+03  0.89418655109E+02 0.  0.
          5    1    3    3  502    0  0.46445573497E+02 -0.32114361600E+02  0.12580267474E+03  0.13797436896E+03  0.47000000000E+01 0.  1.
         -5    1    3    3    0  502 -0.42029877540E+02  0.49991000878E+02  0.78321517530E+02  0.10208800558E+03  0.47000000000E+01 0.  1.
          5    1    4    4  503    0 -0.29517856132E+02  0.25907752665E+02  0.89706960682E+02  0.98040523629E+02  0.47000000000E+01 0. -1.
         -5    1    4    4    0  503  0.25102160175E+02 -0.43784391943E+02  0.15965847020E+03  0.16751151760E+03  0.47000000000E+01 0.  1.
<mgrwt>
<rscale>  0 0.11648829E+03</rscale>
<asrwt>0</asrwt>
<pdfrwt beam="1">  1        2 0.73777227E-01 0.12634579E+03</pdfrwt>
<pdfrwt beam="2">  1       -2 0.40095998E-02 0.12634579E+03</pdfrwt>
<totfact> 0.16750612E+04</totfact>
</mgrwt>
</event>
<event>
 8    1  0.3629925E-004  0.1498474E+03  0.7546771E-02  0.1209497E+00
         -2   -1    0    0    0  501 -0.00000000000E+00  0.00000000000E+00  0.27565159062E+03  0.27565159062E+03  0.00000000000E+00 0.  1.
          2   -1    0    0  501    0  0.00000000000E+00 -0.00000000000E+00 -0.85409932409E+02  0.85409932409E+02  0.00000000000E+00 0. -1.
         25    2    1    2    0    0 -0.34689410215E+02 -0.75016448757E+02  0.20982230389E+02  0.15130925928E+03  0.12499366058E+03 0.  0.
         23    2    1    2    0    0  0.34689410215E+02  0.75016448757E+02  0.16925942783E+03  0.20975226376E+03  0.92284535423E+02 0.  0.
          5    1    3    3  502    0  0.94228087007E+01 -0.43961836842E+02 -0.46456168494E+02  0.64820506119E+02  0.47000000000E+01 0. -1.
         -5    1    4    4    0  503  0.48093088605E+02  0.41621220434E+02  0.16008364310E+03  0.17231985942E+03  0.47000000000E+01 0.  1.
          5    1    4    4  503    0 -0.13403678390E+02  0.33395228323E+02  0.91757847244E+01  0.37432404337E+02  0.47000000000E+01 0. -1.
         -5    1    3    3    0  502 -0.44112218916E+02 -0.31054611915E+02  0.67438398882E+02  0.86488753157E+02  0.47000000000E+01 0. -1.
<mgrwt>
<rscale>  0 0.14288634E+03</rscale>
<asrwt>0</asrwt>
<pdfrwt beam="1">  1        2 0.13139990E-01 0.14984738E+03</pdfrwt>
<pdfrwt beam="2">  1       -2 0.42407937E-01 0.14984738E+03</pdfrwt>
<totfact> 0.23606611E+03</totfact>
</mgrwt>
</event>
<event>
 8    1  0.3629925E-004  0.1337778E+03  0.7546771E-02  0.1234235E+00
          1   -1    0    0  501    0  0.00000000000E+00  0.00000000000E+00  0.16143496936E+03  0.16143496936E+03  0.00000000000E+00 0. -1.
         -1   -1    0    0    0  501 -0.00000000000E+00 -0.00000000000E+00 -0.89984835717E+02  0.89984835717E+02  0.00000000000E+00 0.  1.
         25    2    1    2    0    0 -0.81948813945E+01  0.46964275382E+02  0.18802529650E+02  0.13509264282E+03  0.12499475101E+03 0.  0.
         23    2    1    2    0    0  0.81948813945E+01 -0.46964275382E+02  0.52647603991E+02  0.11632716226E+03  0.92127299045E+02 0.  0.
          5    1    4    4  502    0 -0.41203447916E+01 -0.22549786821E+02  0.76337749013E+02  0.79843672581E+02  0.47000000000E+01 0. -1.
         -5    1    4    4    0  502  0.12315226186E+02 -0.24414488561E+02 -0.23690145022E+02  0.36483489675E+02  0.47000000000E+01 0.  1.
          5    1    3    3  503    0  0.30219495505E+02 -0.17600342169E+02 -0.29211593012E+02  0.45808264749E+02  0.47000000000E+01 0. -1.
         -5    1    3    3    0  503 -0.38414376899E+02  0.64564617551E+02  0.48014122662E+02  0.89284378069E+02  0.47000000000E+01 0. -1.
<mgrwt>
<rscale>  0 0.12553524E+03</rscale>
<asrwt>0</asrwt>
<pdfrwt beam="1">  1        1 0.24836149E-01 0.13377775E+03</pdfrwt>
<pdfrwt beam="2">  1       -1 0.13843821E-01 0.13377775E+03</pdfrwt>
<totfact> 0.66858602E+03</totfact>
</mgrwt>
</event>
<event>
 8    1  0.3629925E-004  0.1601210E+03  0.7546771E-02  0.1196444E+00
          1   -1    0    0  501    0  0.00000000000E+00  0.00000000000E+00  0.16222901820E+03  0.16222901820E+03  0.00000000000E+00 0. -1.
         -1   -1    0    0    0  501 -0.00000000000E+00 -0.00000000000E+00 -0.13889171764E+03  0.13889171764E+03  0.00000000000E+00 0.  1.
         25    2    1    2    0    0 -0.84353460225E+02  0.53838315445E+02 -0.15865723986E+02  0.16090510981E+03  0.12499865081E+03 0.  0.
         23    2    1    2    0    0  0.84353460225E+02 -0.53838315445E+02  0.39203024552E+02  0.14021562603E+03  0.90052618995E+02 0.  0.
          5    1    3    3  502    0  0.10559691427E+02  0.28503999525E+02  0.37907024632E+02  0.48816161140E+02  0.47000000000E+01 0.  1.
         -5    1    3    3    0  502 -0.94913151652E+02  0.25334315920E+02 -0.53772748618E+02  0.11208894867E+03  0.47000000000E+01 0.  1.
          5    1    4    4  503    0  0.61472776197E+01 -0.55239689039E+02  0.10465024810E+02  0.56752259968E+02  0.47000000000E+01 0. -1.
         -5    1    4    4    0  503  0.78206182605E+02  0.14013735936E+01  0.28737999743E+02  0.83463366065E+02  0.47000000000E+01 0.  1.
<mgrwt>
<rscale>  0 0.15332628E+03</rscale>
<asrwt>0</asrwt>
<pdfrwt beam="1">  1        1 0.24958311E-01 0.16012100E+03</pdfrwt>
<pdfrwt beam="2">  1       -1 0.21367956E-01 0.16012100E+03</pdfrwt>
<totfact> 0.33703809E+03</totfact>
</mgrwt>
</event>
<event>
 8    1  0.3629925E-004  0.1370260E+03  0.7546771E-02  0.1227982E+00
         -2   -1    0    0    0  501 -0.00000000000E+00  0.00000000000E+00  0.69037474599E+02  0.69037474599E+02  0.00000000000E+00 0.  1.
          2   -1    0    0  501    0  0.00000000000E+00 -0.00000000000E+00 -0.22062919537E+03  0.22062919537E+03  0.00000000000E+00 0. -1.
         25    2    1    2    0    0 -0.50919376122E+01 -0.55893218931E+02 -0.84451859139E+02  0.16096040591E+03  0.12500462394E+03 0.  0.
         23    2    1    2    0    0  0.50919376122E+01  0.55893218931E+02 -0.67139861629E+02  0.12870626406E+03  0.94379879409E+02 0.  0.
          5    1    4    4  502    0 -0.28545552451E+02  0.40772694222E+02 -0.75545812452E+02  0.90589850082E+02  0.47000000000E+01 0. -1.
         -5    1    4    4    0  502  0.33637490063E+02  0.15120524709E+02  0.84059508231E+01  0.38116413976E+02  0.47000000000E+01 0.  1.
          5    1    3    3  503    0  0.33565588212E+02 -0.72056424943E+01 -0.91858303821E+02  0.98176412527E+02  0.47000000000E+01 0.  1.
         -5    1    3    3    0  503 -0.38657525824E+02 -0.48687576437E+02  0.74064446823E+01  0.62783993381E+02  0.47000000000E+01 0.  1.
<mgrwt>
<rscale>  0 0.12964617E+03</rscale>
<asrwt>0</asrwt>
<pdfrwt beam="1">  1        2 0.33942953E-01 0.13702604E+03</pdfrwt>
<pdfrwt beam="2">  1       -2 0.10621150E-01 0.13702604E+03</pdfrwt>
<totfact> 0.87259592E+03</totfact>
</mgrwt>
</event>
<event>
 8    1  0.3629925E-004  0.1888242E+03  0.7546771E-02  0.1163795E+00
          1   -1    0    0  501    0  0.00000000000E+00  0.00000000000E+00  0.13045746453E+03  0.13045746453E+03  0.00000000000E+00 0. -1.
         -1   -1    0    0    0  501 -0.00000000000E+00 -0.00000000000E+00 -0.30684825640E+03  0.30684825640E+03  0.00000000000E+00 0.  1.
         25    2    1    2    0    0  0.38763390249E+02 -0.13611462014E+03  0.38263611917E+01  0.18886292395E+03  0.12499909105E+03 0.  0.
         23    2    1    2    0    0 -0.38763390249E+02  0.13611462014E+03 -0.18021715306E+03  0.24844279698E+03  0.95999014969E+02 0.  0.
          5    1    3    3  502    0  0.59594798260E+02 -0.11504609504E+02  0.12471112199E+02  0.62141086722E+02  0.47000000000E+01 0.  1.
         -5    1    4    4    0  503 -0.55065526690E+02  0.63205724437E+02 -0.14056903923E+03  0.16373429885E+03  0.47000000000E+01 0.  1.
          5    1    4    4  503    0  0.16302136441E+02  0.72908895699E+02 -0.39648113838E+02  0.84708498131E+02  0.47000000000E+01 0. -1.
         -5    1    3    3    0  502 -0.20831408011E+02 -0.12461001063E+03 -0.86447510076E+01  0.12672183722E+03  0.47000000000E+01 0.  1.
<mgrwt>
<rscale>  0 0.18420471E+03</rscale>
<asrwt>0</asrwt>
<pdfrwt beam="1">  1        1 0.20070379E-01 0.18882416E+03</pdfrwt>
<pdfrwt beam="2">  1       -1 0.47207424E-01 0.18882416E+03</pdfrwt>
<totfact> 0.11539276E+03</totfact>
</mgrwt>
</event>
<event>
 8    1  0.3629925E-004  0.3334242E+03  0.7546771E-02  0.1070526E+00
          2   -1    0    0  501    0  0.00000000000E+00  0.00000000000E+00  0.19092250723E+04  0.19092250723E+04  0.00000000000E+00 0. -1.
         -2   -1    0    0    0  501 -0.00000000000E+00 -0.00000000000E+00 -0.57295381807E+02  0.57295381807E+02  0.00000000000E+00 0.  1.
         25    2    1    2    0    0  0.27580764159E+03 -0.13956063001E+03  0.84818428919E+03  0.91136617292E+03  0.12499875244E+03 0.  0.
         23    2    1    2    0    0 -0.27580764159E+03  0.13956063001E+03  0.10037454013E+04  0.10551542812E+04  0.10148252000E+03 0.  0.
          5    1    4    4  502    0 -0.23727621658E+03  0.74335990729E+02  0.79805829521E+03  0.83590966917E+03  0.47000000000E+01 0. -1.
         -5    1    3    3    0  503  0.96459289135E+02  0.13567196672E+02  0.25362177093E+03  0.27172514785E+03  0.47000000000E+01 0. -1.
          5    1    3    3  503    0  0.17934835245E+03 -0.15312782668E+03  0.59456251826E+03  0.63964102507E+03  0.47000000000E+01 0. -1.
         -5    1    4    4    0  502 -0.38531425007E+02  0.65224639282E+02  0.20568710612E+03  0.21924461204E+03  0.47000000000E+01 0.  1.
<mgrwt>
<rscale>  0 0.33138437E+03</rscale>
<asrwt>0</asrwt>
<pdfrwt beam="1">  1        2 0.29372688E+00 0.33342422E+03</pdfrwt>
<pdfrwt beam="2">  1       -2 0.88146756E-02 0.33342422E+03</pdfrwt>
<totfact> 0.66812688E+02</totfact>
</mgrwt>
</event>
<event>
 8    1  0.3629925E-004  0.1556934E+03  0.7546771E-02  0.1203291E+00
          2   -1    0    0  501    0  0.00000000000E+00  0.00000000000E+00  0.59977013087E+03  0.59977013087E+03  0.00000000000E+00 0. -1.
         -2   -1    0    0    0  501 -0.00000000000E+00 -0.00000000000E+00 -0.33977676385E+02  0.33977676385E+02  0.00000000000E+00 0.  1.
         25    2    1    2    0    0  0.85209541161E+02  0.36825373543E+02  0.26174949155E+03  0.30455415670E+03  0.12499465588E+03 0.  0.
         23    2    1    2    0    0 -0.85209541161E+02 -0.36825373543E+02  0.30404296294E+03  0.32919365056E+03  0.85495977741E+02 0.  0.
          5    1    4    4  502    0 -0.40316321525E+02  0.19692628857E+02  0.18032829207E+03  0.18588595518E+03  0.47000000000E+01 0. -1.
         -5    1    3    3    0  503  0.69412568962E+02  0.70360246379E+02  0.24377176335E+03  0.26308825821E+03  0.47000000000E+01 0. -1.
          5    1    3    3  503    0  0.15796972199E+02 -0.33534872836E+02  0.17977728193E+02  0.41465898492E+02  0.47000000000E+01 0. -1.
         -5    1    4    4    0  502 -0.44893219636E+02 -0.56518002401E+02  0.12371467088E+03  0.14330769538E+03  0.47000000000E+01 0.  1.
<mgrwt>
<rscale>  0 0.14772948E+03</rscale>
<asrwt>0</asrwt>
<pdfrwt beam="1">  1        2 0.92272319E-01 0.15569341E+03</pdfrwt>
<pdfrwt beam="2">  1       -2 0.52273353E-02 0.15569341E+03</pdfrwt>
<totfact> 0.89128655E+03</totfact>
</mgrwt>
</event>
<event>
 8    1  0.3629925E-004  0.1701726E+03  0.7546771E-02  0.1184084E+00
         -2   -1    0    0    0  501 -0.00000000000E+00  0.00000000000E+00  0.10908696917E+04  0.10908696917E+04  0.00000000000E+00 0.  1.
          2   -1    0    0  501    0  0.00000000000E+00 -0.00000000000E+00 -0.26865245539E+02  0.26865245539E+02  0.00000000000E+00 0. -1.
         25    2    1    2    0    0  0.38444427270E+02  0.10888599058E+03  0.35628154817E+03  0.39483572141E+03  0.12499828959E+03 0.  0.
         23    2    1    2    0    0 -0.38444427270E+02 -0.10888599058E+03  0.70772289798E+03  0.72289921582E+03  0.91528372517E+02 0.  0.
          5    1    3    3  502    0  0.27256458194E+02 -0.16644707836E+02  0.26509601203E+02  0.41770920125E+02  0.47000000000E+01 0. -1.
         -5    1    4    4    0  503 -0.64025259917E+02 -0.99510807434E+02  0.60740649562E+03  0.61884277133E+03  0.47000000000E+01 0.  1.
          5    1    4    4  503    0  0.25580832647E+02 -0.93751831483E+01  0.10031640236E+03  0.10405644449E+03  0.47000000000E+01 0. -1.
         -5    1    3    3    0  502  0.11187969077E+02  0.12553069842E+03  0.32977194697E+03  0.35306480128E+03  0.47000000000E+01 0. -1.
<mgrwt>
<rscale>  0 0.16415480E+03</rscale>
<asrwt>0</asrwt>
<pdfrwt beam="1">  1        2 0.41331155E-02 0.17017258E+03</pdfrwt>
<pdfrwt beam="2">  1       -2 0.16782607E+00 0.17017258E+03</pdfrwt>
<totfact> 0.47195129E+02</totfact>
</mgrwt>
</event>
<event>
 8    1  0.3629925E-004  0.1313644E+03  0.7546771E-02  0.1240896E+00
         -2   -1    0    0    0  501 -0.00000000000E+00  0.00000000000E+00  0.48476787340E+02  0.48476787340E+02  0.00000000000E+00 0.  1.
          2   -1    0    0  501    0  0.00000000000E+00 -0.00000000000E+00 -0.37310251179E+03  0.37310251179E+03  0.00000000000E+00 0. -1.
         25    2    1    2    0    0 -0.39209963651E+01 -0.40208475135E+02 -0.29257267642E+03  0.32071075229E+03  0.12499807983E+03 0.  0.
         23    2    1    2    0    0  0.39209963651E+01  0.40208475135E+02 -0.32053048030E+02  0.10086854684E+03  0.86688927603E+02 0.  0.
          5    1    4    4  502    0  0.32296667615E+02  0.30328627686E+01 -0.41543206607E+02  0.52916925561E+02  0.47000000000E+01 0. -1.
         -5    1    3    3    0  503  0.16236522453E+02  0.39148344068E+02 -0.15295662006E+03  0.15878927900E+03  0.47000000000E+01 0. -1.
          5    1    3    3  503    0 -0.20157518818E+02 -0.79356819203E+02 -0.13961605637E+03  0.16192147329E+03  0.47000000000E+01 0. -1.
         -5    1    4    4    0  502 -0.28375671250E+02  0.37175612366E+02  0.94901585773E+01  0.47951621282E+02  0.47000000000E+01 0.  1.
<mgrwt>
<rscale>  0 0.12134408E+03</rscale>
<asrwt>0</asrwt>
<pdfrwt beam="1">  1        2 0.57400386E-01 0.13136444E+03</pdfrwt>
<pdfrwt beam="2">  1       -2 0.74579673E-02 0.13136444E+03</pdfrwt>
<totfact> 0.86306838E+03</totfact>
</mgrwt>
</event>
<event>
 8    1  0.3629925E-004  0.2242710E+03  0.7546771E-02  0.1133882E+00
          1   -1    0    0  501    0  0.00000000000E+00  0.00000000000E+00  0.34088607579E+02  0.34088607579E+02  0.00000000000E+00 0. -1.
         -1   -1    0    0    0  501 -0.00000000000E+00 -0.00000000000E+00 -0.13859113917E+04  0.13859113917E+04  0.00000000000E+00 0.  1.
         25    2    1    2    0    0 -0.57190552501E+02 -0.17720911594E+03 -0.78151189473E+03  0.81305494057E+03  0.12499465872E+03 0.  0.
         23    2    1    2    0    0  0.57190552501E+02  0.17720911594E+03 -0.57031088943E+03  0.60694505875E+03  0.91945438556E+02 0.  0.
          5    1    3    3  502    0 -0.68366021428E+02 -0.64702886414E+02 -0.20616463365E+03  0.22668551468E+03  0.47000000000E+01 0. -1.
         -5    1    4    4    0  503  0.19598879591E+02  0.11804493483E+02 -0.17776774150E+03  0.17929562757E+03  0.47000000000E+01 0.  1.
          5    1    4    4  503    0  0.37591672910E+02  0.16540462246E+03 -0.39254314793E+03  0.42764943118E+03  0.47000000000E+01 0. -1.
         -5    1    3    3    0  502  0.11175468927E+02 -0.11250622953E+03 -0.57534726107E+03  0.58636942589E+03  0.47000000000E+01 0. -1.
<mgrwt>
<rscale>  0 0.22000094E+03</rscale>
<asrwt>0</asrwt>
<pdfrwt beam="1">  1        1 0.52444016E-02 0.22427103E+03</pdfrwt>
<pdfrwt beam="2">  1       -1 0.21321712E+00 0.22427103E+03</pdfrwt>
<totfact> 0.21333050E+02</totfact>
</mgrwt>
</event>
<event>
 8    1  0.3629925E-004  0.1361862E+03  0.7546771E-02  0.1232645E+00
          1   -1    0    0  501    0  0.00000000000E+00  0.00000000000E+00  0.53442985978E+03  0.53442985978E+03  0.00000000000E+00 0. -1.
         -1   -1    0    0    0  501 -0.00000000000E+00 -0.00000000000E+00 -0.37540966122E+02  0.37540966122E+02  0.00000000000E+00 0.  1.
         25    2    1    2    0    0  0.47661135332E+02 -0.25628320378E+02  0.42821378235E+03  0.44934812077E+03  0.12497317960E+03 0.  0.
         23    2    1    2    0    0 -0.47661135332E+02  0.25628320378E+02  0.68675111313E+02  0.12262270514E+03  0.85974776965E+02 0.  0.
          5    1    3    3  502    0  0.77584878838E+02 -0.29663230950E+02  0.39716153299E+03  0.40578158408E+03  0.47000000000E+01 0.  1.
         -5    1    3    3    0  502 -0.29923743506E+02  0.40349105719E+01  0.31052249364E+02  0.43566536692E+02  0.47000000000E+01 0.  1.
          5    1    4    4  503    0 -0.12676227738E+01  0.35287463726E+02  0.65911787102E+02  0.74921730110E+02  0.47000000000E+01 0. -1.
         -5    1    4    4    0  503 -0.46393512558E+02 -0.96591433481E+01  0.27633242118E+01  0.47700975025E+02  0.47000000000E+01 0.  1.
<mgrwt>
<rscale>  0 0.12656399E+03</rscale>
<asrwt>0</asrwt>
<pdfrwt beam="1">  1        1 0.82219973E-01 0.13618623E+03</pdfrwt>
<pdfrwt beam="2">  1       -1 0.57755337E-02 0.13618623E+03</pdfrwt>
<totfact> 0.56274128E+03</totfact>
</mgrwt>
</event>
<event>
 8    1  0.3629925E-004  0.1270171E+03  0.7546771E-02  0.1247039E+00
          2   -1    0    0  501    0  0.00000000000E+00  0.00000000000E+00  0.84815153128E+03  0.84815153128E+03  0.00000000000E+00 0. -1.
         -2   -1    0    0    0  501 -0.00000000000E+00 -0.00000000000E+00 -0.14465264288E+02  0.14465264288E+02  0.00000000000E+00 0.  1.
         25    2    1    2    0    0  0.22273006731E+02 -0.28369082141E+01  0.52102648163E+03  0.53628532325E+03  0.12501687284E+03 0.  0.
         23    2    1    2    0    0 -0.22273006731E+02  0.28369082141E+01  0.31265978536E+03  0.32633147231E+03  0.90730113886E+02 0.  0.
          5    1    4    4  502    0  0.23620413795E+02  0.49680878085E+01  0.23267852004E+03  0.23397433520E+03  0.47000000000E+01 0. -1.
         -5    1    4    4    0  502 -0.45893420526E+02 -0.21311795944E+01  0.79981265316E+02  0.92357137112E+02  0.47000000000E+01 0.  1.
          5    1    3    3  503    0  0.49204295709E+02 -0.26506074494E+02  0.47223801859E+03  0.47555701120E+03  0.47000000000E+01 0.  1.
         -5    1    3    3    0  503 -0.26931288979E+02  0.23669166280E+02  0.48788463046E+02  0.60728312053E+02  0.47000000000E+01 0.  1.
<mgrwt>
<rscale>  0 0.11764172E+03</rscale>
<asrwt>0</asrwt>
<pdfrwt beam="1">  1        2 0.13048481E+00 0.12701714E+03</pdfrwt>
<pdfrwt beam="2">  1       -2 0.22254259E-02 0.12701714E+03</pdfrwt>
<totfact> 0.20506622E+04</totfact>
</mgrwt>
</event>
<event>
 8    1  0.3629925E-004  0.1425871E+03  0.7546771E-02  0.1221504E+00
          1   -1    0    0  501    0  0.00000000000E+00  0.00000000000E+00  0.41324775337E+03  0.41324775337E+03  0.00000000000E+00 0. -1.
         -1   -1    0    0    0  501 -0.00000000000E+00 -0.00000000000E+00 -0.45486705746E+02  0.45486705746E+02  0.00000000000E+00 0.  1.
         25    2    1    2    0    0  0.68454710162E+02 -0.46243927647E+01  0.28879996192E+03  0.32208152600E+03  0.12499463604E+03 0.  0.
         23    2    1    2    0    0 -0.68454710162E+02  0.46243927647E+01  0.78961085705E+02  0.13665293311E+03  0.87930306040E+02 0.  0.
          5    1    4    4  502    0 -0.67680632065E+02 -0.27534859302E+02  0.73392066320E+02  0.10366929069E+03  0.47000000000E+01 0. -1.
         -5    1    4    4    0  502 -0.77407809722E+00  0.32159252067E+02  0.55690193849E+01  0.32983642420E+02  0.47000000000E+01 0.  1.
          5    1    3    3  503    0  0.14104816567E+02 -0.24344170465E+02  0.25150916451E+03  0.25312158011E+03  0.47000000000E+01 0.  1.
         -5    1    3    3    0  503  0.54349893595E+02  0.19719777700E+02  0.37290797410E+02  0.68959945894E+02  0.47000000000E+01 0.  1.
<mgrwt>
<rscale>  0 0.13409395E+03</rscale>
<asrwt>0</asrwt>
<pdfrwt beam="1">  1        1 0.63576575E-01 0.14258714E+03</pdfrwt>
<pdfrwt beam="2">  1       -1 0.69979550E-02 0.14258714E+03</pdfrwt>
<totfact> 0.59036993E+03</totfact>
</mgrwt>
</event>
<event>
 8    1  0.3629925E-004  0.1779986E+03  0.7546771E-02  0.1175236E+00
         -2   -1    0    0    0  501 -0.00000000000E+00  0.00000000000E+00  0.57042314857E+02  0.57042314857E+02  0.00000000000E+00 0.  1.
          2   -1    0    0  501    0  0.00000000000E+00 -0.00000000000E+00 -0.49343276555E+03  0.49343276555E+03  0.00000000000E+00 0. -1.
         25    2    1    2    0    0  0.44707217820E+02  0.11858089692E+03 -0.21781405406E+03  0.28129427848E+03  0.12499337790E+03 0.  0.
         23    2    1    2    0    0 -0.44707217820E+02 -0.11858089692E+03 -0.21857639663E+03  0.26918080193E+03  0.92857409613E+02 0.  0.
          5    1    3    3  502    0  0.32636548958E+02 -0.20122170997E+02 -0.50435787685E+02  0.63528771222E+02  0.47000000000E+01 0. -1.
         -5    1    3    3    0  502  0.12070668861E+02  0.13870306792E+03 -0.16737826637E+03  0.21776550726E+03  0.47000000000E+01 0. -1.
          5    1    4    4  503    0  0.26721949857E+02 -0.49587297819E+02 -0.95390854421E+02  0.11088042125E+03  0.47000000000E+01 0. -1.
         -5    1    4    4    0  503 -0.71429167677E+02 -0.68993599104E+02 -0.12318554221E+03  0.15830038068E+03  0.47000000000E+01 0.  1.
<mgrwt>
<rscale>  0 0.17252875E+03</rscale>
<asrwt>0</asrwt>
<pdfrwt beam="1">  1        2 0.75912735E-01 0.17799862E+03</pdfrwt>
<pdfrwt beam="2">  1       -2 0.87757406E-02 0.17799862E+03</pdfrwt>
<totfact> 0.50440500E+03</totfact>
</mgrwt>
</event>
<event>
 8    1  0.3629925E-004  0.1728480E+03  0.7546771E-02  0.1180874E+00
         -1   -1    0    0    0  501 -0.00000000000E+00  0.00000000000E+00  0.14891581000E+03  0.14891581000E+03  0.00000000000E+00 0.  1.
          1   -1    0    0  501    0  0.00000000000E+00 -0.00000000000E+00 -0.17815954984E+03  0.17815954984E+03  0.00000000000E+00 0. -1.
         25    2    1    2    0    0  0.20344795631E+02 -0.11763383394E+03 -0.32872286034E+02  0.17594608747E+03  0.12499923564E+03 0.  0.
         23    2    1    2    0    0 -0.20344795631E+02  0.11763383394E+03  0.36285461924E+01  0.15112927237E+03  0.92602705269E+02 0.  0.
          5    1    4    4  502    0 -0.45204523108E+01  0.38644516154E+02 -0.42798260870E+02  0.58031148975E+02  0.47000000000E+01 0. -1.
         -5    1    4    4    0  502 -0.15824343320E+02  0.78989317787E+02  0.46426807062E+02  0.93098123396E+02  0.47000000000E+01 0.  1.
          5    1    3    3  503    0  0.46087624866E+02 -0.94205685661E+02  0.25306121464E+02  0.10798736111E+03  0.47000000000E+01 0.  1.
         -5    1    3    3    0  503 -0.25742829235E+02 -0.23428148280E+02 -0.58178407499E+02  0.67958726356E+02  0.47000000000E+01 0.  1.
<mgrwt>
<rscale>  0 0.16712990E+03</rscale>
<asrwt>0</asrwt>
<pdfrwt beam="1">  1        1 0.27409161E-01 0.17284802E+03</pdfrwt>
<pdfrwt beam="2">  1       -1 0.22910125E-01 0.17284802E+03</pdfrwt>
<totfact> 0.26824872E+03</totfact>
</mgrwt>
</event>
<event>
 8    1  0.3629925E-004  0.1626974E+03  0.7546771E-02  0.1193306E+00
         -2   -1    0    0    0  501 -0.00000000000E+00  0.00000000000E+00  0.24618501776E+02  0.24618501776E+02  0.00000000000E+00 0.  1.
          2   -1    0    0  501    0  0.00000000000E+00 -0.00000000000E+00 -0.11430034559E+04  0.11430034559E+04  0.00000000000E+00 0. -1.
         25    2    1    2    0    0 -0.85088076993E+02  0.60035496049E+02 -0.85686827023E+03  0.87217755189E+03  0.12500483136E+03 0.  0.
         23    2    1    2    0    0  0.85088076993E+02 -0.60035496049E+02 -0.26151668387E+03  0.29544440577E+03  0.89733936287E+02 0.  0.
          5    1    3    3  502    0 -0.74511686220E+02 -0.41582105536E+01 -0.67183641933E+03  0.67598487145E+03  0.47000000000E+01 0.  1.
         -5    1    3    3    0  502 -0.10576390773E+02  0.64193706603E+02 -0.18503185091E+03  0.19619268044E+03  0.47000000000E+01 0.  1.
          5    1    4    4  503    0  0.67053629316E+02 -0.36740967841E+02 -0.25311296662E+03  0.26445103855E+03  0.47000000000E+01 0. -1.
         -5    1    4    4    0  503  0.18034447677E+02 -0.23294528208E+02 -0.84037172582E+01  0.30993367213E+02  0.47000000000E+01 0.  1.
<mgrwt>
<rscale>  0 0.15598504E+03</rscale>
<asrwt>0</asrwt>
<pdfrwt beam="1">  1        2 0.17584669E+00 0.16269742E+03</pdfrwt>
<pdfrwt beam="2">  1       -2 0.37874617E-02 0.16269742E+03</pdfrwt>
<totfact> 0.63185817E+03</totfact>
</mgrwt>
</event>
<event>
 8    1  0.3629925E-004  0.1892084E+03  0.7546771E-02  0.1164594E+00
          3   -1    0    0  501    0  0.00000000000E+00  0.00000000000E+00  0.11163814155E+03  0.11163814155E+03  0.00000000000E+00 0. -1.
         -3   -1    0    0    0  501 -0.00000000000E+00 -0.00000000000E+00 -0.28594296589E+03  0.28594296589E+03  0.00000000000E+00 0.  1.
         25    2    1    2    0    0 -0.14179824979E+03 -0.82348270618E+01 -0.10925919447E+03  0.21848887301E+03  0.12500104013E+03 0.  0.
         23    2    1    2    0    0  0.14179824979E+03  0.82348270618E+01 -0.65045629868E+02  0.17909223442E+03  0.87570191538E+02 0.  0.
          5    1    4    4  502    0  0.10119668700E+03  0.44173397203E+01  0.90878252534E+00  0.10140610552E+03  0.47000000000E+01 0. -1.
         -5    1    4    4    0  502  0.40601562786E+02  0.38174873415E+01 -0.65954412394E+02  0.77686128907E+02  0.47000000000E+01 0.  1.
          5    1    3    3  503    0 -0.16999394803E+02  0.46910112808E+02 -0.45991418693E+02  0.68020869597E+02  0.47000000000E+01 0. -1.
         -5    1    3    3    0  503 -0.12479885499E+03 -0.55144939870E+02 -0.63267775779E+02  0.15046800341E+03  0.47000000000E+01 0. -1.
<mgrwt>
<rscale>  0 0.18335594E+03</rscale>
<asrwt>0</asrwt>
<pdfrwt beam="1">  1        3 0.17175099E-01 0.18920839E+03</pdfrwt>
<pdfrwt beam="2">  1       -3 0.43991225E-01 0.18920839E+03</pdfrwt>
<totfact> 0.36704083E+02</totfact>
</mgrwt>
</event>
<event>
 8    1  0.3629925E-004  0.1485252E+03  0.7546771E-02  0.1213132E+00
         -2   -1    0    0    0  501 -0.00000000000E+00  0.00000000000E+00  0.17944620253E+02  0.17944620253E+02  0.00000000000E+00 0.  1.
          2   -1    0    0  501    0  0.00000000000E+00 -0.00000000000E+00 -0.10051628848E+04  0.10051628848E+04  0.00000000000E+00 0. -1.
         25    2    1    2    0    0  0.72368588449E+02 -0.34619449053E+02 -0.48277420246E+03  0.50510460379E+03  0.12499604538E+03 0.  0.
         23    2    1    2    0    0 -0.72368588449E+02  0.34619449053E+02 -0.50444406209E+03  0.51800290127E+03  0.86182800468E+02 0.  0.
          5    1    3    3  502    0  0.28860896660E+02  0.35382780437E+02 -0.31272022690E+03  0.31607107242E+03  0.47000000000E+01 0. -1.
         -5    1    3    3    0  502  0.43507691789E+02 -0.70002229489E+02 -0.17005397556E+03  0.18903353137E+03  0.47000000000E+01 0. -1.
          5    1    4    4  503    0 -0.40425129359E+02  0.22197286125E+02 -0.45667943307E+03  0.45902625762E+03  0.47000000000E+01 0. -1.
         -5    1    4    4    0  503 -0.31943459090E+02  0.12422162927E+02 -0.47764629016E+02  0.58976643644E+02  0.47000000000E+01 0.  1.
<mgrwt>
<rscale>  0 0.14014674E+03</rscale>
<asrwt>0</asrwt>
<pdfrwt beam="1">  1        2 0.15464045E+00 0.14852518E+03</pdfrwt>
<pdfrwt beam="2">  1       -2 0.27607106E-02 0.14852518E+03</pdfrwt>
<totfact> 0.12080723E+04</totfact>
</mgrwt>
</event>
<event>
 8    1  0.3629925E-004  0.1342641E+03  0.7546771E-02  0.1236936E+00
         -1   -1    0    0    0  501 -0.00000000000E+00  0.00000000000E+00  0.41239549011E+02  0.41239549011E+02  0.00000000000E+00 0.  1.
          1   -1    0    0  501    0  0.00000000000E+00 -0.00000000000E+00 -0.32471991773E+03  0.32471991773E+03  0.00000000000E+00 0. -1.
         25    2    1    2    0    0  0.47490009744E+02  0.12110392140E+02 -0.15960075574E+03  0.20856472419E+03  0.12499952127E+03 0.  0.
         23    2    1    2    0    0 -0.47490009744E+02 -0.12110392140E+02 -0.12387961297E+03  0.15739474255E+03  0.83815176719E+02 0.  0.
          5    1    3    3  502    0 -0.10378435011E+02 -0.47500146923E+02 -0.77903841965E+02  0.91951478857E+02  0.47000000000E+01 0.  1.
         -5    1    3    3    0  502  0.57868444755E+02  0.59610539063E+02 -0.81696913775E+02  0.11661324533E+03  0.47000000000E+01 0.  1.
          5    1    4    4  503    0  0.13505752839E+02 -0.22640562516E+02 -0.70884544820E+02  0.75774066310E+02  0.47000000000E+01 0. -1.
         -5    1    4    4    0  503 -0.60995762583E+02  0.10530170376E+02 -0.52995068155E+02  0.81620676240E+02  0.47000000000E+01 0.  1.
<mgrwt>
<rscale>  0 0.12381300E+03</rscale>
<asrwt>0</asrwt>
<pdfrwt beam="1">  1        1 0.49956912E-01 0.13426408E+03</pdfrwt>
<pdfrwt beam="2">  1       -1 0.63445459E-02 0.13426408E+03</pdfrwt>
<totfact> 0.92115608E+03</totfact>
</mgrwt>
</event>
<event>
 8    1  0.3629925E-004  0.1412893E+03  0.7546771E-02  0.1221652E+00
          2   -1    0    0  501    0  0.00000000000E+00  0.00000000000E+00  0.56877220513E+03  0.56877220513E+03  0.00000000000E+00 0. -1.
         -2   -1    0    0    0  501 -0.00000000000E+00 -0.00000000000E+00 -0.28712715750E+02  0.28712715750E+02  0.00000000000E+00 0.  1.
         25    2    1    2    0    0  0.40279935922E+02 -0.52116535254E+02  0.30210316546E+03  0.33351010118E+03  0.12499623403E+03 0.  0.
         23    2    1    2    0    0 -0.40279935922E+02  0.52116535254E+02  0.23795632392E+03  0.26397481970E+03  0.93385688729E+02 0.  0.
          5    1    3    3  502    0  0.12113674890E+02 -0.90966875944E+02  0.17687169486E+03  0.19931733512E+03  0.47000000000E+01 0. -1.
         -5    1    4    4    0  503 -0.25544341750E+02  0.40951101882E+01  0.65021662922E+01  0.27086001723E+02  0.47000000000E+01 0.  1.
          5    1    4    4  503    0 -0.14735594173E+02  0.48021425066E+02  0.23145415763E+03  0.23688881798E+03  0.47000000000E+01 0. -1.
         -5    1    3    3    0  502  0.28166261032E+02  0.38850340689E+02  0.12523147060E+03  0.13419276606E+03  0.47000000000E+01 0. -1.
<mgrwt>
<rscale>  0 0.13399011E+03</rscale>
<asrwt>0</asrwt>
<pdfrwt beam="1">  1        2 0.87503408E-01 0.14128930E+03</pdfrwt>
<pdfrwt beam="2">  1       -2 0.44173413E-02 0.14128930E+03</pdfrwt>
<totfact> 0.12112438E+04</totfact>
</mgrwt>
</event>
<event>
 8    1  0.3629925E-004  0.1477838E+03  0.7546771E-02  0.1212947E+00
         -2   -1    0    0    0  501 -0.00000000000E+00  0.00000000000E+00  0.10665196724E+03  0.10665196724E+03  0.00000000000E+00 0.  1.
          2   -1    0    0  501    0  0.00000000000E+00 -0.00000000000E+00 -0.16813432436E+03  0.16813432436E+03  0.00000000000E+00 0. -1.
         25    2    1    2    0    0  0.67014809799E+02  0.41493429998E+02 -0.31508269791E+02  0.15110537066E+03  0.12500948969E+03 0.  0.
         23    2    1    2    0    0 -0.67014809799E+02 -0.41493429998E+02 -0.29974087328E+02  0.12368092093E+03  0.90475603485E+02 0.  0.
          5    1    3    3  502    0  0.20506740251E+02 -0.41135075536E+02  0.10357097231E+02  0.47349554361E+02  0.47000000000E+01 0.  1.
         -5    1    3    3    0  502  0.46508069548E+02  0.82628505535E+02 -0.41865367022E+02  0.10375581630E+03  0.47000000000E+01 0.  1.
          5    1    4    4  503    0 -0.63523002471E+02 -0.65808643765E+02 -0.35222787501E+02  0.98125858959E+02  0.47000000000E+01 0. -1.
         -5    1    4    4    0  503 -0.34918073275E+01  0.24315213767E+02  0.52487001730E+01  0.25555061973E+02  0.47000000000E+01 0.  1.
<mgrwt>
<rscale>  0 0.14028458E+03</rscale>
<asrwt>0</asrwt>
<pdfrwt beam="1">  1        2 0.25866819E-01 0.14778384E+03</pdfrwt>
<pdfrwt beam="2">  1       -2 0.16407995E-01 0.14778384E+03</pdfrwt>
<totfact> 0.58380843E+03</totfact>
</mgrwt>
</event>
<event>
 8    1  0.3629925E-004  0.1353137E+03  0.7546771E-02  0.1231685E+00
          2   -1    0    0  501    0  0.00000000000E+00  0.00000000000E+00  0.27295692224E+03  0.27295692224E+03  0.00000000000E+00 0. -1.
         -2   -1    0    0    0  501 -0.00000000000E+00 -0.00000000000E+00 -0.61551489201E+02  0.61551489201E+02  0.00000000000E+00 0.  1.
         25    2    1    2    0    0 -0.89131948823E+00  0.51804905085E+02  0.17825561319E+03  0.22379645382E+03  0.12500098587E+03 0.  0.
         23    2    1    2    0    0  0.89131948823E+00 -0.51804905085E+02  0.33149819850E+02  0.11071195762E+03  0.92052617361E+02 0.  0.
          5    1    4    4  502    0 -0.22582024845E+02  0.16960644102E+02 -0.41018100708E+01  0.28922761630E+02  0.47000000000E+01 0. -1.
         -5    1    3    3    0  503  0.16865874487E+02 -0.38914978133E+02  0.52698015385E+02  0.67808584050E+02  0.47000000000E+01 0.  1.
          5    1    3    3  503    0 -0.17757193975E+02  0.90719883218E+02  0.12555759781E+03  0.15598786977E+03  0.47000000000E+01 0.  1.
         -5    1    4    4    0  502  0.23473344333E+02 -0.68765549187E+02  0.37251629920E+02  0.81789195991E+02  0.47000000000E+01 0.  1.
<mgrwt>
<rscale>  0 0.12719079E+03</rscale>
<asrwt>0</asrwt>
<pdfrwt beam="1">  1        2 0.41993372E-01 0.13531367E+03</pdfrwt>
<pdfrwt beam="2">  1       -2 0.94694600E-02 0.13531367E+03</pdfrwt>
<totfact> 0.83211121E+03</totfact>
</mgrwt>
</event>
<event>
 8    1  0.3629925E-004  0.1285659E+03  0.7546771E-02  0.1243699E+00
         -2   -1    0    0    0  501 -0.00000000000E+00  0.00000000000E+00  0.28289091642E+02  0.28289091642E+02  0.00000000000E+00 0.  1.
          2   -1    0    0  501    0  0.00000000000E+00 -0.00000000000E+00 -0.45828004032E+03  0.45828004032E+03  0.00000000000E+00 0. -1.
         25    2    1    2    0    0  0.10109497032E+00 -0.30176552593E+02 -0.28236298681E+03  0.31025481843E+03  0.12497424331E+03 0.  0.
         23    2    1    2    0    0 -0.10109497032E+00  0.30176552593E+02 -0.14762796187E+03  0.17631431354E+03  0.91553740971E+02 0.  0.
          5    1    4    4  502    0  0.35230869110E+02 -0.12150939204E+02 -0.37562154220E+02  0.53121228256E+02  0.47000000000E+01 0. -1.
         -5    1    3    3    0  503 -0.37487256110E+02 -0.26192265994E+02 -0.29687445841E+02  0.54724433383E+02  0.47000000000E+01 0.  1.
          5    1    3    3  503    0  0.37588351080E+02 -0.39842865991E+01 -0.25267554097E+03  0.25553038505E+03  0.47000000000E+01 0.  1.
         -5    1    4    4    0  502 -0.35331964080E+02  0.42327491797E+02 -0.11006580765E+03  0.12319308528E+03  0.47000000000E+01 0.  1.
<mgrwt>
<rscale>  0 0.11963611E+03</rscale>
<asrwt>0</asrwt>
<pdfrwt beam="1">  1        2 0.70504619E-01 0.12856592E+03</pdfrwt>
<pdfrwt beam="2">  1       -2 0.43521681E-02 0.12856592E+03</pdfrwt>
<totfact> 0.15600095E+04</totfact>
</mgrwt>
</event>
<event>
 8    1  0.3629925E-004  0.1813464E+03  0.7546771E-02  0.1172002E+00
         -2   -1    0    0    0  501 -0.00000000000E+00  0.00000000000E+00  0.43376794816E+02  0.43376794816E+02  0.00000000000E+00 0.  1.
          2   -1    0    0  501    0  0.00000000000E+00 -0.00000000000E+00 -0.76034378742E+03  0.76034378742E+03  0.00000000000E+00 0. -1.
         25    2    1    2    0    0  0.53415331710E+02  0.12003860057E+03 -0.24096533611E+03  0.30158049494E+03  0.12499615367E+03 0.  0.
         23    2    1    2    0    0 -0.53415331710E+02 -0.12003860057E+03 -0.47600165650E+03  0.50214008730E+03  0.91129726182E+02 0.  0.
          5    1    3    3  502    0 -0.19568802338E+02 -0.88770432571E+01 -0.44199099501E+01  0.22435809009E+02  0.47000000000E+01 0. -1.
         -5    1    3    3    0  502  0.72984134048E+02  0.12891564383E+03 -0.23654542616E+03  0.27914468593E+03  0.47000000000E+01 0. -1.
          5    1    4    4  503    0  0.78736804613E+01 -0.82531675853E+02 -0.19270522221E+03  0.20983532837E+03  0.47000000000E+01 0. -1.
         -5    1    4    4    0  503 -0.61289012171E+02 -0.37506924721E+02 -0.28329643429E+03  0.29230475893E+03  0.47000000000E+01 0.  1.
<mgrwt>
<rscale>  0 0.17572833E+03</rscale>
<asrwt>0</asrwt>
<pdfrwt beam="1">  1        2 0.11697597E+00 0.18134636E+03</pdfrwt>
<pdfrwt beam="2">  1       -2 0.66733532E-02 0.18134636E+03</pdfrwt>
<totfact> 0.46715984E+03</totfact>
</mgrwt>
</event>
<event>
 8    1  0.3629925E-004  0.1262460E+03  0.7546771E-02  0.1249876E+00
         -1   -1    0    0    0  501 -0.00000000000E+00  0.00000000000E+00  0.59898393884E+02  0.59898393884E+02  0.00000000000E+00 0.  1.
          1   -1    0    0  501    0  0.00000000000E+00 -0.00000000000E+00 -0.21960004477E+03  0.21960004477E+03  0.00000000000E+00 0. -1.
         25    2    1    2    0    0  0.17017439000E+02 -0.55289687249E+01 -0.13790143341E+03  0.18696215810E+03  0.12497151875E+03 0.  0.
         23    2    1    2    0    0 -0.17017439000E+02  0.55289687249E+01 -0.21800217475E+02  0.92536280554E+02  0.88133710982E+02 0.  0.
          5    1    4    4  502    0 -0.28072866607E+02  0.42259249193E+02 -0.16342532580E+02  0.53507927946E+02  0.47000000000E+01 0. -1.
         -5    1    4    4    0  502  0.11055427608E+02 -0.36730280468E+02 -0.54576848950E+01  0.39028352608E+02  0.47000000000E+01 0.  1.
          5    1    3    3  503    0 -0.31284457001E+02  0.12362135980E+01 -0.13413239211E+03  0.13781811959E+03  0.47000000000E+01 0. -1.
         -5    1    3    3    0  503  0.48301896001E+02 -0.67651823229E+01 -0.37690413046E+01  0.49144038514E+02  0.47000000000E+01 0.  1.
<mgrwt>
<rscale>  0 0.11598220E+03</rscale>
<asrwt>0</asrwt>
<pdfrwt beam="1">  1        1 0.33784622E-01 0.12624596E+03</pdfrwt>
<pdfrwt beam="2">  1       -1 0.92151376E-02 0.12624596E+03</pdfrwt>
<totfact> 0.84812822E+03</totfact>
</mgrwt>
</event>
<event>
 8    1  0.3629925E-004  0.2068002E+03  0.7546771E-02  0.1148041E+00
         -1   -1    0    0    0  501 -0.00000000000E+00  0.00000000000E+00  0.12240305764E+04  0.12240305764E+04  0.00000000000E+00 0.  1.
          1   -1    0    0  501    0  0.00000000000E+00 -0.00000000000E+00 -0.44525066415E+02  0.44525066415E+02  0.00000000000E+00 0. -1.
         25    2    1    2    0    0 -0.11778430695E+03  0.11517498637E+03  0.94706854485E+03  0.96938390779E+03  0.12501164588E+03 0.  0.
         23    2    1    2    0    0  0.11778430695E+03 -0.11517498637E+03  0.23243696513E+03  0.29917173501E+03  0.91314641884E+02 0.  0.
          5    1    3    3  502    0 -0.98695465953E+02  0.10105585342E+02  0.49264897988E+03  0.50256146413E+03  0.47000000000E+01 0.  1.
         -5    1    3    3    0  502 -0.19088840996E+02  0.10506940102E+03  0.45441956496E+03  0.46682244366E+03  0.47000000000E+01 0.  1.
          5    1    4    4  503    0  0.75753072560E+02 -0.10833529439E+03  0.11905024887E+03  0.17796099508E+03  0.47000000000E+01 0. -1.
         -5    1    4    4    0  503  0.42031234390E+02 -0.68396919722E+01  0.11338671626E+03  0.12121073993E+03  0.47000000000E+01 0.  1.
<mgrwt>
<rscale>  0 0.20202554E+03</rscale>
<asrwt>0</asrwt>
<pdfrwt beam="1">  1        1 0.68500112E-02 0.20680022E+03</pdfrwt>
<pdfrwt beam="2">  1       -1 0.18831237E+00 0.20680022E+03</pdfrwt>
<totfact> 0.21662728E+02</totfact>
</mgrwt>
</event>
<event>
 8    1  0.3629925E-004  0.1960394E+03  0.7546771E-02  0.1158333E+00
          2   -1    0    0  501    0  0.00000000000E+00  0.00000000000E+00  0.51872628136E+03  0.51872628136E+03  0.00000000000E+00 0. -1.
         -2   -1    0    0    0  501 -0.00000000000E+00 -0.00000000000E+00 -0.66867753327E+02  0.66867753327E+02  0.00000000000E+00 0.  1.
         25    2    1    2    0    0 -0.12236192018E+03 -0.88507140543E+02  0.27619908144E+03  0.33869951213E+03  0.12500189397E+03 0.  0.
         23    2    1    2    0    0  0.12236192018E+03  0.88507140543E+02  0.17565944660E+03  0.24689452256E+03  0.85409078283E+02 0.  0.
          5    1    4    4  502    0  0.16972313529E+02  0.55474424369E+02  0.89401957513E+02  0.10667835391E+03  0.47000000000E+01 0. -1.
         -5    1    3    3    0  503 -0.87370923241E+02 -0.12013478191E+03  0.20740524304E+03  0.25515694953E+03  0.47000000000E+01 0. -1.
          5    1    3    3  503    0 -0.34990996935E+02  0.31627641368E+02  0.68793838400E+02  0.83542562606E+02  0.47000000000E+01 0. -1.
         -5    1    4    4    0  502  0.10538960665E+03  0.33032716174E+02  0.86257489088E+02  0.14021616865E+03  0.47000000000E+01 0.  1.
<mgrwt>
<rscale>  0 0.19014261E+03</rscale>
<asrwt>0</asrwt>
<pdfrwt beam="1">  1        2 0.79804041E-01 0.19603935E+03</pdfrwt>
<pdfrwt beam="2">  1       -2 0.10287347E-01 0.19603935E+03</pdfrwt>
<totfact> 0.37285481E+03</totfact>
</mgrwt>
</event>
<event>
 8    1  0.3629925E-004  0.3686606E+03  0.7546771E-02  0.1056216E+00
          2   -1    0    0  501    0  0.00000000000E+00  0.00000000000E+00  0.17765484231E+04  0.17765484231E+04  0.00000000000E+00 0. -1.
         -2   -1    0    0    0  501 -0.00000000000E+00 -0.00000000000E+00 -0.90112158297E+02  0.90112158297E+02  0.00000000000E+00 0.  1.
         25    2    1    2    0    0 -0.18164867356E+03  0.29544867844E+03  0.12432287883E+04  0.12967376190E+04  0.12499788152E+03 0.  0.
         23    2    1    2    0    0  0.18164867356E+03 -0.29544867844E+03  0.44320747653E+03  0.56992296238E+03  0.89961956394E+02 0.  0.
          5    1    3    3  502    0 -0.99211766080E+02  0.15296377950E+03  0.43130044499E+03  0.46827668767E+03  0.47000000000E+01 0.  1.
         -5    1    4    4    0  503  0.45747528712E+02 -0.15681130514E+03  0.18498987015E+03  0.24683185342E+03  0.47000000000E+01 0.  1.
          5    1    4    4  503    0  0.13590114485E+03 -0.13863737330E+03  0.25821760637E+03  0.32309110896E+03  0.47000000000E+01 0. -1.
         -5    1    3    3    0  502 -0.82436907482E+02  0.14248489894E+03  0.81192834327E+03  0.82846093134E+03  0.47000000000E+01 0.  1.
<mgrwt>
<rscale>  0 0.36604284E+03</rscale>
<asrwt>0</asrwt>
<pdfrwt beam="1">  1        2 0.27331511E+00 0.36866059E+03</pdfrwt>
<pdfrwt beam="2">  1       -2 0.13863410E-01 0.36866059E+03</pdfrwt>
<totfact> 0.37564726E+02</totfact>
</mgrwt>
</event>
<event>
 8    1  0.3629925E-004  0.1997525E+03  0.7546771E-02  0.1154406E+00
          2   -1    0    0  501    0  0.00000000000E+00  0.00000000000E+00  0.22209733210E+03  0.22209733210E+03  0.00000000000E+00 0. -1.
         -2   -1    0    0    0  501 -0.00000000000E+00 -0.00000000000E+00 -0.17743643736E+03  0.17743643736E+03  0.00000000000E+00 0.  1.
         25    2    1    2    0    0  0.54794663663E+02  0.14585004679E+03 -0.35136960734E+02  0.20281930661E+03  0.12500549512E+03 0.  0.
         23    2    1    2    0    0 -0.54794663663E+02 -0.14585004679E+03  0.79797855469E+02  0.19671446285E+03  0.89745143837E+02 0.  0.
          5    1    4    4  502    0 -0.18622808516E+02 -0.53530211556E+02  0.79130725702E+02  0.97447700313E+02  0.47000000000E+01 0. -1.
         -5    1    3    3    0  503  0.86440252221E+02  0.13078229004E+03 -0.59225011998E+01  0.15694932499E+03  0.47000000000E+01 0. -1.
          5    1    3    3  503    0 -0.31645588559E+02  0.15067756743E+02 -0.29214459534E+02  0.45869981626E+02  0.47000000000E+01 0. -1.
         -5    1    4    4    0  502 -0.36171855147E+02 -0.92319835232E+02  0.66712976678E+00  0.99266762535E+02  0.47000000000E+01 0.  1.
<mgrwt>
<rscale>  0 0.19456648E+03</rscale>
<asrwt>0</asrwt>
<pdfrwt beam="1">  1        2 0.34168820E-01 0.19975251E+03</pdfrwt>
<pdfrwt beam="2">  1       -2 0.27297913E-01 0.19975251E+03</pdfrwt>
<totfact> 0.18243145E+03</totfact>
</mgrwt>
</event>
<event>
 8    1  0.3629925E-004  0.3031868E+03  0.7546771E-02  0.1085187E+00
         -2   -1    0    0    0  501 -0.00000000000E+00  0.00000000000E+00  0.39324683469E+03  0.39324683469E+03  0.00000000000E+00 0.  1.
          2   -1    0    0  501    0  0.00000000000E+00 -0.00000000000E+00 -0.24897771299E+03  0.24897771299E+03  0.00000000000E+00 0. -1.
         25    2    1    2    0    0 -0.27387092907E+03 -0.35940234633E+02  0.17414108550E+03  0.34963885915E+03  0.12500091165E+03 0.  0.
         23    2    1    2    0    0  0.27387092907E+03  0.35940234633E+02 -0.29871963802E+02  0.29258568852E+03  0.91744561961E+02 0.  0.
          5    1    3    3  502    0 -0.16506498781E+03 -0.54148527192E+02  0.44583466939E+02  0.17941094928E+03  0.47000000000E+01 0.  1.
         -5    1    4    4    0  503  0.12875382855E+03 -0.31530618654E+01  0.27267027377E+02  0.13173105536E+03  0.47000000000E+01 0.  1.
          5    1    4    4  503    0  0.14511710053E+03  0.39093296498E+02 -0.57138991179E+02  0.16085463316E+03  0.47000000000E+01 0. -1.
         -5    1    3    3    0  502 -0.10880594126E+03  0.18208292559E+02  0.12955761856E+03  0.17022790987E+03  0.47000000000E+01 0.  1.
<mgrwt>
<rscale>  0 0.30010768E+03</rscale>
<asrwt>0</asrwt>
<pdfrwt beam="1">  1        2 0.38304264E-01 0.30318676E+03</pdfrwt>
<pdfrwt beam="2">  1       -2 0.60499513E-01 0.30318676E+03</pdfrwt>
<totfact> 0.34979089E+02</totfact>
</mgrwt>
</event>
<event>
 8    1  0.3629925E-004  0.1797324E+03  0.7546771E-02  0.1173807E+00
          4   -1    0    0  501    0  0.00000000000E+00  0.00000000000E+00  0.77346443184E+02  0.77346443184E+02  0.00000000000E+00 0. -1.
         -4   -1    0    0    0  501 -0.00000000000E+00 -0.00000000000E+00 -0.37128951494E+03  0.37128951494E+03  0.00000000000E+00 0.  1.
         25    2    1    2    0    0 -0.12668546109E+03 -0.25121260765E+02 -0.13504641914E+03  0.22481385067E+03  0.12499379319E+03 0.  0.
         23    2    1    2    0    0  0.12668546109E+03  0.25121260765E+02 -0.15889665262E+03  0.22382210746E+03  0.90376466957E+02 0.  0.
          5    1    4    4  502    0  0.10182866504E+03 -0.14539642329E+01 -0.59894272322E+02  0.11823960797E+03  0.47000000000E+01 0. -1.
         -5    1    4    4    0  502  0.24856796050E+02  0.26575224998E+02 -0.99002380301E+02  0.10558249949E+03  0.47000000000E+01 0.  1.
          5    1    3    3  503    0 -0.10081877514E+03 -0.67910676921E+02 -0.63007619034E+02  0.13699757486E+03  0.47000000000E+01 0. -1.
         -5    1    3    3    0  503 -0.25866685952E+02  0.42789416156E+02 -0.72038800103E+02  0.87816275811E+02  0.47000000000E+01 0. -1.
<mgrwt>
<rscale>  0 0.17393285E+03</rscale>
<asrwt>0</asrwt>
<pdfrwt beam="1">  1        4 0.11899453E-01 0.17973239E+03</pdfrwt>
<pdfrwt beam="2">  1       -4 0.57121465E-01 0.17973239E+03</pdfrwt>
<totfact> 0.29012809E+02</totfact>
</mgrwt>
</event>
<event>
 8    1  0.3629925E-004  0.1386691E+03  0.7546771E-02  0.1226736E+00
          1   -1    0    0  501    0  0.00000000000E+00  0.00000000000E+00  0.91204835010E+03  0.91204835010E+03  0.00000000000E+00 0. -1.
         -1   -1    0    0    0  501 -0.00000000000E+00 -0.00000000000E+00 -0.17134178216E+02  0.17134178216E+02  0.00000000000E+00 0.  1.
         25    2    1    2    0    0 -0.34442581365E+02 -0.49182866998E+02  0.56717582930E+03  0.58388144990E+03  0.12499552142E+03 0.  0.
         23    2    1    2    0    0  0.34442581365E+02  0.49182866998E+02  0.32773834259E+03  0.34530107843E+03  0.90637562523E+02 0.  0.
          5    1    4    4  502    0  0.49573350526E+02  0.18698568162E+02  0.28755495011E+03  0.29243305707E+03  0.47000000000E+01 0. -1.
         -5    1    4    4    0  502 -0.15130769160E+02  0.30484298836E+02  0.40183392481E+02  0.52868021357E+02  0.47000000000E+01 0.  1.
          5    1    3    3  503    0 -0.81505032041E+02 -0.34230151480E+02  0.33819185608E+03  0.34958631986E+03  0.47000000000E+01 0. -1.
         -5    1    3    3    0  503  0.47062450676E+02 -0.14952715518E+02  0.22898397322E+03  0.23429513003E+03  0.47000000000E+01 0. -1.
<mgrwt>
<rscale>  0 0.13048600E+03</rscale>
<asrwt>0</asrwt>
<pdfrwt beam="1">  1        1 0.14031509E+00 0.13866912E+03</pdfrwt>
<pdfrwt beam="2">  1       -1 0.26360281E-02 0.13866912E+03</pdfrwt>
<totfact> 0.82529438E+03</totfact>
</mgrwt>
</event>
<event>
 8    1  0.3629925E-004  0.1359895E+03  0.7546771E-02  0.1231023E+00
          1   -1    0    0  501    0  0.00000000000E+00  0.00000000000E+00  0.16258551778E+03  0.16258551778E+03  0.00000000000E+00 0. -1.
         -1   -1    0    0    0  501 -0.00000000000E+00 -0.00000000000E+00 -0.10544442122E+03  0.10544442122E+03  0.00000000000E+00 0.  1.
         25    2    1    2    0    0 -0.77131897446E+01 -0.52997004366E+02 -0.19847698062E+02  0.13743020791E+03  0.12499982064E+03 0.  0.
         23    2    1    2    0    0  0.77131897446E+01  0.52997004366E+02  0.76988794627E+02  0.13059973109E+03  0.90889160491E+02 0.  0.
          5    1    3    3  502    0 -0.53613569361E+02  0.12790994881E+02 -0.12700638849E+02  0.56757559821E+02  0.47000000000E+01 0. -1.
         -5    1    3    3    0  502  0.45900379616E+02 -0.65787999246E+02 -0.71470592122E+01  0.80672648086E+02  0.47000000000E+01 0. -1.
          5    1    4    4  503    0 -0.41305246192E+02  0.27234224705E+02  0.32140554655E+02  0.59185569286E+02  0.47000000000E+01 0. -1.
         -5    1    4    4    0  503  0.49018435936E+02  0.25762779661E+02  0.44848239972E+02  0.71414161803E+02  0.47000000000E+01 0.  1.
<mgrwt>
<rscale>  0 0.12762507E+03</rscale>
<asrwt>0</asrwt>
<pdfrwt beam="1">  1        1 0.25013156E-01 0.13598945E+03</pdfrwt>
<pdfrwt beam="2">  1       -1 0.16222219E-01 0.13598945E+03</pdfrwt>
<totfact> 0.51744480E+03</totfact>
</mgrwt>
</event>
<event>
 8    1  0.3629925E-004  0.1341844E+03  0.7546771E-02  0.1235487E+00
          4   -1    0    0  501    0  0.00000000000E+00  0.00000000000E+00  0.50317202004E+02  0.50317202004E+02  0.00000000000E+00 0. -1.
         -4   -1    0    0    0  501 -0.00000000000E+00 -0.00000000000E+00 -0.39107923822E+03  0.39107923822E+03  0.00000000000E+00 0.  1.
         25    2    1    2    0    0  0.26366631420E+02  0.41053066164E+02 -0.67213018295E+02  0.15007681965E+03  0.12499963389E+03 0.  0.
         23    2    1    2    0    0 -0.26366631420E+02 -0.41053066164E+02 -0.27354901792E+03  0.29131962058E+03  0.87507157621E+02 0.  0.
          5    1    4    4  502    0  0.40751006433E+01 -0.58919700786E+02 -0.12175729659E+03  0.13540704139E+03  0.47000000000E+01 0. -1.
         -5    1    4    4    0  502 -0.30441732063E+02  0.17866634622E+02 -0.15179172133E+03  0.15591257919E+03  0.47000000000E+01 0.  1.
          5    1    3    3  503    0 -0.44203949042E+01 -0.42687203908E+02 -0.33262038399E+02  0.54499453823E+02  0.47000000000E+01 0.  1.
         -5    1    3    3    0  503  0.30787026324E+02  0.83740270072E+02 -0.33950979896E+02  0.95577365822E+02  0.47000000000E+01 0.  1.
<mgrwt>
<rscale>  0 0.12473341E+03</rscale>
<asrwt>0</asrwt>
<pdfrwt beam="1">  1        4 0.77411082E-02 0.13418443E+03</pdfrwt>
<pdfrwt beam="2">  1       -4 0.60166035E-01 0.13418443E+03</pdfrwt>
<totfact> 0.50954496E+02</totfact>
</mgrwt>
</event>
<event>
 8    1  0.3629925E-004  0.1838635E+03  0.7546771E-02  0.1169367E+00
         -1   -1    0    0    0  501 -0.00000000000E+00  0.00000000000E+00  0.80102590000E+02  0.80102590000E+02  0.00000000000E+00 0.  1.
          1   -1    0    0  501    0  0.00000000000E+00 -0.00000000000E+00 -0.39854239132E+03  0.39854239132E+03  0.00000000000E+00 0. -1.
         25    2    1    2    0    0 -0.98216572231E+02 -0.92379686913E+02 -0.22587289825E+03  0.29124621879E+03  0.12500116872E+03 0.  0.
         23    2    1    2    0    0  0.98216572231E+02  0.92379686913E+02 -0.92566903066E+02  0.18739876253E+03  0.91483129803E+02 0.  0.
          5    1    3    3  502    0 -0.15843761359E+02 -0.99560470944E+02 -0.12932944987E+03  0.16404727597E+03  0.47000000000E+01 0.  1.
         -5    1    3    3    0  502 -0.82372810872E+02  0.71807840304E+01 -0.96543448386E+02  0.12719894283E+03  0.47000000000E+01 0.  1.
          5    1    4    4  503    0  0.19491464995E+02  0.36109432439E+02  0.13778102361E+02  0.43540032423E+02  0.47000000000E+01 0. -1.
         -5    1    4    4    0  503  0.78725107236E+02  0.56270254474E+02 -0.10634500543E+03  0.14385873010E+03  0.47000000000E+01 0.  1.
<mgrwt>
<rscale>  0 0.17839351E+03</rscale>
<asrwt>0</asrwt>
<pdfrwt beam="1">  1        1 0.61314213E-01 0.18386352E+03</pdfrwt>
<pdfrwt beam="2">  1       -1 0.12323476E-01 0.18386352E+03</pdfrwt>
<totfact> 0.26342919E+03</totfact>
</mgrwt>
</event>
<event>
 8    1  0.3629925E-004  0.1269742E+03  0.7546771E-02  0.1246705E+00
         -1   -1    0    0    0  501 -0.00000000000E+00  0.00000000000E+00  0.26774001928E+02  0.26774001928E+02  0.00000000000E+00 0.  1.
          1   -1    0    0  501    0  0.00000000000E+00 -0.00000000000E+00 -0.50291433101E+03  0.50291433101E+03  0.00000000000E+00 0. -1.
         25    2    1    2    0    0 -0.10835767867E+02  0.19489973547E+02 -0.19066522246E+03  0.22907572098E+03  0.12500074381E+03 0.  0.
         23    2    1    2    0    0  0.10835767867E+02 -0.19489973547E+02 -0.28547510662E+03  0.30061261195E+03  0.91513021109E+02 0.  0.
          5    1    4    4  502    0  0.41011905291E+02  0.86120913758E+01 -0.21265970376E+03  0.21680033233E+03  0.47000000000E+01 0. -1.
         -5    1    3    3    0  503 -0.10396647483E+02 -0.28465681679E+02  0.17512581346E+01  0.30717132310E+02  0.47000000000E+01 0.  1.
          5    1    3    3  503    0 -0.43912038415E+00  0.47955655226E+02 -0.19241648060E+03  0.19835858867E+03  0.47000000000E+01 0.  1.
         -5    1    4    4    0  502 -0.30176137424E+02 -0.28102064923E+02 -0.72815402853E+02  0.83812279622E+02  0.47000000000E+01 0.  1.
<mgrwt>
<rscale>  0 0.11783894E+03</rscale>
<asrwt>0</asrwt>
<pdfrwt beam="1">  1        1 0.77371434E-01 0.12697424E+03</pdfrwt>
<pdfrwt beam="2">  1       -1 0.41190773E-02 0.12697424E+03</pdfrwt>
<totfact> 0.99961478E+03</totfact>
</mgrwt>
</event>
<event>
 8    1  0.3629925E-004  0.1332077E+03  0.7546771E-02  0.1234983E+00
         -2   -1    0    0    0  501 -0.00000000000E+00  0.00000000000E+00  0.57238129457E+03  0.57238129457E+03  0.00000000000E+00 0.  1.
          2   -1    0    0  501    0  0.00000000000E+00 -0.00000000000E+00 -0.25158187083E+02  0.25158187083E+02  0.00000000000E+00 0. -1.
         25    2    1    2    0    0  0.42928934469E+02 -0.16628800003E+02  0.25788575087E+03  0.29025738466E+03  0.12499951376E+03 0.  0.
         23    2    1    2    0    0 -0.42928934469E+02  0.16628800003E+02  0.28933735661E+03  0.30728209699E+03  0.92664830423E+02 0.  0.
          5    1    3    3  502    0  0.30949247786E+02 -0.34388783936E+02  0.26353731320E+03  0.26760876265E+03  0.47000000000E+01 0.  1.
         -5    1    4    4    0  503 -0.66100012964E+02  0.22607623085E+02  0.25932350098E+03  0.26860953910E+03  0.47000000000E+01 0.  1.
          5    1    4    4  503    0  0.23171078495E+02 -0.59788230821E+01  0.30013855633E+02  0.38672557894E+02  0.47000000000E+01 0. -1.
         -5    1    3    3    0  502  0.11979686682E+02  0.17759983933E+02 -0.56515623222E+01  0.22648622011E+02  0.47000000000E+01 0.  1.
<mgrwt>
<rscale>  0 0.12505507E+03</rscale>
<asrwt>0</asrwt>
<pdfrwt beam="1">  1        2 0.38704908E-02 0.13320769E+03</pdfrwt>
<pdfrwt beam="2">  1       -2 0.88058651E-01 0.13320769E+03</pdfrwt>
<totfact> 0.24333939E+03</totfact>
</mgrwt>
</event>
<event>
 8    1  0.3629925E-004  0.2316164E+03  0.7546771E-02  0.1128310E+00
          2   -1    0    0  501    0  0.00000000000E+00  0.00000000000E+00  0.17507866048E+04  0.17507866048E+04  0.00000000000E+00 0. -1.
         -2   -1    0    0    0  501 -0.00000000000E+00 -0.00000000000E+00 -0.28626203806E+02  0.28626203806E+02  0.00000000000E+00 0.  1.
         25    2    1    2    0    0 -0.62318699494E+02  0.18476298186E+03  0.89194161771E+03  0.92152373520E+03  0.12500066148E+03 0.  0.
         23    2    1    2    0    0  0.62318699494E+02 -0.18476298186E+03  0.83021878326E+03  0.85788907338E+03  0.93217242890E+02 0.  0.
          5    1    3    3  502    0 -0.87761108326E+02  0.13437262563E+03  0.77659055697E+03  0.79301513089E+03  0.47000000000E+01 0. -1.
         -5    1    4    4    0  503  0.91706839751E+01 -0.81570930807E+02  0.18718730778E+03  0.20444827315E+03  0.47000000000E+01 0.  1.
          5    1    4    4  503    0  0.53148015519E+02 -0.10319205105E+03  0.64303147548E+03  0.65344080023E+03  0.47000000000E+01 0. -1.
         -5    1    3    3    0  502  0.25442408832E+02  0.50390356227E+02  0.11535106074E+03  0.12850860431E+03  0.47000000000E+01 0. -1.
<mgrwt>
<rscale>  0 0.22764268E+03</rscale>
<asrwt>0</asrwt>
<pdfrwt beam="1">  1        2 0.26935170E+00 0.23161637E+03</pdfrwt>
<pdfrwt beam="2">  1       -2 0.44040327E-02 0.23161637E+03</pdfrwt>
<totfact> 0.23883276E+03</totfact>
</mgrwt>
</event>
<event>
 8    1  0.3629925E-004  0.2028376E+03  0.7546771E-02  0.1152047E+00
          3   -1    0    0  501    0  0.00000000000E+00  0.00000000000E+00  0.13653073405E+03  0.13653073405E+03  0.00000000000E+00 0. -1.
         -3   -1    0    0    0  501 -0.00000000000E+00 -0.00000000000E+00 -0.31680460809E+03  0.31680460809E+03  0.00000000000E+00 0.  1.
         25    2    1    2    0    0 -0.14152773071E+03  0.74065386269E+02 -0.78874653807E+01  0.20299091771E+03  0.12500928189E+03 0.  0.
         23    2    1    2    0    0  0.14152773071E+03 -0.74065386269E+02 -0.17238640867E+03  0.25034442443E+03  0.86252402544E+02 0.  0.
          5    1    3    3  502    0 -0.12711107807E+03  0.50319508128E+02  0.44215613452E+02  0.14375809382E+03  0.47000000000E+01 0.  1.
         -5    1    4    4    0  503  0.15637243987E+02 -0.35927706017E+02 -0.81010394989E+02  0.90111583914E+02  0.47000000000E+01 0.  1.
          5    1    4    4  503    0  0.12589048673E+03 -0.38137680252E+02 -0.91376013676E+02  0.16023284051E+03  0.47000000000E+01 0. -1.
         -5    1    3    3    0  502 -0.14416652641E+02  0.23745878141E+02 -0.52103078832E+02  0.59232823889E+02  0.47000000000E+01 0.  1.
<mgrwt>
<rscale>  0 0.19728859E+03</rscale>
<asrwt>0</asrwt>
<pdfrwt beam="1">  1        3 0.21004728E-01 0.20283762E+03</pdfrwt>
<pdfrwt beam="2">  1       -3 0.48739171E-01 0.20283762E+03</pdfrwt>
<totfact> 0.21151336E+02</totfact>
</mgrwt>
</event>
<event>
 8    1  0.3629925E-004  0.3053509E+03  0.7546771E-02  0.1084188E+00
          2   -1    0    0  501    0  0.00000000000E+00  0.00000000000E+00  0.19989574830E+04  0.19989574830E+04  0.00000000000E+00 0. -1.
         -2   -1    0    0    0  501 -0.00000000000E+00 -0.00000000000E+00 -0.45074124396E+02  0.45074124396E+02  0.00000000000E+00 0.  1.
         25    2    1    2    0    0  0.91756411132E+02 -0.26304517715E+03  0.10884394557E+04  0.11304599107E+04  0.12500862727E+03 0.  0.
         23    2    1    2    0    0 -0.91756411132E+02  0.26304517715E+03  0.86544390296E+03  0.91357169669E+03  0.89487941254E+02 0.  0.
          5    1    4    4  502    0 -0.10128269224E+02  0.31146953686E+02  0.22725813275E+03  0.22965422587E+03  0.47000000000E+01 0. -1.
         -5    1    3    3    0  503  0.41504802565E+02 -0.11581385809E+02  0.94574790419E+02  0.10403488894E+03  0.47000000000E+01 0.  1.
          5    1    3    3  503    0  0.50251608567E+02 -0.25146379134E+03  0.99386466524E+03  0.10264250218E+04  0.47000000000E+01 0.  1.
         -5    1    4    4    0  502 -0.81628141908E+02  0.23189822346E+03  0.63818577021E+03  0.68391747082E+03  0.47000000000E+01 0.  1.
<mgrwt>
<rscale>  0 0.30211435E+03</rscale>
<asrwt>0</asrwt>
<pdfrwt beam="1">  1        2 0.30753185E+00 0.30535088E+03</pdfrwt>
<pdfrwt beam="2">  1       -2 0.69344822E-02 0.30535088E+03</pdfrwt>
<totfact> 0.87636886E+02</totfact>
</mgrwt>
</event>
<event>
 8    1  0.3629925E-004  0.1304820E+03  0.7546771E-02  0.1238110E+00
         -2   -1    0    0    0  501 -0.00000000000E+00  0.00000000000E+00  0.40675026249E+02  0.40675026249E+02  0.00000000000E+00 0. -1.
          2   -1    0    0  501    0  0.00000000000E+00 -0.00000000000E+00 -0.33937643140E+03  0.33937643140E+03  0.00000000000E+00 0.  1.
         25    2    1    2    0    0  0.30142075047E+02 -0.22219857806E+02 -0.14733443632E+03  0.19680695627E+03  0.12499310038E+03 0.  0.
         23    2    1    2    0    0 -0.30142075047E+02  0.22219857806E+02 -0.15136696883E+03  0.18324450138E+03  0.96251344216E+02 0.  0.
          5    1    4    4  502    0  0.12270710331E+02 -0.21808374487E+02 -0.70139112290E+01  0.26409477097E+02  0.47000000000E+01 0. -1.
         -5    1    4    4    0  502 -0.42412785379E+02  0.44028232293E+02 -0.14435305760E+03  0.15683502428E+03  0.47000000000E+01 0.  1.
          5    1    3    3  503    0 -0.17601556621E+02  0.44067258885E+02 -0.66100788574E+02  0.81505474363E+02  0.47000000000E+01 0.  1.
         -5    1    3    3    0  503  0.47743631668E+02 -0.66287116691E+02 -0.81233647748E+02  0.11530148191E+03  0.47000000000E+01 0.  1.
<mgrwt>
<rscale>  0 0.12307392E+03</rscale>
<asrwt>0</asrwt>
<pdfrwt beam="1">  1        2 0.52211760E-01 0.13048196E+03</pdfrwt>
<pdfrwt beam="2">  1       -2 0.62576962E-02 0.13048196E+03</pdfrwt>
<totfact> 0.12470280E+04</totfact>
</mgrwt>
</event>
<event>
 8    1  0.3629925E-004  0.1588367E+03  0.7546771E-02  0.1197818E+00
         -1   -1    0    0    0  501 -0.00000000000E+00  0.00000000000E+00  0.57805710965E+02  0.57805710965E+02  0.00000000000E+00 0.  1.
          1   -1    0    0  501    0  0.00000000000E+00 -0.00000000000E+00 -0.37874100868E+03  0.37874100868E+03  0.00000000000E+00 0. -1.
         25    2    1    2    0    0 -0.32083924292E+02  0.92585913603E+02 -0.14172292777E+03  0.21287199419E+03  0.12501027181E+03 0.  0.
         23    2    1    2    0    0  0.32083924292E+02 -0.92585913603E+02 -0.17921236994E+03  0.22367472545E+03  0.91168962214E+02 0.  0.
          5    1    4    4  502    0 -0.19077623396E+02 -0.75366328785E+02 -0.12310184812E+03  0.14567152858E+03  0.47000000000E+01 0. -1.
         -5    1    4    4    0  502  0.51161547687E+02 -0.17219584818E+02 -0.56110521820E+02  0.78003196870E+02  0.47000000000E+01 0.  1.
          5    1    3    3  503    0  0.22171524675E+02  0.36429915682E+02 -0.12596992880E+03  0.13307602423E+03  0.47000000000E+01 0. -1.
         -5    1    3    3    0  503 -0.54255448967E+02  0.56155997921E+02 -0.15752998973E+02  0.79795969959E+02  0.47000000000E+01 0. -1.
<mgrwt>
<rscale>  0 0.15218089E+03</rscale>
<asrwt>0</asrwt>
<pdfrwt beam="1">  1        1 0.58267848E-01 0.15883670E+03</pdfrwt>
<pdfrwt beam="2">  1       -1 0.88931863E-02 0.15883670E+03</pdfrwt>
<totfact> 0.46151220E+03</totfact>
</mgrwt>
</event>
<event>
 8    1  0.3629925E-004  0.1828253E+03  0.7546771E-02  0.1170763E+00
          1   -1    0    0  501    0  0.00000000000E+00  0.00000000000E+00  0.41557376661E+02  0.41557376661E+02  0.00000000000E+00 0. -1.
         -1   -1    0    0    0  501 -0.00000000000E+00 -0.00000000000E+00 -0.80434501303E+03  0.80434501303E+03  0.00000000000E+00 0.  1.
         25    2    1    2    0    0 -0.52880867654E+02  0.12249028349E+03 -0.25803537887E+03  0.31623938839E+03  0.12499935321E+03 0.  0.
         23    2    1    2    0    0  0.52880867654E+02 -0.12249028349E+03 -0.50475225749E+03  0.52966300130E+03  0.89262521768E+02 0.  0.
          5    1    3    3  502    0  0.13720811851E+02  0.11468263162E+03 -0.16448286182E+03  0.20103996743E+03  0.47000000000E+01 0. -1.
         -5    1    3    3    0  502 -0.66601679505E+02  0.78076518677E+01 -0.93552517059E+02  0.11519942096E+03  0.47000000000E+01 0. -1.
          5    1    4    4  503    0  0.22413688246E+02 -0.89906261614E+02 -0.18689203713E+03  0.20865337965E+03  0.47000000000E+01 0. -1.
         -5    1    4    4    0  503  0.30467179409E+02 -0.32584021875E+02 -0.31786022036E+03  0.32100962165E+03  0.47000000000E+01 0.  1.
<mgrwt>
<rscale>  0 0.17697521E+03</rscale>
<asrwt>0</asrwt>
<pdfrwt beam="1">  1        1 0.63934427E-02 0.18282531E+03</pdfrwt>
<pdfrwt beam="2">  1       -1 0.12374538E+00 0.18282531E+03</pdfrwt>
<totfact> 0.72298770E+02</totfact>
</mgrwt>
</event>
<event>
 8    1  0.3629925E-004  0.1265957E+03  0.7546771E-02  0.1249264E+00
         -2   -1    0    0    0  501 -0.00000000000E+00  0.00000000000E+00  0.42961383914E+02  0.42961383914E+02  0.00000000000E+00 0.  1.
          2   -1    0    0  501    0  0.00000000000E+00 -0.00000000000E+00 -0.27900544626E+03  0.27900544626E+03  0.00000000000E+00 0. -1.
         25    2    1    2    0    0  0.18413294696E+02 -0.79596121277E+01 -0.11556542920E+03  0.17141134879E+03  0.12499630883E+03 0.  0.
         23    2    1    2    0    0 -0.18413294696E+02  0.79596121277E+01 -0.12047863314E+03  0.15055548138E+03  0.88030943894E+02 0.  0.
          5    1    3    3  502    0 -0.42345406193E+02  0.17020198903E+02 -0.99541644849E+01  0.46946735637E+02  0.47000000000E+01 0. -1.
         -5    1    3    3    0  502  0.60758700890E+02 -0.24979811031E+02 -0.10561126472E+03  0.12446461315E+03  0.47000000000E+01 0. -1.
          5    1    4    4  503    0 -0.42918665332E+02 -0.64816593500E+01 -0.11245103721E+03  0.12062897460E+03  0.47000000000E+01 0. -1.
         -5    1    4    4    0  503  0.24505370636E+02  0.14441271478E+02 -0.80275959291E+01  0.29926506784E+02  0.47000000000E+01 0.  1.
<mgrwt>
<rscale>  0 0.11633794E+03</rscale>
<asrwt>0</asrwt>
<pdfrwt beam="1">  1        2 0.42923914E-01 0.12659574E+03</pdfrwt>
<pdfrwt beam="2">  1       -2 0.66094438E-02 0.12659574E+03</pdfrwt>
<totfact> 0.14081626E+04</totfact>
</mgrwt>
</event>
<event>
 8    1  0.3629925E-004  0.1423634E+03  0.7546771E-02  0.1221033E+00
          2   -1    0    0  501    0  0.00000000000E+00  0.00000000000E+00  0.22315210131E+03  0.22315210131E+03  0.00000000000E+00 0.  1.
         -2   -1    0    0    0  501 -0.00000000000E+00 -0.00000000000E+00 -0.73428032732E+02  0.73428032732E+02  0.00000000000E+00 0. -1.
         25    2    1    2    0    0  0.36432850610E+02 -0.57563167021E+02  0.92387118711E+02  0.16971363606E+03  0.12500587090E+03 0.  0.
         23    2    1    2    0    0 -0.36432850610E+02  0.57563167021E+02  0.57336949868E+02  0.12686649798E+03  0.90369860514E+02 0.  0.
          5    1    4    4  502    0  0.44982283817E+01  0.32577769730E+02 -0.17737346322E+02  0.37659641444E+02  0.47000000000E+01 0. -1.
         -5    1    3    3    0  503  0.73627305967E+02 -0.26335759382E+01  0.34256343849E+02  0.81384906464E+02  0.47000000000E+01 0. -1.
          5    1    3    3  503    0 -0.37194455357E+02 -0.54929591083E+02  0.58130774862E+02  0.88328729595E+02  0.47000000000E+01 0. -1.
         -5    1    4    4    0  502 -0.40931078992E+02  0.24985397290E+02  0.75074296190E+02  0.89206856539E+02  0.47000000000E+01 0.  1.
<mgrwt>
<rscale>  0 0.13442566E+03</rscale>
<asrwt>0</asrwt>
<pdfrwt beam="1">  1        2 0.34331092E-01 0.14236340E+03</pdfrwt>
<pdfrwt beam="2">  1       -2 0.11296621E-01 0.14236340E+03</pdfrwt>
<totfact> 0.78388837E+03</totfact>
</mgrwt>
</event>
<event>
 8    1  0.3629925E-004  0.1282243E+03  0.7546771E-02  0.1245471E+00
          2   -1    0    0  501    0  0.00000000000E+00  0.00000000000E+00  0.10032400795E+04  0.10032400795E+04  0.00000000000E+00 0. -1.
         -2   -1    0    0    0  501 -0.00000000000E+00 -0.00000000000E+00 -0.12393792608E+02  0.12393792608E+02  0.00000000000E+00 0.  1.
         25    2    1    2    0    0 -0.21497077308E+02 -0.18917205371E+02  0.52347729226E+03  0.53895263108E+03  0.12498591137E+03 0.  0.
         23    2    1    2    0    0  0.21497077308E+02  0.18917205371E+02  0.46736899464E+03  0.47668124104E+03  0.89281820185E+02 0.  0.
          5    1    3    3  502    0 -0.13305443036E+00  0.52718452904E+02  0.19618945906E+03  0.20320346165E+03  0.47000000000E+01 0.  1.
         -5    1    4    4    0  503  0.56113201402E+02  0.66057896960E+01  0.28815322170E+03  0.29367787967E+03  0.47000000000E+01 0. -1.
          5    1    4    4  503    0 -0.34616124094E+02  0.12311415675E+02  0.17921577294E+03  0.18300336137E+03  0.47000000000E+01 0.  1.
         -5    1    3    3    0  502 -0.21364022878E+02 -0.71635658275E+02  0.32728783320E+03  0.33574916943E+03  0.47000000000E+01 0.  1.
<mgrwt>
<rscale>  0 0.11857247E+03</rscale>
<asrwt>0</asrwt>
<pdfrwt beam="1">  1        2 0.15434456E+00 0.12822427E+03</pdfrwt>
<pdfrwt beam="2">  1       -2 0.19067381E-02 0.12822427E+03</pdfrwt>
<totfact> 0.20576572E+04</totfact>
</mgrwt>
</event>
<event>
 8    1  0.3629925E-004  0.1680301E+03  0.7546771E-02  0.1186526E+00
          1   -1    0    0  501    0  0.00000000000E+00  0.00000000000E+00  0.68614348137E+03  0.68614348137E+03  0.00000000000E+00 0. -1.
         -1   -1    0    0    0  501 -0.00000000000E+00 -0.00000000000E+00 -0.47818731857E+02  0.47818731857E+02  0.00000000000E+00 0.  1.
         25    2    1    2    0    0 -0.20917818876E+02  0.11031664428E+03  0.15229693046E+03  0.22677844105E+03  0.12500715639E+03 0.  0.
         23    2    1    2    0    0  0.20917818876E+02 -0.11031664428E+03  0.48602781906E+03  0.50718377217E+03  0.91678900025E+02 0.  0.
          5    1    3    3  502    0  0.20434098544E+02  0.57315288189E+02  0.87303349423E+00  0.61036438551E+02  0.47000000000E+01 0.  1.
         -5    1    3    3    0  502 -0.41351917420E+02  0.53001356091E+02  0.15142389696E+03  0.16574200250E+03  0.47000000000E+01 0.  1.
          5    1    4    4  503    0 -0.21006176125E+02  0.48888472950E+01  0.65079659162E+02  0.68721265267E+02  0.47000000000E+01 0. -1.
         -5    1    4    4    0  503  0.41923995001E+02 -0.11520549158E+03  0.42094815989E+03  0.43846250691E+03  0.47000000000E+01 0.  1.
<mgrwt>
<rscale>  0 0.16193830E+03</rscale>
<asrwt>0</asrwt>
<pdfrwt beam="1">  1        1 0.10556053E+00 0.16803008E+03</pdfrwt>
<pdfrwt beam="2">  1       -1 0.73567285E-02 0.16803008E+03</pdfrwt>
<totfact> 0.28028196E+03</totfact>
</mgrwt>
</event>
<event>
 8    1  0.3629925E-004  0.1497434E+03  0.7546771E-02  0.1208593E+00
          1   -1    0    0  501    0  0.00000000000E+00  0.00000000000E+00  0.14943955880E+03  0.14943955880E+03  0.00000000000E+00 0. -1.
         -1   -1    0    0    0  501 -0.00000000000E+00 -0.00000000000E+00 -0.16707220580E+03  0.16707220580E+03  0.00000000000E+00 0.  1.
         25    2    1    2    0    0  0.44124702365E+02  0.69642473597E+02  0.67215233385E+02  0.16413709468E+03  0.12500413898E+03 0.  0.
         23    2    1    2    0    0 -0.44124702365E+02 -0.69642473597E+02 -0.84847880387E+02  0.15237466992E+03  0.96030275116E+02 0.  0.
          5    1    3    3  502    0  0.31120891745E+02  0.93266770190E+02  0.86185575922E+02  0.13083288509E+03  0.47000000000E+01 0.  1.
         -5    1    4    4    0  503 -0.45075876087E+02 -0.36860668882E+02 -0.10010198197E+03  0.11590099356E+03  0.47000000000E+01 0.  1.
          5    1    4    4  503    0  0.95117372120E+00 -0.32781804715E+02  0.15254101579E+02  0.36473676354E+02  0.47000000000E+01 0. -1.
         -5    1    3    3    0  502  0.13003810621E+02 -0.23624296593E+02 -0.18970342538E+02  0.33304209586E+02  0.47000000000E+01 0.  1.
<mgrwt>
<rscale>  0 0.14357865E+03</rscale>
<asrwt>0</asrwt>
<pdfrwt beam="1">  1        1 0.22990701E-01 0.14974344E+03</pdfrwt>
<pdfrwt beam="2">  1       -1 0.25703416E-01 0.14974344E+03</pdfrwt>
<totfact> 0.27543804E+03</totfact>
</mgrwt>
</event>
<event>
 8    1  0.3629925E-004  0.1456308E+03  0.7546771E-02  0.1215952E+00
         -2   -1    0    0    0  501 -0.00000000000E+00  0.00000000000E+00  0.30123867742E+02  0.30123867742E+02  0.00000000000E+00 0.  1.
          2   -1    0    0  501    0  0.00000000000E+00 -0.00000000000E+00 -0.57542226961E+03  0.57542226961E+03  0.00000000000E+00 0. -1.
         25    2    1    2    0    0 -0.44378177220E+02  0.60114523827E+02 -0.29711910657E+03  0.33088985214E+03  0.12500060868E+03 0.  0.
         23    2    1    2    0    0  0.44378177220E+02 -0.60114523827E+02 -0.24817929530E+03  0.27465628521E+03  0.90884177963E+02 0.  0.
          5    1    3    3  502    0 -0.33780518671E+02 -0.34337444040E+02 -0.75191881412E+02  0.89420873040E+02  0.47000000000E+01 0.  1.
         -5    1    4    4    0  503  0.58885062265E+02 -0.97764773960E+01 -0.91191793574E+02  0.10909199459E+03  0.47000000000E+01 0.  1.
          5    1    4    4  503    0 -0.14506885045E+02 -0.50338046431E+02 -0.15698750172E+03  0.16556429062E+03  0.47000000000E+01 0. -1.
         -5    1    3    3    0  502 -0.10597658548E+02  0.94451967867E+02 -0.22192722515E+03  0.24146897910E+03  0.47000000000E+01 0.  1.
<mgrwt>
<rscale>  0 0.13806836E+03</rscale>
<asrwt>0</asrwt>
<pdfrwt beam="1">  1        2 0.88526509E-01 0.14563080E+03</pdfrwt>
<pdfrwt beam="2">  1       -2 0.46344409E-02 0.14563080E+03</pdfrwt>
<totfact> 0.11149713E+04</totfact>
</mgrwt>
</event>
<event>
 8    1  0.3629925E-004  0.1371896E+03  0.7546771E-02  0.1229506E+00
          1   -1    0    0  501    0  0.00000000000E+00  0.00000000000E+00  0.34435226937E+02  0.34435226937E+02  0.00000000000E+00 0. -1.
         -1   -1    0    0    0  501 -0.00000000000E+00 -0.00000000000E+00 -0.43106437178E+03  0.43106437178E+03  0.00000000000E+00 0.  1.
         25    2    1    2    0    0 -0.54791323357E+02 -0.13942307040E+02 -0.23786755792E+03  0.27459417945E+03  0.12499804493E+03 0.  0.
         23    2    1    2    0    0  0.54791323357E+02  0.13942307040E+02 -0.15876158692E+03  0.19090541927E+03  0.89683669537E+02 0.  0.
          5    1    3    3  502    0 -0.79918192979E+02 -0.48929357483E+02 -0.15984752492E+03  0.18534918618E+03  0.47000000000E+01 0.  1.
         -5    1    3    3    0  502  0.25126869622E+02  0.34987050443E+02 -0.78020032997E+02  0.89244993274E+02  0.47000000000E+01 0.  1.
          5    1    4    4  503    0  0.35774595828E+01  0.39367139696E+02 -0.29697765694E+02  0.49665050006E+02  0.47000000000E+01 0. -1.
         -5    1    4    4    0  503  0.51213863774E+02 -0.25424832655E+02 -0.12906382123E+03  0.14124036926E+03  0.47000000000E+01 0.  1.
<mgrwt>
<rscale>  0 0.12862783E+03</rscale>
<asrwt>0</asrwt>
<pdfrwt beam="1">  1        1 0.52977277E-02 0.13718961E+03</pdfrwt>
<pdfrwt beam="2">  1       -1 0.66317590E-01 0.13718961E+03</pdfrwt>
<totfact> 0.35267487E+03</totfact>
</mgrwt>
</event>
<event>
 8    1  0.3629925E-004  0.1397341E+03  0.7546771E-02  0.1224719E+00
          1   -1    0    0  501    0  0.00000000000E+00  0.00000000000E+00  0.12016681743E+03  0.12016681743E+03  0.00000000000E+00 0. -1.
         -1   -1    0    0    0  501 -0.00000000000E+00 -0.00000000000E+00 -0.13520992596E+03  0.13520992596E+03  0.00000000000E+00 0.  1.
         25    2    1    2    0    0  0.48028475337E+02 -0.39912891511E+02  0.15085753534E+02  0.14054607199E+03  0.12500338011E+03 0.  0.
         23    2    1    2    0    0 -0.48028475337E+02  0.39912891511E+02 -0.30128862059E+02  0.11483067141E+03  0.91534482108E+02 0.  0.
          5    1    3    3  502    0  0.48978736521E+02  0.14894971030E+01  0.61099214788E+02  0.78462343074E+02  0.47000000000E+01 0.  1.
         -5    1    4    4    0  503  0.30896656808E+01 -0.22749223142E+02  0.87050040319E+01  0.24998805627E+02  0.47000000000E+01 0.  1.
          5    1    4    4  503    0 -0.51118141017E+02  0.62662114653E+02 -0.38833866091E+02  0.89831865780E+02  0.47000000000E+01 0. -1.
         -5    1    3    3    0  502 -0.95026118483E+00 -0.41402388614E+02 -0.46013461254E+02  0.62083728914E+02  0.47000000000E+01 0.  1.
<mgrwt>
<rscale>  0 0.13186187E+03</rscale>
<asrwt>0</asrwt>
<pdfrwt beam="1">  1        1 0.18487203E-01 0.13973410E+03</pdfrwt>
<pdfrwt beam="2">  1       -1 0.20801527E-01 0.13973410E+03</pdfrwt>
<totfact> 0.51135772E+03</totfact>
</mgrwt>
</event>
<event>
 8    1  0.3629925E-004  0.1392511E+03  0.7546771E-02  0.1226170E+00
          3   -1    0    0  501    0  0.00000000000E+00  0.00000000000E+00  0.71832864571E+02  0.71832864571E+02  0.00000000000E+00 0. -1.
         -3   -1    0    0    0  501 -0.00000000000E+00 -0.00000000000E+00 -0.21539227562E+03  0.21539227562E+03  0.00000000000E+00 0.  1.
         25    2    1    2    0    0  0.48759079721E+02  0.37257038884E+02 -0.92628006884E+02  0.16724481775E+03  0.12500138640E+03 0.  0.
         23    2    1    2    0    0 -0.48759079721E+02 -0.37257038884E+02 -0.50931404163E+02  0.11998032244E+03  0.89642261471E+02 0.  0.
          5    1    4    4  502    0 -0.27770501870E+02 -0.50481642425E+01  0.22871916853E+02  0.36631943940E+02  0.47000000000E+01 0. -1.
         -5    1    3    3    0  503  0.63097148457E+02 -0.29940205905E+02 -0.40495065136E+02  0.80867832748E+02  0.47000000000E+01 0. -1.
          5    1    3    3  503    0 -0.14338068736E+02  0.67197244790E+02 -0.52132941748E+02  0.86376985000E+02  0.47000000000E+01 0. -1.
         -5    1    4    4    0  502 -0.20988577851E+02 -0.32208874642E+02 -0.73803321016E+02  0.83348378502E+02  0.47000000000E+01 0.  1.
<mgrwt>
<rscale>  0 0.13087002E+03</rscale>
<asrwt>0</asrwt>
<pdfrwt beam="1">  1        3 0.11051210E-01 0.13925115E+03</pdfrwt>
<pdfrwt beam="2">  1       -3 0.33137273E-01 0.13925115E+03</pdfrwt>
<totfact> 0.12846757E+03</totfact>
</mgrwt>
</event>
<event>
 8    1  0.3629925E-004  0.1407881E+03  0.7546771E-02  0.1222937E+00
         -2   -1    0    0    0  501 -0.00000000000E+00  0.00000000000E+00  0.34408763589E+02  0.34408763589E+02  0.00000000000E+00 0. -1.
          2   -1    0    0  501    0  0.00000000000E+00 -0.00000000000E+00 -0.46601264964E+03  0.46601264964E+03  0.00000000000E+00 0.  1.
         25    2    1    2    0    0  0.38129835549E+02  0.52377549936E+02 -0.23618197803E+03  0.27496036592E+03  0.12499593588E+03 0.  0.
         23    2    1    2    0    0 -0.38129835549E+02 -0.52377549936E+02 -0.19542190803E+03  0.22546104731E+03  0.91900324381E+02 0.  0.
          5    1    3    3  502    0 -0.97815073534E+01  0.46566164106E+02 -0.17419746105E+02  0.50888339332E+02  0.47000000000E+01 0. -1.
         -5    1    3    3    0  502  0.47911342903E+02  0.58113858299E+01 -0.21876223192E+03  0.22407202659E+03  0.47000000000E+01 0. -1.
          5    1    4    4  503    0 -0.66375292039E+02 -0.42156803263E+02 -0.11417223113E+03  0.13870927804E+03  0.47000000000E+01 0. -1.
         -5    1    4    4    0  503  0.28245456489E+02 -0.10220746673E+02 -0.81249676903E+02  0.86751769271E+02  0.47000000000E+01 0.  1.
<mgrwt>
<rscale>  0 0.13309307E+03</rscale>
<asrwt>0</asrwt>
<pdfrwt beam="1">  1        2 0.71694247E-01 0.14078805E+03</pdfrwt>
<pdfrwt beam="2">  1       -2 0.52936564E-02 0.14078805E+03</pdfrwt>
<totfact> 0.11504442E+04</totfact>
</mgrwt>
</event>
<event>
 8    1  0.3629925E-004  0.2013165E+03  0.7546771E-02  0.1152706E+00
         -2   -1    0    0    0  501 -0.00000000000E+00  0.00000000000E+00  0.28002119764E+03  0.28002119764E+03  0.00000000000E+00 0.  1.
          2   -1    0    0  501    0  0.00000000000E+00 -0.00000000000E+00 -0.13519474483E+03  0.13519474483E+03  0.00000000000E+00 0. -1.
         25    2    1    2    0    0 -0.39362394056E+02 -0.15281894399E+03  0.42659923983E+02  0.20578676185E+03  0.12500117812E+03 0.  0.
         23    2    1    2    0    0  0.39362394056E+02  0.15281894399E+03  0.10216652882E+03  0.20942918062E+03  0.92301432161E+02 0.  0.
          5    1    4    4  502    0  0.64056055415E+02  0.73954274442E+02  0.39530099189E+02  0.10562732452E+03  0.47000000000E+01 0. -1.
         -5    1    3    3    0  503 -0.45305716013E+02 -0.77080885334E+01  0.38959011538E+02  0.60431093920E+02  0.47000000000E+01 0. -1.
          5    1    3    3  503    0  0.59433219568E+01 -0.14511085545E+03  0.37009124444E+01  0.14535566793E+03  0.47000000000E+01 0. -1.
         -5    1    4    4    0  502 -0.24693661358E+02  0.78864669543E+02  0.62636429633E+02  0.10380185610E+03  0.47000000000E+01 0.  1.
<mgrwt>
<rscale>  0 0.19652350E+03</rscale>
<asrwt>0</asrwt>
<pdfrwt beam="1">  1        2 0.20799192E-01 0.20131647E+03</pdfrwt>
<pdfrwt beam="2">  1       -2 0.43080184E-01 0.20131647E+03</pdfrwt>
<totfact> 0.13568408E+03</totfact>
</mgrwt>
</event>
<event>
 8    1  0.3629925E-004  0.1325613E+03  0.7546771E-02  0.1236585E+00
         -4   -1    0    0    0  501 -0.00000000000E+00  0.00000000000E+00  0.16078019291E+02  0.16078019291E+02  0.00000000000E+00 0.  1.
          4   -1    0    0  501    0  0.00000000000E+00 -0.00000000000E+00 -0.86427336258E+03  0.86427336258E+03  0.00000000000E+00 0. -1.
         25    2    1    2    0    0 -0.11605982099E+02  0.42557293513E+02 -0.53002614479E+03  0.54635171817E+03  0.12500665476E+03 0.  0.
         23    2    1    2    0    0  0.11605982099E+02 -0.42557293513E+02 -0.31816919850E+03  0.33399966370E+03  0.91533132954E+02 0.  0.
          5    1    3    3  502    0 -0.55580204922E+02  0.62366685751E+01 -0.12150573819E+03  0.13384240594E+03  0.47000000000E+01 0.  1.
         -5    1    4    4    0  503 -0.98764911879E+00 -0.70160841871E+02 -0.20435592946E+03  0.21611791940E+03  0.47000000000E+01 0.  1.
          5    1    4    4  503    0  0.12593631218E+02  0.27603548358E+02 -0.11381326904E+03  0.11788174430E+03  0.47000000000E+01 0. -1.
         -5    1    3    3    0  502  0.43974222823E+02  0.36320624938E+02 -0.40852040661E+03  0.41250931224E+03  0.47000000000E+01 0.  1.
<mgrwt>
<rscale>  0 0.12403498E+03</rscale>
<asrwt>0</asrwt>
<pdfrwt beam="1">  1        4 0.13296512E+00 0.13256125E+03</pdfrwt>
<pdfrwt beam="2">  1       -4 0.24735416E-02 0.13256125E+03</pdfrwt>
<totfact> 0.52202200E+02</totfact>
</mgrwt>
</event>
<event>
 8    1  0.3629925E-004  0.1284694E+03  0.7546771E-02  0.1243964E+00
         -1   -1    0    0    0  501 -0.00000000000E+00  0.00000000000E+00  0.29580903980E+02  0.29580903980E+02  0.00000000000E+00 0.  1.
          1   -1    0    0  501    0  0.00000000000E+00 -0.00000000000E+00 -0.45343796857E+03  0.45343796857E+03  0.00000000000E+00 0. -1.
         25    2    1    2    0    0  0.73121117736E+01  0.28702503298E+02 -0.29923285327E+03  0.32564502838E+03  0.12500833315E+03 0.  0.
         23    2    1    2    0    0 -0.73121117736E+01 -0.28702503298E+02 -0.12462421132E+03  0.15737384417E+03  0.91422273590E+02 0.  0.
          5    1    4    4  502    0 -0.29286477462E+02 -0.49525966478E+02 -0.10814055196E+03  0.12258461607E+03  0.47000000000E+01 0. -1.
         -5    1    3    3    0  503 -0.42536550330E+02  0.56629098121E+02 -0.17349836825E+03  0.18745662606E+03  0.47000000000E+01 0.  1.
          5    1    3    3  503    0  0.49848662103E+02 -0.27926594823E+02 -0.12573448502E+03  0.13818840232E+03  0.47000000000E+01 0.  1.
         -5    1    4    4    0  502  0.21974365688E+02  0.20823463180E+02 -0.16483659353E+02  0.34789228102E+02  0.47000000000E+01 0.  1.
<mgrwt>
<rscale>  0 0.11947618E+03</rscale>
<asrwt>0</asrwt>
<pdfrwt beam="1">  1        1 0.69759685E-01 0.12846939E+03</pdfrwt>
<pdfrwt beam="2">  1       -1 0.45509085E-02 0.12846939E+03</pdfrwt>
<totfact> 0.98765272E+03</totfact>
</mgrwt>
</event>
<event>
 8    1  0.3629925E-004  0.1263574E+03  0.7546771E-02  0.1248599E+00
         -3   -1    0    0    0  501 -0.00000000000E+00  0.00000000000E+00  0.28150660477E+03  0.28150660477E+03  0.00000000000E+00 0.  1.
          3   -1    0    0  501    0  0.00000000000E+00 -0.00000000000E+00 -0.51042625377E+02  0.51042625377E+02  0.00000000000E+00 0. -1.
         25    2    1    2    0    0  0.65644259079E+00 -0.18459961590E+02  0.62356190713E+02  0.14090598436E+03  0.12500000324E+03 0.  0.
         23    2    1    2    0    0 -0.65644259079E+00  0.18459961590E+02  0.16810778868E+03  0.19164324579E+03  0.90142686569E+02 0.  0.
          5    1    4    4  502    0 -0.16674270988E+02 -0.18620797406E+02  0.83161958863E+01  0.26758447694E+02  0.47000000000E+01 0. -1.
         -5    1    3    3    0  503 -0.33716917839E+02  0.39499048792E+02  0.51692213773E+01  0.52400536769E+02  0.47000000000E+01 0. -1.
          5    1    3    3  503    0  0.34373360430E+02 -0.57959010382E+02  0.57186969336E+02  0.88505447592E+02  0.47000000000E+01 0. -1.
         -5    1    4    4    0  502  0.16017828397E+02  0.37080758995E+02  0.15979159279E+03  0.16488479809E+03  0.47000000000E+01 0.  1.
<mgrwt>
<rscale>  0 0.11672562E+03</rscale>
<asrwt>0</asrwt>
<pdfrwt beam="1">  1        3 0.78527118E-02 0.12635744E+03</pdfrwt>
<pdfrwt beam="2">  1       -3 0.43308708E-01 0.12635744E+03</pdfrwt>
<totfact> 0.13291979E+03</totfact>
</mgrwt>
</event>
<event>
 8    1  0.3629925E-004  0.1408766E+03  0.7546771E-02  0.1223242E+00
          2   -1    0    0  501    0  0.00000000000E+00  0.00000000000E+00  0.59046263668E+03  0.59046263668E+03  0.00000000000E+00 0. -1.
         -2   -1    0    0    0  501 -0.00000000000E+00 -0.00000000000E+00 -0.27468681716E+02  0.27468681716E+02  0.00000000000E+00 0.  1.
         25    2    1    2    0    0 -0.48343314436E+01  0.64805813430E+02  0.27235527883E+03  0.30663271499E+03  0.12499223887E+03 0.  0.
         23    2    1    2    0    0  0.48343314436E+01 -0.64805813430E+02  0.29063867613E+03  0.31129860341E+03  0.90624589419E+02 0.  0.
          5    1    3    3  502    0 -0.65480646626E+01  0.92776122997E+02  0.12128303571E+03  0.15291157870E+03  0.47000000000E+01 0.  1.
         -5    1    3    3    0  502  0.17137332191E+01 -0.27970309568E+02  0.15107224313E+03  0.15372113629E+03  0.47000000000E+01 0.  1.
          5    1    4    4  503    0  0.22241808481E+02 -0.30004595125E+02  0.25671952901E+03  0.25946479597E+03  0.47000000000E+01 0. -1.
         -5    1    4    4    0  503 -0.17407477038E+02 -0.34801218304E+02  0.33919147122E+02  0.51833807440E+02  0.47000000000E+01 0.  1.
<mgrwt>
<rscale>  0 0.13288141E+03</rscale>
<asrwt>0</asrwt>
<pdfrwt beam="1">  1        2 0.90840396E-01 0.14087663E+03</pdfrwt>
<pdfrwt beam="2">  1       -2 0.42259515E-02 0.14087663E+03</pdfrwt>
<totfact> 0.12401691E+04</totfact>
</mgrwt>
</event>
<event>
 8    1  0.3629925E-004  0.1576415E+03  0.7546771E-02  0.1199013E+00
         -1   -1    0    0    0  501 -0.00000000000E+00  0.00000000000E+00  0.10058591299E+03  0.10058591299E+03  0.00000000000E+00 0.  1.
          1   -1    0    0  501    0  0.00000000000E+00 -0.00000000000E+00 -0.21174608551E+03  0.21174608551E+03  0.00000000000E+00 0. -1.
         25    2    1    2    0    0 -0.81168529245E+02 -0.51356360246E+02 -0.72031045342E+02  0.17331856394E+03  0.12500018894E+03 0.  0.
         23    2    1    2    0    0  0.81168529245E+02  0.51356360246E+02 -0.39129127180E+02  0.13901343455E+03  0.92562630230E+02 0.  0.
          5    1    3    3  502    0 -0.43186683245E+02 -0.52653219084E+02 -0.10334376074E+03  0.12385263007E+03  0.47000000000E+01 0. -1.
         -5    1    4    4    0  503  0.57430936570E+02 -0.37044177723E+01  0.13268207139E+02  0.59246691950E+02  0.47000000000E+01 0.  1.
          5    1    4    4  503    0  0.23737592675E+02  0.55060778018E+02 -0.52397334318E+02  0.79766742604E+02  0.47000000000E+01 0. -1.
         -5    1    3    3    0  502 -0.37981846000E+02  0.12968588377E+01  0.31312715401E+02  0.49465933876E+02  0.47000000000E+01 0. -1.
<mgrwt>
<rscale>  0 0.15119454E+03</rscale>
<asrwt>0</asrwt>
<pdfrwt beam="1">  1        1 0.32576321E-01 0.15764153E+03</pdfrwt>
<pdfrwt beam="2">  1       -1 0.15474756E-01 0.15764153E+03</pdfrwt>
<totfact> 0.40403132E+03</totfact>
</mgrwt>
</event>
<event>
 8    1  0.3629925E-004  0.1599753E+03  0.7546771E-02  0.1196607E+00
         -1   -1    0    0    0  501 -0.00000000000E+00  0.00000000000E+00  0.13232948316E+03  0.13232948316E+03  0.00000000000E+00 0.  1.
          1   -1    0    0  501    0  0.00000000000E+00 -0.00000000000E+00 -0.19085718080E+03  0.19085718080E+03  0.00000000000E+00 0. -1.
         25    2    1    2    0    0  0.97639803589E+02 -0.20865379934E+02 -0.92038497227E+02  0.18456215412E+03  0.12499283354E+03 0.  0.
         23    2    1    2    0    0 -0.97639803589E+02  0.20865379934E+02  0.33510799584E+02  0.13862450984E+03  0.90138147947E+02 0.  0.
          5    1    3    3  502    0  0.10303767486E+03 -0.14353446498E+01 -0.14333806498E+02  0.10414591045E+03  0.47000000000E+01 0.  1.
         -5    1    3    3    0  502 -0.53978712671E+01 -0.19430035284E+02 -0.77704690729E+02  0.80416243674E+02  0.47000000000E+01 0.  1.
          5    1    4    4  503    0 -0.74910971152E+02  0.52676375690E+02  0.87637305117E+01  0.92115943936E+02  0.47000000000E+01 0. -1.
         -5    1    4    4    0  503 -0.22728832437E+02 -0.31810995755E+02  0.24747069072E+02  0.46508565905E+02  0.47000000000E+01 0.  1.
<mgrwt>
<rscale>  0 0.15319017E+03</rscale>
<asrwt>0</asrwt>
<pdfrwt beam="1">  1        1 0.29362643E-01 0.15997532E+03</pdfrwt>
<pdfrwt beam="2">  1       -1 0.20358382E-01 0.15997532E+03</pdfrwt>
<totfact> 0.29719521E+03</totfact>
</mgrwt>
</event>
<event>
 8    1  0.3629925E-004  0.1650623E+03  0.7546771E-02  0.1190472E+00
          2   -1    0    0  501    0  0.00000000000E+00  0.00000000000E+00  0.88568911806E+03  0.88568911806E+03  0.00000000000E+00 0. -1.
         -2   -1    0    0    0  501 -0.00000000000E+00 -0.00000000000E+00 -0.28710784161E+02  0.28710784161E+02  0.00000000000E+00 0.  1.
         25    2    1    2    0    0 -0.16731002122E+01  0.10777801504E+03  0.32817291545E+03  0.36734590724E+03  0.12500661318E+03 0.  0.
         23    2    1    2    0    0  0.16731002122E+01 -0.10777801504E+03  0.52880541845E+03  0.54705399499E+03  0.89520964330E+02 0.  0.
          5    1    3    3  502    0 -0.45135199476E+02  0.52654404228E+02  0.65839489490E+02  0.95742367281E+02  0.47000000000E+01 0.  1.
         -5    1    3    3    0  502  0.43462099264E+02  0.55123610811E+02  0.26233342596E+03  0.27160353996E+03  0.47000000000E+01 0.  1.
          5    1    4    4  503    0  0.44760131532E+02 -0.65992895476E+02  0.30750199795E+03  0.31770757053E+03  0.47000000000E+01 0. -1.
         -5    1    4    4    0  503 -0.43087031320E+02 -0.41785119563E+02  0.22130342050E+03  0.22934642446E+03  0.47000000000E+01 0.  1.
<mgrwt>
<rscale>  0 0.15843784E+03</rscale>
<asrwt>0</asrwt>
<pdfrwt beam="1">  1        2 0.13625984E+00 0.16506227E+03</pdfrwt>
<pdfrwt beam="2">  1       -2 0.44170444E-02 0.16506227E+03</pdfrwt>
<totfact> 0.71706820E+03</totfact>
</mgrwt>
</event>
<event>
 8    1  0.3629925E-004  0.2455855E+03  0.7546771E-02  0.1118708E+00
         -1   -1    0    0    0  501 -0.00000000000E+00  0.00000000000E+00  0.56091689671E+03  0.56091689671E+03  0.00000000000E+00 0.  1.
          1   -1    0    0  501    0  0.00000000000E+00 -0.00000000000E+00 -0.12523175818E+03  0.12523175818E+03  0.00000000000E+00 0. -1.
         25    2    1    2    0    0 -0.61547778514E+02 -0.20223189172E+03  0.37475607206E+03  0.44805621217E+03  0.12500555446E+03 0.  0.
         23    2    1    2    0    0  0.61547778514E+02  0.20223189172E+03  0.60929066472E+02  0.23809244272E+03  0.91048300759E+02 0.  0.
          5    1    3    3  502    0  0.36565576438E+02 -0.62254457874E+02  0.14038340685E+03  0.15793115534E+03  0.47000000000E+01 0. -1.
         -5    1    4    4    0  503 -0.48462099214E+01  0.62446371859E+02 -0.16565033342E+02  0.64957874338E+02  0.47000000000E+01 0.  1.
          5    1    4    4  503    0  0.66393988435E+02  0.13978551986E+03  0.77494099814E+02  0.17313456839E+03  0.47000000000E+01 0. -1.
         -5    1    3    3    0  502 -0.98113354952E+02 -0.13997743385E+03  0.23437266521E+03  0.29012505683E+03  0.47000000000E+01 0. -1.
<mgrwt>
<rscale>  0 0.24163600E+03</rscale>
<asrwt>0</asrwt>
<pdfrwt beam="1">  1        1 0.19266425E-01 0.24558554E+03</pdfrwt>
<pdfrwt beam="2">  1       -1 0.86294905E-01 0.24558554E+03</pdfrwt>
<totfact> 0.37436180E+02</totfact>
</mgrwt>
</event>
<event>
 8    1  0.3629925E-004  0.1884725E+03  0.7546771E-02  0.1164842E+00
         -2   -1    0    0    0  501 -0.00000000000E+00  0.00000000000E+00  0.60814264579E+02  0.60814264579E+02  0.00000000000E+00 0.  1.
          2   -1    0    0  501    0  0.00000000000E+00 -0.00000000000E+00 -0.71432453846E+03  0.71432453846E+03  0.00000000000E+00 0. -1.
         25    2    1    2    0    0 -0.12995445333E+03  0.54853402735E+02 -0.13969567393E+03  0.23459914657E+03  0.12499929009E+03 0.  0.
         23    2    1    2    0    0  0.12995445333E+03 -0.54853402735E+02 -0.51381459996E+03  0.54053965648E+03  0.90997919555E+02 0.  0.
          5    1    4    4  502    0  0.80523279609E+02 -0.21670136314E+02 -0.42747538211E+03  0.43555813122E+03  0.47000000000E+01 0. -1.
         -5    1    4    4    0  502  0.49431173720E+02 -0.33183266420E+02 -0.86339217851E+02  0.10498152525E+03  0.47000000000E+01 0.  1.
          5    1    3    3  503    0 -0.69009275143E+02  0.63490449324E+02 -0.14488592657E+03  0.17264802034E+03  0.47000000000E+01 0.  1.
         -5    1    3    3    0  503 -0.60945178186E+02 -0.86370465897E+01  0.51902526382E+01  0.61951126224E+02  0.47000000000E+01 0.  1.
<mgrwt>
<rscale>  0 0.18309400E+03</rscale>
<asrwt>0</asrwt>
<pdfrwt beam="1">  1        2 0.10989608E+00 0.18847249E+03</pdfrwt>
<pdfrwt beam="2">  1       -2 0.93560408E-02 0.18847249E+03</pdfrwt>
<totfact> 0.29851999E+03</totfact>
</mgrwt>
</event>
<event>
 8    1  0.3629925E-004  0.1375725E+03  0.7546771E-02  0.1229233E+00
          1   -1    0    0  501    0  0.00000000000E+00  0.00000000000E+00  0.44810686770E+03  0.44810686770E+03  0.00000000000E+00 0. -1.
         -1   -1    0    0    0  501 -0.00000000000E+00 -0.00000000000E+00 -0.33222370397E+02  0.33222370397E+02  0.00000000000E+00 0.  1.
         25    2    1    2    0    0  0.34539706686E+02  0.45921400024E+02  0.25279041467E+03  0.28780058000E+03  0.12499765510E+03 0.  0.
         23    2    1    2    0    0 -0.34539706686E+02 -0.45921400024E+02  0.16209408263E+03  0.19352865809E+03  0.88752935510E+02 0.  0.
          5    1    4    4  502    0 -0.40481772388E+02 -0.67562264641E+02  0.14445972907E+03  0.16460296724E+03  0.47000000000E+01 0. -1.
         -5    1    4    4    0  502  0.59420657022E+01  0.21640864617E+02  0.17634353556E+02  0.28925690856E+02  0.47000000000E+01 0.  1.
          5    1    3    3  503    0  0.63517605960E+02  0.63449643127E+02  0.22936323220E+03  0.24635325402E+03  0.47000000000E+01 0.  1.
         -5    1    3    3    0  503 -0.28977899274E+02 -0.17528243102E+02  0.23427182469E+02  0.41447325982E+02  0.47000000000E+01 0.  1.
<mgrwt>
<rscale>  0 0.12880961E+03</rscale>
<asrwt>0</asrwt>
<pdfrwt beam="1">  1        1 0.68939514E-01 0.13757245E+03</pdfrwt>
<pdfrwt beam="2">  1       -1 0.51111342E-02 0.13757245E+03</pdfrwt>
<totfact> 0.84877123E+03</totfact>
</mgrwt>
</event>
<event>
 8    1  0.3629925E-004  0.1300451E+03  0.7546771E-02  0.1240734E+00
         -1   -1    0    0    0  501 -0.00000000000E+00  0.00000000000E+00  0.10510649756E+03  0.10510649756E+03  0.00000000000E+00 0.  1.
          1   -1    0    0  501    0  0.00000000000E+00 -0.00000000000E+00 -0.12487327827E+03  0.12487327827E+03  0.00000000000E+00 0. -1.
         25    2    1    2    0    0 -0.32824437491E+02  0.14496853859E+02 -0.15723499479E+02  0.13099218516E+03  0.12499648662E+03 0.  0.
         23    2    1    2    0    0  0.32824437491E+02 -0.14496853859E+02 -0.40432812341E+01  0.98987590678E+02  0.92166113711E+02 0.  0.
          5    1    3    3  502    0 -0.16819759677E+02 -0.24454096932E+02  0.46708005944E+02  0.55539490380E+02  0.47000000000E+01 0.  1.
         -5    1    3    3    0  502 -0.16004677814E+02  0.38950950791E+02 -0.62431505424E+02  0.75452694776E+02  0.47000000000E+01 0.  1.
          5    1    4    4  503    0 -0.91313217743E+00 -0.23106322202E+02 -0.41432352180E+02  0.47680873978E+02  0.47000000000E+01 0. -1.
         -5    1    4    4    0  503  0.33737569669E+02  0.86094683432E+01  0.37389070946E+02  0.51306716700E+02  0.47000000000E+01 0.  1.
<mgrwt>
<rscale>  0 0.12144370E+03</rscale>
<asrwt>0</asrwt>
<pdfrwt beam="1">  1        1 0.19211273E-01 0.13004509E+03</pdfrwt>
<pdfrwt beam="2">  1       -1 0.16170230E-01 0.13004509E+03</pdfrwt>
<totfact> 0.72371407E+03</totfact>
</mgrwt>
</event>
<event>
 8    1  0.3629925E-004  0.1808924E+03  0.7546771E-02  0.1172417E+00
          2   -1    0    0  501    0  0.00000000000E+00  0.00000000000E+00  0.49763562515E+03  0.49763562515E+03  0.00000000000E+00 0. -1.
         -2   -1    0    0    0  501 -0.00000000000E+00 -0.00000000000E+00 -0.58263458494E+02  0.58263458494E+02  0.00000000000E+00 0.  1.
         25    2    1    2    0    0 -0.12044351592E+03  0.50898031835E+02  0.22777508375E+03  0.29086686440E+03  0.12499917543E+03 0.  0.
         23    2    1    2    0    0  0.12044351592E+03 -0.50898031835E+02  0.21159708291E+03  0.26503221924E+03  0.91495910115E+02 0.  0.
          5    1    3    3  502    0 -0.14522319023E+03  0.33154341334E+02  0.19956247620E+03  0.24907078760E+03  0.47000000000E+01 0.  1.
         -5    1    3    3    0  502  0.24779674304E+02  0.17743690501E+02  0.28212607547E+02  0.41796076799E+02  0.47000000000E+01 0.  1.
          5    1    4    4  503    0  0.81484847009E+02 -0.55839151059E+02  0.20111760857E+03  0.22411642858E+03  0.47000000000E+01 0. -1.
         -5    1    4    4    0  503  0.38958668916E+02  0.49411192242E+01  0.10479474338E+02  0.40915790660E+02  0.47000000000E+01 0.  1.
<mgrwt>
<rscale>  0 0.17531381E+03</rscale>
<asrwt>0</asrwt>
<pdfrwt beam="1">  1        2 0.76559324E-01 0.18089235E+03</pdfrwt>
<pdfrwt beam="2">  1       -2 0.89636093E-02 0.18089235E+03</pdfrwt>
<totfact> 0.48373691E+03</totfact>
</mgrwt>
</event>
<event>
 8    1  0.3629925E-004  0.1572858E+03  0.7546771E-02  0.1199267E+00
         -1   -1    0    0    0  501 -0.00000000000E+00  0.00000000000E+00  0.16700586504E+03  0.16700586504E+03  0.00000000000E+00 0.  1.
          1   -1    0    0  501    0  0.00000000000E+00 -0.00000000000E+00 -0.14235578090E+03  0.14235578090E+03  0.00000000000E+00 0. -1.
         25    2    1    2    0    0 -0.74774144536E+02 -0.59340627655E+02 -0.38040176185E+02  0.16182051613E+03  0.12500536651E+03 0.  0.
         23    2    1    2    0    0  0.74774144536E+02  0.59340627655E+02  0.62690260322E+02  0.14754112981E+03  0.93412169797E+02 0.  0.
          5    1    4    4  502    0  0.30981020490E+02  0.32386835849E+02 -0.20594365669E+02  0.49547438523E+02  0.47000000000E+01 0. -1.
         -5    1    3    3    0  503 -0.47971283448E+02 -0.96051254117E+02 -0.93698563763E+01  0.10787479623E+03  0.47000000000E+01 0.  1.
          5    1    3    3  503    0 -0.26802861088E+02  0.36710626462E+02 -0.28670319809E+02  0.53945719902E+02  0.47000000000E+01 0.  1.
         -5    1    4    4    0  502  0.43793124046E+02  0.26953791805E+02  0.83284625991E+02  0.97993691291E+02  0.47000000000E+01 0.  1.
<mgrwt>
<rscale>  0 0.15098590E+03</rscale>
<asrwt>0</asrwt>
<pdfrwt beam="1">  1        1 0.21900890E-01 0.15728580E+03</pdfrwt>
<pdfrwt beam="2">  1       -1 0.25693210E-01 0.15728580E+03</pdfrwt>
<totfact> 0.29377260E+03</totfact>
</mgrwt>
</event>
<event>
 8    1  0.3629925E-004  0.1264064E+03  0.7546771E-02  0.1248906E+00
         -1   -1    0    0    0  501 -0.00000000000E+00  0.00000000000E+00  0.13449339407E+03  0.13449339407E+03  0.00000000000E+00 0.  1.
          1   -1    0    0  501    0  0.00000000000E+00 -0.00000000000E+00 -0.91698903389E+02  0.91698903389E+02  0.00000000000E+00 0. -1.
         25    2    1    2    0    0  0.18644163686E+02 -0.23151719703E+01  0.26999738207E+01  0.12643528156E+03  0.12500250279E+03 0.  0.
         23    2    1    2    0    0 -0.18644163686E+02  0.23151719703E+01  0.40094516862E+02  0.99757015898E+02  0.89391985533E+02 0.  0.
          5    1    3    3  502    0  0.98056434675E+01 -0.63479654307E+02  0.14548663917E+00  0.64404412280E+02  0.47000000000E+01 0. -1.
         -5    1    4    4    0  503 -0.23563624538E+00 -0.30000504124E+02  0.52177355555E+02  0.60370954977E+02  0.47000000000E+01 0.  1.
          5    1    4    4  503    0 -0.18408527441E+02  0.32315676094E+02 -0.12082838693E+02  0.39386060921E+02  0.47000000000E+01 0. -1.
         -5    1    3    3    0  502  0.88385202188E+01  0.61164482337E+02  0.25544871815E+01  0.62030869283E+02  0.47000000000E+01 0. -1.
<mgrwt>
<rscale>  0 0.11654617E+03</rscale>
<asrwt>0</asrwt>
<pdfrwt beam="1">  1        1 0.14107524E-01 0.12640645E+03</pdfrwt>
<pdfrwt beam="2">  1       -1 0.20691291E-01 0.12640645E+03</pdfrwt>
<totfact> 0.72548147E+03</totfact>
</mgrwt>
</event>
<event>
 8    1  0.3629925E-004  0.1313933E+03  0.7546771E-02  0.1240629E+00
         -1   -1    0    0    0  501 -0.00000000000E+00  0.00000000000E+00  0.32548833179E+03  0.32548833179E+03  0.00000000000E+00 0.  1.
          1   -1    0    0  501    0  0.00000000000E+00 -0.00000000000E+00 -0.43821556795E+02  0.43821556795E+02  0.00000000000E+00 0. -1.
         25    2    1    2    0    0 -0.40278735018E+02 -0.37359463079E+01  0.21632546152E+03  0.25310257375E+03  0.12501149445E+03 0.  0.
         23    2    1    2    0    0  0.40278735018E+02  0.37359463079E+01  0.65341313475E+02  0.11620731484E+03  0.87168337060E+02 0.  0.
          5    1    3    3  502    0 -0.64406815965E+02 -0.15957213428E+02  0.46715317107E+02  0.81285185954E+02  0.47000000000E+01 0.  1.
         -5    1    3    3    0  502  0.24128080947E+02  0.12221267120E+02  0.16961014441E+03  0.17181738779E+03  0.47000000000E+01 0.  1.
          5    1    4    4  503    0  0.11591022859E+02 -0.25186460672E+02  0.69515798628E+02  0.74988304895E+02  0.47000000000E+01 0.  1.
         -5    1    4    4    0  503  0.28687712159E+02  0.28922406980E+02 -0.41744851531E+01  0.41219009943E+02  0.47000000000E+01 0. -1.
<mgrwt>
<rscale>  0 0.12150875E+03</rscale>
<asrwt>0</asrwt>
<pdfrwt beam="1">  1        1 0.67417782E-02 0.13139333E+03</pdfrwt>
<pdfrwt beam="2">  1       -1 0.50075126E-01 0.13139333E+03</pdfrwt>
<totfact> 0.43031861E+03</totfact>
</mgrwt>
</event>
<event>
 8    1  0.3629925E-004  0.1566531E+03  0.7546771E-02  0.1200375E+00
         -2   -1    0    0    0  501 -0.00000000000E+00  0.00000000000E+00  0.41104862748E+02  0.41104862748E+02  0.00000000000E+00 0.  1.
          2   -1    0    0  501    0  0.00000000000E+00 -0.00000000000E+00 -0.51585719558E+03  0.51585719558E+03  0.00000000000E+00 0. -1.
         25    2    1    2    0    0  0.41272806497E+02 -0.84902665916E+02 -0.29440137462E+03  0.33348516955E+03  0.12501312609E+03 0.  0.
         23    2    1    2    0    0 -0.41272806497E+02  0.84902665916E+02 -0.18035095821E+03  0.22347688878E+03  0.92214665075E+02 0.  0.
          5    1    4    4  502    0 -0.27762188829E+02  0.18401182744E+02 -0.14086297665E+03  0.14482337810E+03  0.47000000000E+01 0. -1.
         -5    1    3    3    0  503  0.42954539356E+02  0.13611944425E+02 -0.16300397825E+03  0.16918263625E+03  0.47000000000E+01 0. -1.
          5    1    3    3  503    0 -0.16817328596E+01 -0.98514610341E+02 -0.13139739637E+03  0.16430253330E+03  0.47000000000E+01 0. -1.
         -5    1    4    4    0  502 -0.13510617668E+02  0.66501483171E+02 -0.39487981564E+02  0.78653510677E+02  0.47000000000E+01 0.  1.
<mgrwt>
<rscale>  0 0.15007939E+03</rscale>
<asrwt>0</asrwt>
<pdfrwt beam="1">  1        2 0.79362648E-01 0.15665308E+03</pdfrwt>
<pdfrwt beam="2">  1       -2 0.63238248E-02 0.15665308E+03</pdfrwt>
<totfact> 0.79128274E+03</totfact>
</mgrwt>
</event>
<event>
 8    1  0.3629925E-004  0.1265711E+03  0.7546771E-02  0.1249458E+00
          1   -1    0    0  501    0  0.00000000000E+00  0.00000000000E+00  0.36451377800E+02  0.36451377800E+02  0.00000000000E+00 0. -1.
         -1   -1    0    0    0  501 -0.00000000000E+00 -0.00000000000E+00 -0.38565619994E+03  0.38565619994E+03  0.00000000000E+00 0.  1.
         25    2    1    2    0    0 -0.17867242611E+02  0.89490775392E+01 -0.11425095195E+03  0.17050961476E+03  0.12498369636E+03 0.  0.
         23    2    1    2    0    0  0.17867242611E+02 -0.89490775392E+01 -0.23495387019E+03  0.25159796298E+03  0.87743316058E+02 0.  0.
          5    1    4    4  502    0 -0.83826283027E+01 -0.31630394459E+02 -0.33281095861E+02  0.46909185162E+02  0.47000000000E+01 0. -1.
         -5    1    3    3    0  503 -0.46800592326E+02  0.49308984579E+02 -0.95283056476E+02  0.11714359673E+03  0.47000000000E+01 0.  1.
          5    1    3    3  503    0  0.28933349715E+02 -0.40359907040E+02 -0.18967895476E+02  0.53366018034E+02  0.47000000000E+01 0.  1.
         -5    1    4    4    0  502  0.26249870914E+02  0.22681316920E+02 -0.20167277433E+03  0.20468877782E+03  0.47000000000E+01 0.  1.
<mgrwt>
<rscale>  0 0.11622502E+03</rscale>
<asrwt>0</asrwt>
<pdfrwt beam="1">  1        1 0.56079043E-02 0.12657112E+03</pdfrwt>
<pdfrwt beam="2">  1       -1 0.59331723E-01 0.12657112E+03</pdfrwt>
<totfact> 0.40205711E+03</totfact>
</mgrwt>
</event>
<event>
 8    1  0.3629925E-004  0.1762829E+03  0.7546771E-02  0.1177383E+00
          1   -1    0    0  501    0  0.00000000000E+00  0.00000000000E+00  0.46687931544E+03  0.46687931544E+03  0.00000000000E+00 0. -1.
         -1   -1    0    0    0  501 -0.00000000000E+00 -0.00000000000E+00 -0.58748467270E+02  0.58748467270E+02  0.00000000000E+00 0.  1.
         25    2    1    2    0    0 -0.32475904037E+02  0.11998362795E+03  0.23677092459E+03  0.29518831877E+03  0.12499966995E+03 0.  0.
         23    2    1    2    0    0  0.32475904037E+02 -0.11998362795E+03  0.17135992358E+03  0.23043946394E+03  0.91034981260E+02 0.  0.
          5    1    4    4  502    0  0.61542469443E+02 -0.79181650730E+02  0.13555238095E+03  0.16868238598E+03  0.47000000000E+01 0. -1.
         -5    1    3    3    0  503 -0.31180800184E+02 -0.74748598204E+01  0.11262591921E+03  0.11719557802E+03  0.47000000000E+01 0.  1.
          5    1    3    3  503    0 -0.12951038526E+01  0.12745848777E+03  0.12414500537E+03  0.17799274074E+03  0.47000000000E+01 0.  1.
         -5    1    4    4    0  502 -0.29066565406E+02 -0.40801977219E+02  0.35807542630E+02  0.61757077964E+02  0.47000000000E+01 0.  1.
<mgrwt>
<rscale>  0 0.17044666E+03</rscale>
<asrwt>0</asrwt>
<pdfrwt beam="1">  1        1 0.71827585E-01 0.17628293E+03</pdfrwt>
<pdfrwt beam="2">  1       -1 0.90382260E-02 0.17628293E+03</pdfrwt>
<totfact> 0.34617725E+03</totfact>
</mgrwt>
</event>
<event>
 8    1  0.3629925E-004  0.2635490E+03  0.7546771E-02  0.1107431E+00
         -2   -1    0    0    0  501 -0.00000000000E+00  0.00000000000E+00  0.16644294651E+04  0.16644294651E+04  0.00000000000E+00 0.  1.
          2   -1    0    0  501    0  0.00000000000E+00 -0.00000000000E+00 -0.93070725019E+02  0.93070725019E+02  0.00000000000E+00 0. -1.
         25    2    1    2    0    0 -0.13850006300E+03 -0.18616058884E+03  0.12793625898E+03  0.29296036783E+03  0.12498023232E+03 0.  0.
         23    2    1    2    0    0  0.13850006300E+03  0.18616058884E+03  0.14434224811E+04  0.14645398223E+04  0.87008044638E+02 0.  0.
          5    1    3    3  502    0 -0.11610192760E+03 -0.16364984825E+03  0.15288576181E+03  0.25230354058E+03  0.47000000000E+01 0.  1.
         -5    1    4    4    0  503  0.13630182926E+03  0.13663087079E+03  0.10116530774E+04  0.10299078709E+04  0.47000000000E+01 0.  1.
          5    1    4    4  503    0  0.21982337426E+01  0.49529718050E+02  0.43176940377E+03  0.43463195147E+03  0.47000000000E+01 0. -1.
         -5    1    3    3    0  502 -0.22398135400E+02 -0.22510740589E+02 -0.24949502825E+02  0.40656827256E+02  0.47000000000E+01 0.  1.
<mgrwt>
<rscale>  0 0.25952223E+03</rscale>
<asrwt>0</asrwt>
<pdfrwt beam="1">  1        2 0.14318574E-01 0.26354903E+03</pdfrwt>
<pdfrwt beam="2">  1       -2 0.25606605E+00 0.26354903E+03</pdfrwt>
<totfact> 0.27298117E+01</totfact>
</mgrwt>
</event>
<event>
 8    1  0.3629925E-004  0.2369937E+03  0.7546771E-02  0.1124690E+00
         -1   -1    0    0    0  501 -0.00000000000E+00  0.00000000000E+00  0.82485516372E+02  0.82485516372E+02  0.00000000000E+00 0.  1.
          1   -1    0    0  501    0  0.00000000000E+00 -0.00000000000E+00 -0.64220349029E+03  0.64220349029E+03  0.00000000000E+00 0. -1.
         25    2    1    2    0    0 -0.19738129648E+03  0.39849733470E+02 -0.25065038569E+03  0.34495160630E+03  0.12497446694E+03 0.  0.
         23    2    1    2    0    0  0.19738129648E+03 -0.39849733470E+02 -0.30906758822E+03  0.37973740035E+03  0.90168407338E+02 0.  0.
          5    1    4    4  502    0  0.12673513687E+03 -0.59711678318E+02 -0.24471828328E+03  0.28202199847E+03  0.47000000000E+01 0. -1.
         -5    1    4    4    0  502  0.70646159604E+02  0.19861944848E+02 -0.64349304938E+02  0.97715401887E+02  0.47000000000E+01 0.  1.
          5    1    3    3  503    0 -0.73692957518E+02  0.77457042925E+02 -0.10119080207E+03  0.14728175009E+03  0.47000000000E+01 0. -1.
         -5    1    3    3    0  503 -0.12368833896E+03 -0.37607309456E+02 -0.14945958362E+03  0.19766985621E+03  0.47000000000E+01 0. -1.
<mgrwt>
<rscale>  0 0.23279241E+03</rscale>
<asrwt>0</asrwt>
<pdfrwt beam="1">  1        1 0.98800539E-01 0.23699366E+03</pdfrwt>
<pdfrwt beam="2">  1       -1 0.12690079E-01 0.23699366E+03</pdfrwt>
<totfact> 0.13391348E+03</totfact>
</mgrwt>
</event>
<event>
 8    1  0.3629925E-004  0.1681183E+03  0.7546771E-02  0.1186986E+00
         -2   -1    0    0    0  501 -0.00000000000E+00  0.00000000000E+00  0.14574137829E+03  0.14574137829E+03  0.00000000000E+00 0.  1.
          2   -1    0    0  501    0  0.00000000000E+00 -0.00000000000E+00 -0.18583959989E+03  0.18583959989E+03  0.00000000000E+00 0. -1.
         25    2    1    2    0    0 -0.11126528570E+03 -0.16105813651E+02  0.32107736412E+02  0.17115685032E+03  0.12499759852E+03 0.  0.
         23    2    1    2    0    0  0.11126528570E+03  0.16105813651E+02 -0.72205958011E+02  0.16042412787E+03  0.88785355750E+02 0.  0.
          5    1    4    4  502    0  0.13881186551E+02 -0.16690184503E+02 -0.50675530070E+02  0.55329458218E+02  0.47000000000E+01 0. -1.
         -5    1    3    3    0  503 -0.62535465487E+02 -0.26839939465E+02  0.77706003859E+02  0.10339912877E+03  0.47000000000E+01 0.  1.
          5    1    3    3  503    0 -0.48729820215E+02  0.10734125814E+02 -0.45598267447E+02  0.67757721548E+02  0.47000000000E+01 0.  1.
         -5    1    4    4    0  502  0.97384099151E+02  0.32795998154E+02 -0.21530427941E+02  0.10509466965E+03  0.47000000000E+01 0.  1.
<mgrwt>
<rscale>  0 0.16152480E+03</rscale>
<asrwt>0</asrwt>
<pdfrwt beam="1">  1        2 0.28590708E-01 0.16811829E+03</pdfrwt>
<pdfrwt beam="2">  1       -2 0.22421751E-01 0.16811829E+03</pdfrwt>
<totfact> 0.31084520E+03</totfact>
</mgrwt>
</event>
<event>
 8    1  0.3629925E-004  0.1349996E+03  0.7546771E-02  0.1231398E+00
         -1   -1    0    0    0  501 -0.00000000000E+00  0.00000000000E+00  0.66997383498E+03  0.66997383498E+03  0.00000000000E+00 0.  1.
          1   -1    0    0  501    0  0.00000000000E+00 -0.00000000000E+00 -0.23169105782E+02  0.23169105782E+02  0.00000000000E+00 0. -1.
         25    2    1    2    0    0  0.20766709873E+02  0.46566362161E+02  0.27662841135E+03  0.30781192309E+03  0.12500087882E+03 0.  0.
         23    2    1    2    0    0 -0.20766709873E+02 -0.46566362161E+02  0.37017631785E+03  0.38533101767E+03  0.94073399857E+02 0.  0.
          5    1    3    3  502    0 -0.50935841249E+02  0.11943913473E+02  0.14101756570E+03  0.15048309150E+03  0.47000000000E+01 0.  1.
         -5    1    3    3    0  502  0.71702551121E+02  0.34622448688E+02  0.13561084565E+03  0.15732883159E+03  0.47000000000E+01 0.  1.
          5    1    4    4  503    0  0.26465773876E+02 -0.96233747328E+01  0.36822626826E+02  0.46594445748E+02  0.47000000000E+01 0. -1.
         -5    1    4    4    0  503 -0.47232483749E+02 -0.36942987428E+02  0.33335369102E+03  0.33873657193E+03  0.47000000000E+01 0.  1.
<mgrwt>
<rscale>  0 0.12737896E+03</rscale>
<asrwt>0</asrwt>
<pdfrwt beam="1">  1        1 0.35644783E-02 0.13499964E+03</pdfrwt>
<pdfrwt beam="2">  1       -1 0.10307288E+00 0.13499964E+03</pdfrwt>
<totfact> 0.24337836E+03</totfact>
</mgrwt>
</event>
<event>
 8    1  0.3629925E-004  0.1682790E+03  0.7546771E-02  0.1186344E+00
          3   -1    0    0  501    0  0.00000000000E+00  0.00000000000E+00  0.29497699312E+02  0.29497699312E+02  0.00000000000E+00 0. -1.
         -3   -1    0    0    0  501 -0.00000000000E+00 -0.00000000000E+00 -0.83532897299E+03  0.83532897299E+03  0.00000000000E+00 0.  1.
         25    2    1    2    0    0  0.87886753211E+02 -0.70488295540E+02 -0.46297727515E+03  0.49261118176E+03  0.12500055158E+03 0.  0.
         23    2    1    2    0    0 -0.87886753211E+02  0.70488295540E+02 -0.34285399853E+03  0.37221549053E+03  0.91119843560E+02 0.  0.
          5    1    4    4  502    0 -0.68320393820E+02  0.77727494456E+02 -0.17776203760E+03  0.20574418975E+03  0.47000000000E+01 0. -1.
         -5    1    3    3    0  503  0.11261257228E+02 -0.88421119832E+02 -0.23432946849E+03  0.25075386368E+03  0.47000000000E+01 0.  1.
          5    1    3    3  503    0  0.76625495984E+02  0.17932824292E+02 -0.22864780665E+03  0.24185731808E+03  0.47000000000E+01 0.  1.
         -5    1    4    4    0  502 -0.19566359392E+02 -0.72391989159E+01 -0.16509196093E+03  0.16647130078E+03  0.47000000000E+01 0.  1.
<mgrwt>
<rscale>  0 0.16210194E+03</rscale>
<asrwt>0</asrwt>
<pdfrwt beam="1">  1        3 0.45381076E-02 0.16827899E+03</pdfrwt>
<pdfrwt beam="2">  1       -3 0.12851215E+00 0.16827899E+03</pdfrwt>
<totfact> 0.31947830E+02</totfact>
</mgrwt>
</event>
<event>
 8    1  0.3629925E-004  0.1707262E+03  0.7546771E-02  0.1183940E+00
         -1   -1    0    0    0  501 -0.00000000000E+00  0.00000000000E+00  0.13651699632E+03  0.13651699632E+03  0.00000000000E+00 0.  1.
          1   -1    0    0  501    0  0.00000000000E+00 -0.00000000000E+00 -0.18577602579E+03  0.18577602579E+03  0.00000000000E+00 0. -1.
         25    2    1    2    0    0  0.11624457537E+03  0.31506950932E+01 -0.11515362144E+02  0.17111411780E+03  0.12499883824E+03 0.  0.
         23    2    1    2    0    0 -0.11624457537E+03 -0.31506950932E+01 -0.37743667327E+02  0.15117890432E+03  0.88925522240E+02 0.  0.
          5    1    3    3  502    0 -0.67053519485E+01  0.25389884230E+02 -0.34883920540E+02  0.43915667799E+02  0.47000000000E+01 0. -1.
         -5    1    3    3    0  502  0.12294992732E+03 -0.22239189137E+02  0.23368558397E+02  0.12719845000E+03  0.47000000000E+01 0. -1.
          5    1    4    4  503    0 -0.77784637971E+02 -0.14584973441E+02 -0.64938223985E+02  0.10248040929E+03  0.47000000000E+01 0. -1.
         -5    1    4    4    0  503 -0.38459937396E+02  0.11434278348E+02  0.27194556658E+02  0.48698495025E+02  0.47000000000E+01 0.  1.
<mgrwt>
<rscale>  0 0.16428735E+03</rscale>
<asrwt>0</asrwt>
<pdfrwt beam="1">  1        1 0.28580927E-01 0.17072621E+03</pdfrwt>
<pdfrwt beam="2">  1       -1 0.21002615E-01 0.17072621E+03</pdfrwt>
<totfact> 0.29309618E+03</totfact>
</mgrwt>
</event>
<event>
 8    1  0.3629925E-004  0.1527772E+03  0.7546771E-02  0.1205536E+00
         -2   -1    0    0    0  501 -0.00000000000E+00  0.00000000000E+00  0.17999013083E+03  0.17999013083E+03  0.00000000000E+00 0.  1.
          2   -1    0    0  501    0  0.00000000000E+00 -0.00000000000E+00 -0.12767322292E+03  0.12767322292E+03  0.00000000000E+00 0. -1.
         25    2    1    2    0    0 -0.76248365286E+02  0.43661524669E+02  0.86937984483E+02  0.17578132131E+03  0.12498287015E+03 0.  0.
         23    2    1    2    0    0  0.76248365286E+02 -0.43661524669E+02 -0.34621076576E+02  0.13188203244E+03  0.92054927038E+02 0.  0.
          5    1    3    3  502    0 -0.56025018293E+02  0.70715391529E+02  0.10390811734E+03  0.13768970957E+03  0.47000000000E+01 0.  1.
         -5    1    3    3    0  502 -0.20223346993E+02 -0.27053866860E+02 -0.16970132852E+02  0.38091611737E+02  0.47000000000E+01 0.  1.
          5    1    4    4  503    0  0.73442441092E+02  0.41830555178E+01 -0.39238055668E+02  0.83504521552E+02  0.47000000000E+01 0. -1.
         -5    1    4    4    0  503  0.28059241940E+01 -0.47844580187E+02  0.46169790916E+01  0.48377510888E+02  0.47000000000E+01 0.  1.
<mgrwt>
<rscale>  0 0.14595330E+03</rscale>
<asrwt>0</asrwt>
<pdfrwt beam="1">  1        2 0.19642034E-01 0.15277716E+03</pdfrwt>
<pdfrwt beam="2">  1       -2 0.27690789E-01 0.15277716E+03</pdfrwt>
<totfact> 0.32485586E+03</totfact>
</mgrwt>
</event>
<event>
 8    1  0.3629925E-004  0.1820361E+03  0.7546771E-02  0.1170933E+00
         -2   -1    0    0    0  501 -0.00000000000E+00  0.00000000000E+00  0.17832160125E+03  0.17832160125E+03  0.00000000000E+00 0. -1.
          2   -1    0    0  501    0  0.00000000000E+00 -0.00000000000E+00 -0.17087897741E+03  0.17087897741E+03  0.00000000000E+00 0.  1.
         25    2    1    2    0    0  0.12466635826E+03 -0.44417989047E+02  0.33603542535E+02  0.18511170603E+03  0.12498994761E+03 0.  0.
         23    2    1    2    0    0 -0.12466635826E+03  0.44417989047E+02 -0.26160918702E+02  0.16408887263E+03  0.93413627595E+02 0.  0.
          5    1    4    4  502    0 -0.36370813185E+02  0.58777370620E+02  0.44537544128E+01  0.69422916081E+02  0.47000000000E+01 0. -1.
         -5    1    3    3    0  503  0.33524197013E+02  0.28137241094E+02 -0.29062553569E+02  0.52747494174E+02  0.47000000000E+01 0. -1.
          5    1    3    3  503    0  0.91142161251E+02 -0.72555230141E+02  0.62666096104E+02  0.13236421185E+03  0.47000000000E+01 0. -1.
         -5    1    4    4    0  502 -0.88295545079E+02 -0.14359381573E+02 -0.30614673114E+02  0.94665956552E+02  0.47000000000E+01 0.  1.
<mgrwt>
<rscale>  0 0.17680324E+03</rscale>
<asrwt>0</asrwt>
<pdfrwt beam="1">  1        2 0.26289073E-01 0.18203611E+03</pdfrwt>
<pdfrwt beam="2">  1       -2 0.27434093E-01 0.18203611E+03</pdfrwt>
<totfact> 0.24013273E+03</totfact>
</mgrwt>
</event>
<event>
 8    1  0.3629925E-004  0.1295162E+03  0.7546771E-02  0.1244793E+00
          1   -1    0    0  501    0  0.00000000000E+00  0.00000000000E+00  0.92129688886E+02  0.92129688886E+02  0.00000000000E+00 0. -1.
         -1   -1    0    0    0  501 -0.00000000000E+00 -0.00000000000E+00 -0.13806601085E+03  0.13806601085E+03  0.00000000000E+00 0.  1.
         25    2    1    2    0    0  0.27859952585E+02  0.19306805087E+02 -0.47489320674E+02  0.13794815640E+03  0.12500211436E+03 0.  0.
         23    2    1    2    0    0 -0.27859952585E+02 -0.19306805087E+02  0.15529987147E+01  0.92247543330E+02  0.85780346028E+02 0.  0.
          5    1    3    3  502    0 -0.19059113063E+02 -0.39906943394E+02 -0.43403013200E+02  0.62142782981E+02  0.47000000000E+01 0.  1.
         -5    1    3    3    0  502  0.46919065648E+02  0.59213748482E+02 -0.40863074742E+01  0.75805373420E+02  0.47000000000E+01 0.  1.
          5    1    4    4  503    0 -0.42173355711E+00 -0.49765789438E+02  0.75307174853E+01  0.50553074718E+02  0.47000000000E+01 0. -1.
         -5    1    4    4    0  503 -0.27438219028E+02  0.30458984351E+02 -0.59777187706E+01  0.41694468612E+02  0.47000000000E+01 0.  1.
<mgrwt>
<rscale>  0 0.11897796E+03</rscale>
<asrwt>0</asrwt>
<pdfrwt beam="1">  1        1 0.14173798E-01 0.12951625E+03</pdfrwt>
<pdfrwt beam="2">  1       -1 0.21240925E-01 0.12951625E+03</pdfrwt>
<totfact> 0.69255315E+03</totfact>
</mgrwt>
</event>
<event>
 8    1  0.3629925E-004  0.1539537E+03  0.7546771E-02  0.1204316E+00
          2   -1    0    0  501    0  0.00000000000E+00  0.00000000000E+00  0.42565843798E+03  0.42565843798E+03  0.00000000000E+00 0. -1.
         -2   -1    0    0    0  501 -0.00000000000E+00 -0.00000000000E+00 -0.51886427381E+02  0.51886427381E+02  0.00000000000E+00 0.  1.
         25    2    1    2    0    0  0.89840608740E+02  0.25112933764E+01  0.12650344581E+03  0.19926081304E+03  0.12499643290E+03 0.  0.
         23    2    1    2    0    0 -0.89840608740E+02 -0.25112933764E+01  0.24726856479E+03  0.27828405232E+03  0.90678713426E+02 0.  0.
          5    1    4    4  502    0 -0.84497771163E+02  0.26284615707E+02  0.22298955021E+03  0.23995246166E+03  0.47000000000E+01 0. -1.
         -5    1    3    3    0  503  0.10659444036E+03 -0.32171394872E+02  0.11154029960E+03  0.15767276809E+03  0.47000000000E+01 0. -1.
          5    1    3    3  503    0 -0.16753831619E+02  0.34682688248E+02  0.14963146211E+02  0.41588044948E+02  0.47000000000E+01 0. -1.
         -5    1    4    4    0  502 -0.53428375774E+01 -0.28795909084E+02  0.24279014577E+02  0.38331590655E+02  0.47000000000E+01 0.  1.
<mgrwt>
<rscale>  0 0.14691529E+03</rscale>
<asrwt>0</asrwt>
<pdfrwt beam="1">  1        2 0.65485911E-01 0.15395373E+03</pdfrwt>
<pdfrwt beam="2">  1       -2 0.79825276E-02 0.15395373E+03</pdfrwt>
<totfact> 0.68177681E+03</totfact>
</mgrwt>
</event>
<event>
 8    1  0.3629925E-004  0.1290668E+03  0.7546771E-02  0.1243201E+00
          2   -1    0    0  501    0  0.00000000000E+00  0.00000000000E+00  0.68455724432E+03  0.68455724432E+03  0.00000000000E+00 0. -1.
         -2   -1    0    0    0  501 -0.00000000000E+00 -0.00000000000E+00 -0.18596288598E+02  0.18596288598E+02  0.00000000000E+00 0.  1.
         25    2    1    2    0    0  0.17142931166E+02  0.27183789833E+02  0.36204622721E+03  0.38436401769E+03  0.12500155573E+03 0.  0.
         23    2    1    2    0    0 -0.17142931166E+02 -0.27183789833E+02  0.30391472851E+03  0.31878951523E+03  0.90717993240E+02 0.  0.
          5    1    4    4  502    0  0.90547352179E+01  0.27677138700E+02  0.15659787385E+03  0.15935180053E+03  0.47000000000E+01 0. -1.
         -5    1    3    3    0  503  0.56705019825E+02  0.31016990316E+02  0.31927957667E+03  0.32578988787E+03  0.47000000000E+01 0. -1.
          5    1    3    3  503    0 -0.39562088659E+02 -0.38332004832E+01  0.42766650543E+02  0.58574129815E+02  0.47000000000E+01 0. -1.
         -5    1    4    4    0  502 -0.26197666384E+02 -0.54860928533E+02  0.14731685465E+03  0.15943771470E+03  0.47000000000E+01 0.  1.
<mgrwt>
<rscale>  0 0.11993678E+03</rscale>
<asrwt>0</asrwt>
<pdfrwt beam="1">  1        2 0.10531648E+00 0.12906676E+03</pdfrwt>
<pdfrwt beam="2">  1       -2 0.28609680E-02 0.12906676E+03</pdfrwt>
<totfact> 0.18483187E+04</totfact>
</mgrwt>
</event>
<event>
 8    1  0.3629925E-004  0.1262771E+03  0.7546771E-02  0.1245586E+00
         -2   -1    0    0    0  501 -0.00000000000E+00  0.00000000000E+00  0.21772904165E+02  0.21772904165E+02  0.00000000000E+00 0.  1.
          2   -1    0    0  501    0  0.00000000000E+00 -0.00000000000E+00 -0.58364685592E+03  0.58364685592E+03  0.00000000000E+00 0. -1.
         25    2    1    2    0    0  0.19296923594E+01  0.17813777309E+02 -0.28458651716E+03  0.31134448412E+03  0.12499939068E+03 0.  0.
         23    2    1    2    0    0 -0.19296923594E+01 -0.17813777309E+02 -0.27728743459E+03  0.29407527596E+03  0.96285472282E+02 0.  0.
          5    1    4    4  502    0 -0.26723945239E+02 -0.20798929272E+02 -0.26241212082E+03  0.26462988467E+03  0.47000000000E+01 0. -1.
         -5    1    3    3    0  503 -0.58471683880E+02 -0.79815512008E+01 -0.15651658880E+03  0.16733850587E+03  0.47000000000E+01 0. -1.
          5    1    3    3  503    0  0.60401376239E+02  0.25795328509E+02 -0.12806992836E+03  0.14400597826E+03  0.47000000000E+01 0. -1.
         -5    1    4    4    0  502  0.24794252880E+02  0.29851519640E+01 -0.14875313768E+02  0.29445391283E+02  0.47000000000E+01 0.  1.
<mgrwt>
<rscale>  0 0.11850366E+03</rscale>
<asrwt>0</asrwt>
<pdfrwt beam="1">  1        2 0.89791816E-01 0.12627708E+03</pdfrwt>
<pdfrwt beam="2">  1       -2 0.33496779E-02 0.12627708E+03</pdfrwt>
<totfact> 0.17582008E+04</totfact>
</mgrwt>
</event>
<event>
 8    1  0.3629925E-004  0.1521119E+03  0.7546771E-02  0.1206788E+00
          3   -1    0    0  501    0  0.00000000000E+00  0.00000000000E+00  0.20327725233E+03  0.20327725233E+03  0.00000000000E+00 0. -1.
         -3   -1    0    0    0  501 -0.00000000000E+00 -0.00000000000E+00 -0.12616622098E+03  0.12616622098E+03  0.00000000000E+00 0.  1.
         25    2    1    2    0    0  0.24435751628E+02  0.83154962611E+02  0.12319405303E+03  0.19574166623E+03  0.12500468564E+03 0.  0.
         23    2    1    2    0    0 -0.24435751628E+02 -0.83154962611E+02 -0.46083021682E+02  0.13370180707E+03  0.90778161267E+02 0.  0.
          5    1    3    3  502    0  0.70696733764E+02  0.23163076681E+02  0.46605723327E+02  0.87913251180E+02  0.47000000000E+01 0.  1.
         -5    1    3    3    0  502 -0.46260982136E+02  0.59991885930E+02  0.76588329707E+02  0.10782841505E+03  0.47000000000E+01 0.  1.
          5    1    4    4  503    0 -0.72038692429E+01 -0.64304844799E+02  0.15642056660E+02  0.66736592161E+02  0.47000000000E+01 0. -1.
         -5    1    4    4    0  503 -0.17231882385E+02 -0.18850117811E+02 -0.61725078341E+02  0.66965214912E+02  0.47000000000E+01 0.  1.
<mgrwt>
<rscale>  0 0.14497434E+03</rscale>
<asrwt>0</asrwt>
<pdfrwt beam="1">  1        3 0.31273423E-01 0.15211188E+03</pdfrwt>
<pdfrwt beam="2">  1       -3 0.19410188E-01 0.15211188E+03</pdfrwt>
<totfact> 0.55368853E+02</totfact>
</mgrwt>
</event>
<event>
 8    1  0.3629925E-004  0.5266581E+03  0.7546771E-02  0.1007479E+00
          2   -1    0    0  501    0  0.00000000000E+00  0.00000000000E+00  0.18691635641E+04  0.18691635641E+04  0.00000000000E+00 0. -1.
         -2   -1    0    0    0  501 -0.00000000000E+00 -0.00000000000E+00 -0.15496650162E+03  0.15496650162E+03  0.00000000000E+00 0.  1.
         25    2    1    2    0    0 -0.50627958367E+03  0.73666922596E+02  0.62481420723E+03  0.81716676206E+03  0.12499156428E+03 0.  0.
         23    2    1    2    0    0  0.50627958367E+03 -0.73666922596E+02  0.10893828553E+04  0.12069633037E+04  0.90882224531E+02 0.  0.
          5    1    4    4  502    0  0.87564390311E+02 -0.48163865557E+02  0.20284707667E+03  0.22617760037E+03  0.47000000000E+01 0. -1.
         -5    1    3    3    0  503 -0.42802770569E+03  0.17034532221E+02  0.48419342725E+03  0.64650077890E+03  0.47000000000E+01 0.  1.
          5    1    3    3  503    0 -0.78251877977E+02  0.56632390376E+02  0.14062077998E+03  0.17066598316E+03  0.47000000000E+01 0.  1.
         -5    1    4    4    0  502  0.41871519336E+03 -0.25503057040E+02  0.88653577858E+03  0.98078570329E+03  0.47000000000E+01 0.  1.
<mgrwt>
<rscale>  0 0.52488978E+03</rscale>
<asrwt>0</asrwt>
<pdfrwt beam="1">  1        2 0.28756361E+00 0.52665807E+03</pdfrwt>
<pdfrwt beam="2">  1       -2 0.23841002E-01 0.52665807E+03</pdfrwt>
<totfact> 0.12941739E+02</totfact>
</mgrwt>
</event>
<event>
 8    1  0.3629925E-004  0.2007964E+03  0.7546771E-02  0.1153146E+00
         -1   -1    0    0    0  501 -0.00000000000E+00  0.00000000000E+00  0.55873707645E+02  0.55873707645E+02  0.00000000000E+00 0.  1.
          1   -1    0    0  501    0  0.00000000000E+00 -0.00000000000E+00 -0.69415002899E+03  0.69415002899E+03  0.00000000000E+00 0. -1.
         25    2    1    2    0    0  0.15427252383E+03  0.29899318503E+02 -0.24680346079E+03  0.31816840326E+03  0.12500081488E+03 0.  0.
         23    2    1    2    0    0 -0.15427252383E+03 -0.29899318503E+02 -0.39147286056E+03  0.43185533338E+03  0.92488094136E+02 0.  0.
          5    1    3    3  502    0  0.53840189486E+02  0.73380771168E+02 -0.10662822598E+03  0.14026821506E+03  0.47000000000E+01 0. -1.
         -5    1    3    3    0  502  0.10043233434E+03 -0.43481452664E+02 -0.14017523482E+03  0.17790018820E+03  0.47000000000E+01 0. -1.
          5    1    4    4  503    0 -0.12432890482E+03  0.14615148205E+02 -0.30818546636E+03  0.33267348979E+03  0.47000000000E+01 0. -1.
         -5    1    4    4    0  503 -0.29943619010E+02 -0.44514466709E+02 -0.83287394196E+02  0.99181843589E+02  0.47000000000E+01 0.  1.
<mgrwt>
<rscale>  0 0.19601425E+03</rscale>
<asrwt>0</asrwt>
<pdfrwt beam="1">  1        1 0.10679231E+00 0.20079638E+03</pdfrwt>
<pdfrwt beam="2">  1       -1 0.85959555E-02 0.20079638E+03</pdfrwt>
<totfact> 0.21850286E+03</totfact>
</mgrwt>
</event>
<event>
 8    1  0.3629925E-004  0.1390718E+03  0.7546771E-02  0.1226237E+00
          2   -1    0    0  501    0  0.00000000000E+00  0.00000000000E+00  0.45388050871E+03  0.45388050871E+03  0.00000000000E+00 0.  1.
         -2   -1    0    0    0  501 -0.00000000000E+00 -0.00000000000E+00 -0.34653318538E+02  0.34653318538E+02  0.00000000000E+00 0. -1.
         25    2    1    2    0    0 -0.58994274684E+02  0.15376550483E+02  0.19808432386E+03  0.24202968773E+03  0.12499683049E+03 0.  0.
         23    2    1    2    0    0  0.58994274684E+02 -0.15376550483E+02  0.22114286632E+03  0.24650413952E+03  0.90240571415E+02 0.  0.
          5    1    4    4  502    0  0.25068591644E+02 -0.50384605087E+00  0.35800272956E+01  0.25760332748E+02  0.47000000000E+01 0. -1.
         -5    1    4    4    0  502  0.33925683040E+02 -0.14872704433E+02  0.21756283902E+03  0.22074380678E+03  0.47000000000E+01 0.  1.
          5    1    3    3  503    0 -0.13190282259E+02  0.27312944298E+02 -0.70168325841E+01  0.31485018847E+02  0.47000000000E+01 0.  1.
         -5    1    3    3    0  503 -0.45803992425E+02 -0.11936393815E+02  0.20510115644E+03  0.21054466888E+03  0.47000000000E+01 0.  1.
<mgrwt>
<rscale>  0 0.13082493E+03</rscale>
<asrwt>0</asrwt>
<pdfrwt beam="1">  1        2 0.69827766E-01 0.13907182E+03</pdfrwt>
<pdfrwt beam="2">  1       -2 0.53312801E-02 0.13907182E+03</pdfrwt>
<totfact> 0.11702696E+04</totfact>
</mgrwt>
</event>
<event>
 8    1  0.3629925E-004  0.3485197E+03  0.7546771E-02  0.1064340E+00
         -2   -1    0    0    0  501 -0.00000000000E+00  0.00000000000E+00  0.21153584578E+03  0.21153584578E+03  0.00000000000E+00 0.  1.
          2   -1    0    0  501    0  0.00000000000E+00 -0.00000000000E+00 -0.92534271081E+03  0.92534271081E+03  0.00000000000E+00 0. -1.
         25    2    1    2    0    0  0.25644286640E+03  0.20020601043E+03 -0.71893491770E+03  0.79895770990E+03  0.12498246273E+03 0.  0.
         23    2    1    2    0    0 -0.25644286640E+03 -0.20020601043E+03  0.51280526694E+01  0.33792084669E+03  0.91207518122E+02 0.  0.
          5    1    4    4  502    0 -0.14099843670E+03 -0.11866255083E+03 -0.41603607686E+02  0.18898230154E+03  0.47000000000E+01 0. -1.
         -5    1    3    3    0  503  0.27696266832E+02 -0.56113433696E+01 -0.14417870459E+03  0.14699714020E+03  0.47000000000E+01 0.  1.
          5    1    3    3  503    0  0.22874659957E+03  0.20581735380E+03 -0.57475621311E+03  0.65196056970E+03  0.47000000000E+01 0.  1.
         -5    1    4    4    0  502 -0.11544442970E+03 -0.81543459601E+02  0.46731660355E+02  0.14893854515E+03  0.47000000000E+01 0.  1.
<mgrwt>
<rscale>  0 0.34582929E+03</rscale>
<asrwt>0</asrwt>
<pdfrwt beam="1">  1        2 0.14236042E+00 0.34851974E+03</pdfrwt>
<pdfrwt beam="2">  1       -2 0.32543976E-01 0.34851974E+03</pdfrwt>
<totfact> 0.25743452E+02</totfact>
</mgrwt>
</event>
<event>
 8    1  0.3629925E-004  0.1316823E+03  0.7546771E-02  0.1237745E+00
          2   -1    0    0  501    0  0.00000000000E+00  0.00000000000E+00  0.53559344945E+03  0.53559344945E+03  0.00000000000E+00 0. -1.
         -2   -1    0    0    0  501 -0.00000000000E+00 -0.00000000000E+00 -0.25332759493E+02  0.25332759493E+02  0.00000000000E+00 0.  1.
         25    2    1    2    0    0  0.36345025725E+02  0.19852864144E+02  0.28269562192E+03  0.31186063296E+03  0.12500057051E+03 0.  0.
         23    2    1    2    0    0 -0.36345025725E+02 -0.19852864144E+02  0.22756506804E+03  0.24906557598E+03  0.92372635771E+02 0.  0.
          5    1    4    4  502    0 -0.61788066440E+02 -0.19591621753E+02  0.20387832959E+03  0.21398612122E+03  0.47000000000E+01 0. -1.
         -5    1    4    4    0  502  0.25443040715E+02 -0.26124239045E+00  0.23686738448E+02  0.35079454767E+02  0.47000000000E+01 0.  1.
          5    1    3    3  503    0 -0.11318310146E+02 -0.32659543369E+02  0.19911108916E+03  0.20214367600E+03  0.47000000000E+01 0.  1.
         -5    1    3    3    0  503  0.47663335872E+02  0.52512407512E+02  0.83584532758E+02  0.10971695696E+03  0.47000000000E+01 0.  1.
<mgrwt>
<rscale>  0 0.12330324E+03</rscale>
<asrwt>0</asrwt>
<pdfrwt beam="1">  1        2 0.82398984E-01 0.13168234E+03</pdfrwt>
<pdfrwt beam="2">  1       -2 0.38973480E-02 0.13168234E+03</pdfrwt>
<totfact> 0.15526977E+04</totfact>
</mgrwt>
</event>
<event>
 8    1  0.3629925E-004  0.1252732E+03  0.7546771E-02  0.1250886E+00
          4   -1    0    0  501    0  0.00000000000E+00  0.00000000000E+00  0.12699949978E+03  0.12699949978E+03  0.00000000000E+00 0.  1.
         -4   -1    0    0    0  501 -0.00000000000E+00 -0.00000000000E+00 -0.93967373918E+02  0.93967373918E+02  0.00000000000E+00 0. -1.
         25    2    1    2    0    0 -0.29644478379E+01 -0.76994028872E+01  0.37155911195E+02  0.13066723269E+03  0.12500118082E+03 0.  0.
         23    2    1    2    0    0  0.29644478379E+01  0.76994028872E+01 -0.41237853313E+01  0.90299641012E+02  0.89827338854E+02 0.  0.
          5    1    3    3  502    0  0.25743179118E+02  0.21623651876E+02 -0.34220016706E+02  0.48201588510E+02  0.47000000000E+01 0. -1.
         -5    1    4    4    0  503  0.50054201418E+00 -0.31405651267E+02  0.25683015619E+02  0.40844494918E+02  0.47000000000E+01 0.  1.
          5    1    4    4  503    0  0.24639058237E+01  0.39105054154E+02 -0.29806800950E+02  0.49455146094E+02  0.47000000000E+01 0. -1.
         -5    1    3    3    0  502 -0.28707626956E+02 -0.29323054763E+02  0.71375927901E+02  0.82465644178E+02  0.47000000000E+01 0. -1.
<mgrwt>
<rscale>  0 0.11539890E+03</rscale>
<asrwt>0</asrwt>
<pdfrwt beam="1">  1        4 0.19538385E-01 0.12527316E+03</pdfrwt>
<pdfrwt beam="2">  1       -4 0.14456519E-01 0.12527316E+03</pdfrwt>
<totfact> 0.15299993E+03</totfact>
</mgrwt>
</event>
<event>
 8    1  0.3629925E-004  0.1287995E+03  0.7546771E-02  0.1243660E+00
          1   -1    0    0  501    0  0.00000000000E+00  0.00000000000E+00  0.25359991462E+03  0.25359991462E+03  0.00000000000E+00 0. -1.
         -1   -1    0    0    0  501 -0.00000000000E+00 -0.00000000000E+00 -0.52097175235E+02  0.52097175235E+02  0.00000000000E+00 0.  1.
         25    2    1    2    0    0  0.31013563569E+02  0.20371448030E+01  0.14662810996E+03  0.19516431053E+03  0.12499325739E+03 0.  0.
         23    2    1    2    0    0 -0.31013563569E+02 -0.20371448030E+01  0.54874629422E+02  0.11053277932E+03  0.90775983967E+02 0.  0.
          5    1    3    3  502    0  0.61175160072E+02  0.39819848552E+02  0.55205610624E+02  0.91639347406E+02  0.47000000000E+01 0.  1.
         -5    1    3    3    0  502 -0.30161596504E+02 -0.37782703748E+02  0.91422499334E+02  0.10352496313E+03  0.47000000000E+01 0.  1.
          5    1    4    4  503    0  0.21192401550E+01  0.36357590155E+02  0.45957568987E+02  0.58826470979E+02  0.47000000000E+01 0. -1.
         -5    1    4    4    0  503 -0.33132803724E+02 -0.38394734958E+02  0.89170604355E+01  0.51706308338E+02  0.47000000000E+01 0.  1.
<mgrwt>
<rscale>  0 0.11965919E+03</rscale>
<asrwt>0</asrwt>
<pdfrwt beam="1">  1        1 0.39015371E-01 0.12879948E+03</pdfrwt>
<pdfrwt beam="2">  1       -1 0.80149502E-02 0.12879948E+03</pdfrwt>
<totfact> 0.87798971E+03</totfact>
</mgrwt>
</event>
<event>
 8    1  0.3629925E-004  0.1582192E+03  0.7546771E-02  0.1198796E+00
          2   -1    0    0  501    0  0.00000000000E+00  0.00000000000E+00  0.24685352778E+03  0.24685352778E+03  0.00000000000E+00 0. -1.
         -2   -1    0    0    0  501 -0.00000000000E+00 -0.00000000000E+00 -0.12314004129E+03  0.12314004129E+03  0.00000000000E+00 0.  1.
         25    2    1    2    0    0 -0.66355852152E+02 -0.70766729154E+02  0.16747712714E+03  0.23039509864E+03  0.12498913669E+03 0.  0.
         23    2    1    2    0    0  0.66355852152E+02  0.70766729154E+02 -0.43763640652E+02  0.13959847043E+03  0.90340730759E+02 0.  0.
          5    1    3    3  502    0 -0.10050445189E+03 -0.72006742881E+02  0.13103478894E+03  0.18021742919E+03  0.47000000000E+01 0.  1.
         -5    1    4    4    0  503  0.54728014838E+02  0.21197785340E+02 -0.61821294115E+02  0.85372502116E+02  0.47000000000E+01 0.  1.
          5    1    4    4  503    0  0.11627837314E+02  0.49568943813E+02  0.18057653462E+02  0.54225968317E+02  0.47000000000E+01 0. -1.
         -5    1    3    3    0  502  0.34148599735E+02  0.12400137276E+01  0.36442338200E+02  0.50177669450E+02  0.47000000000E+01 0.  1.
<mgrwt>
<rscale>  0 0.15137303E+03</rscale>
<asrwt>0</asrwt>
<pdfrwt beam="1">  1        2 0.37977466E-01 0.15821919E+03</pdfrwt>
<pdfrwt beam="2">  1       -2 0.18944622E-01 0.15821919E+03</pdfrwt>
<totfact> 0.30397182E+03</totfact>
</mgrwt>
</event>
<event>
 8    1  0.3629925E-004  0.1854773E+03  0.7546771E-02  0.1166547E+00
          1   -1    0    0  501    0  0.00000000000E+00  0.00000000000E+00  0.13805104202E+04  0.13805104202E+04  0.00000000000E+00 0. -1.
         -1   -1    0    0    0  501 -0.00000000000E+00 -0.00000000000E+00 -0.23166873288E+02  0.23166873288E+02  0.00000000000E+00 0.  1.
         25    2    1    2    0    0 -0.96100269359E+02 -0.97685080696E+02  0.62067166744E+03  0.64779251142E+03  0.12499672926E+03 0.  0.
         23    2    1    2    0    0  0.96100269359E+02  0.97685080696E+02  0.73667187950E+03  0.75588478210E+03  0.99492255978E+02 0.  0.
          5    1    3    3  502    0 -0.34023571326E+02 -0.64048102643E+02  0.51815153393E+03  0.52322353251E+03  0.47000000000E+01 0.  1.
         -5    1    4    4    0  503 -0.11697553634E+02  0.48392711729E+02  0.18816871248E+03  0.19470038948E+03  0.47000000000E+01 0.  1.
          5    1    4    4  503    0  0.10779782299E+03  0.49292368967E+02  0.54850316703E+03  0.56118439262E+03  0.47000000000E+01 0. -1.
         -5    1    3    3    0  502 -0.62076698033E+02 -0.33636978053E+02  0.10252013351E+03  0.12456897891E+03  0.47000000000E+01 0.  1.
<mgrwt>
<rscale>  0 0.18130447E+03</rscale>
<asrwt>0</asrwt>
<pdfrwt beam="1">  1        1 0.21238616E+00 0.18547727E+03</pdfrwt>
<pdfrwt beam="2">  1       -1 0.35641354E-02 0.18547727E+03</pdfrwt>
<totfact> 0.25060563E+03</totfact>
</mgrwt>
</event>
<event>
 8    1  0.3629925E-004  0.1328573E+03  0.7546771E-02  0.1235839E+00
          1   -1    0    0  501    0  0.00000000000E+00  0.00000000000E+00  0.78104232807E+02  0.78104232807E+02  0.00000000000E+00 0. -1.
         -1   -1    0    0    0  501 -0.00000000000E+00 -0.00000000000E+00 -0.17898484165E+03  0.17898484165E+03  0.00000000000E+00 0.  1.
         25    2    1    2    0    0  0.31133052717E+02  0.32514452851E+02 -0.44437828134E+02  0.14009202375E+03  0.12499839172E+03 0.  0.
         23    2    1    2    0    0 -0.31133052717E+02 -0.32514452851E+02 -0.56442780709E+02  0.11699705071E+03  0.92065551458E+02 0.  0.
          5    1    4    4  502    0 -0.12577675162E+02 -0.17800126443E+02  0.24148141765E+02  0.32867387553E+02  0.47000000000E+01 0. -1.
         -5    1    4    4    0  502 -0.18555377555E+02 -0.14714326408E+02 -0.80590922474E+02  0.84129663158E+02  0.47000000000E+01 0.  1.
          5    1    3    3  503    0 -0.34779513520E+02  0.10183487335E+02 -0.58463339283E+02  0.68944688085E+02  0.47000000000E+01 0.  1.
         -5    1    3    3    0  503  0.65912566237E+02  0.22330965516E+02  0.14025511149E+02  0.71147335662E+02  0.47000000000E+01 0.  1.
<mgrwt>
<rscale>  0 0.12450899E+03</rscale>
<asrwt>0</asrwt>
<pdfrwt beam="1">  1        1 0.12016036E-01 0.13285727E+03</pdfrwt>
<pdfrwt beam="2">  1       -1 0.27536129E-01 0.13285727E+03</pdfrwt>
<totfact> 0.56286360E+03</totfact>
</mgrwt>
</event>
<event>
 8    1  0.3629925E-004  0.1496381E+03  0.7546771E-02  0.1209636E+00
         -3   -1    0    0    0  501 -0.00000000000E+00  0.00000000000E+00  0.27485005365E+02  0.27485005365E+02  0.00000000000E+00 0.  1.
          3   -1    0    0  501    0  0.00000000000E+00 -0.00000000000E+00 -0.69200077091E+03  0.69200077091E+03  0.00000000000E+00 0. -1.
         25    2    1    2    0    0  0.74503087416E+02 -0.34878594161E+02 -0.31822471248E+03  0.35165113567E+03  0.12499730886E+03 0.  0.
         23    2    1    2    0    0 -0.74503087416E+02  0.34878594161E+02 -0.34629105306E+03  0.36783464060E+03  0.92831045613E+02 0.  0.
          5    1    4    4  502    0  0.58511470257E+01 -0.22388035205E+02 -0.93298181850E+02  0.96239808699E+02  0.47000000000E+01 0. -1.
         -5    1    3    3    0  503  0.85779414556E+02 -0.58672721584E+02 -0.15776503114E+03  0.18897748879E+03  0.47000000000E+01 0. -1.
          5    1    3    3  503    0 -0.11276327140E+02  0.23794127423E+02 -0.16045968134E+03  0.16267364688E+03  0.47000000000E+01 0. -1.
         -5    1    4    4    0  502 -0.80354234442E+02  0.57266629366E+02 -0.25299287121E+03  0.27159483190E+03  0.47000000000E+01 0.  1.
<mgrwt>
<rscale>  0 0.14278026E+03</rscale>
<asrwt>0</asrwt>
<pdfrwt beam="1">  1        3 0.10646165E+00 0.14963808E+03</pdfrwt>
<pdfrwt beam="2">  1       -3 0.42284628E-02 0.14963808E+03</pdfrwt>
<totfact> 0.54913626E+02</totfact>
</mgrwt>
</event>
<event>
 8    1  0.3629925E-004  0.1266138E+03  0.7546771E-02  0.1250042E+00
         -2   -1    0    0    0  501 -0.00000000000E+00  0.00000000000E+00  0.15598278591E+02  0.15598278591E+02  0.00000000000E+00 0.  1.
          2   -1    0    0  501    0  0.00000000000E+00 -0.00000000000E+00 -0.10853257133E+04  0.10853257133E+04  0.00000000000E+00 0. -1.
         25    2    1    2    0    0 -0.17313074812E+02 -0.10378631060E+02 -0.90450890172E+03  0.91332765052E+03  0.12499434138E+03 0.  0.
         23    2    1    2    0    0  0.17313074812E+02  0.10378631060E+02 -0.16521853300E+03  0.18759634138E+03  0.86531873379E+02 0.  0.
          5    1    4    4  502    0  0.41190530446E+02 -0.20631521943E+02 -0.11338419667E+03  0.12247606113E+03  0.47000000000E+01 0.  1.
         -5    1    4    4    0  502 -0.23877455634E+02  0.31010153003E+02 -0.51834336339E+02  0.65120280255E+02  0.47000000000E+01 0. -1.
          5    1    3    3  503    0 -0.66809091075E+02  0.17919221527E+02 -0.51129251137E+03  0.51597158384E+03  0.47000000000E+01 0.  1.
         -5    1    3    3    0  503  0.49496016263E+02 -0.28297852587E+02 -0.39321639035E+03  0.39735606668E+03  0.47000000000E+01 0.  1.
<mgrwt>
<rscale>  0 0.11588607E+03</rscale>
<asrwt>0</asrwt>
<pdfrwt beam="1">  1        2 0.16697322E+00 0.12661376E+03</pdfrwt>
<pdfrwt beam="2">  1       -2 0.23997347E-02 0.12661376E+03</pdfrwt>
<totfact> 0.13183569E+04</totfact>
</mgrwt>
</event>
<event>
 8    1  0.3629925E-004  0.1998502E+03  0.7546771E-02  0.1154116E+00
          2   -1    0    0  501    0  0.00000000000E+00  0.00000000000E+00  0.20278748770E+03  0.20278748770E+03  0.00000000000E+00 0. -1.
         -2   -1    0    0    0  501 -0.00000000000E+00 -0.00000000000E+00 -0.17964177151E+03  0.17964177151E+03  0.00000000000E+00 0.  1.
         25    2    1    2    0    0 -0.77539337801E+02 -0.13529110625E+03 -0.24017319842E+01  0.19986458812E+03  0.12499621166E+03 0.  0.
         23    2    1    2    0    0  0.77539337801E+02  0.13529110625E+03  0.25547448178E+02  0.18256467110E+03  0.91439349779E+02 0.  0.
          5    1    3    3  502    0  0.26152916971E+02 -0.67222018654E+02  0.16934121408E+02  0.74240348368E+02  0.47000000000E+01 0. -1.
         -5    1    4    4    0  503  0.85496750227E+02  0.76779934035E+02  0.39687902474E+02  0.12166376688E+03  0.47000000000E+01 0. -1.
          5    1    4    4  503    0 -0.79574124253E+01  0.58511172213E+02 -0.14140454296E+02  0.60900904213E+02  0.47000000000E+01 0. -1.
         -5    1    3    3    0  502 -0.10369225477E+03 -0.68069087595E+02 -0.19335853392E+02  0.12562423975E+03  0.47000000000E+01 0. -1.
<mgrwt>
<rscale>  0 0.19489870E+03</rscale>
<asrwt>0</asrwt>
<pdfrwt beam="1">  1        2 0.31198075E-01 0.19985016E+03</pdfrwt>
<pdfrwt beam="2">  1       -2 0.27637195E-01 0.19985016E+03</pdfrwt>
<totfact> 0.19702376E+03</totfact>
</mgrwt>
</event>
<event>
 8    1  0.3795758E-004  0.2365307E+03  0.7546771E-02  0.1124874E+00
         -2   -1    0    0    0  501 -0.00000000000E+00  0.00000000000E+00  0.14285306051E+03  0.14285306051E+03  0.00000000000E+00 0.  1.
          2   -1    0    0  501    0  0.00000000000E+00 -0.00000000000E+00 -0.39081746686E+03  0.39081746686E+03  0.00000000000E+00 0. -1.
         25    2    1    2    0    0 -0.19923569039E+03  0.25036075667E+02 -0.19486754656E+03  0.30646391209E+03  0.12500041319E+03 0.  0.
         23    2    1    2    0    0  0.19923569039E+03 -0.25036075667E+02 -0.53096859795E+02  0.22720661528E+03  0.92097253467E+02 0.  0.
          5    1    4    4  502    0  0.12429382741E+03 -0.78727003230E+01  0.13529120437E+02  0.12536371900E+03  0.47000000000E+01 0. -1.
         -5    1    4    4    0  502  0.74941862986E+02 -0.17163375344E+02 -0.66625980232E+02  0.10184289628E+03  0.47000000000E+01 0.  1.
          5    1    3    3  503    0 -0.83317591111E+02 -0.71282527032E+01 -0.79488600274E+01  0.84130299838E+02  0.47000000000E+01 0. -1.
         -5    1    3    3    0  503 -0.11591809928E+03  0.32164328370E+02 -0.18691868653E+03  0.22233361225E+03  0.47000000000E+01 0. -1.
<mgrwt>
<rscale>  0 0.23252630E+03</rscale>
<asrwt>0</asrwt>
<pdfrwt beam="1">  1        2 0.60125763E-01 0.23653069E+03</pdfrwt>
<pdfrwt beam="2">  1       -2 0.21977394E-01 0.23653069E+03</pdfrwt>
<totfact> 0.14573908E+03</totfact>
</mgrwt>
</event>
<event>
 8    1  0.3629925E-004  0.1645233E+03  0.7546771E-02  0.1191484E+00
          2   -1    0    0  501    0  0.00000000000E+00  0.00000000000E+00  0.97369540455E+03  0.97369540455E+03  0.00000000000E+00 0.  1.
         -2   -1    0    0    0  501 -0.00000000000E+00 -0.00000000000E+00 -0.36057404142E+02  0.36057404142E+02  0.00000000000E+00 0. -1.
         25    2    1    2    0    0 -0.10220099088E+03 -0.31552382731E+02  0.79180656065E+03  0.80871845148E+03  0.12500923523E+03 0.  0.
         23    2    1    2    0    0  0.10220099088E+03  0.31552382731E+02  0.14583143976E+03  0.20103435721E+03  0.87791847933E+02 0.  0.
          5    1    3    3  502    0 -0.54024892603E+02 -0.72368755835E+02  0.59883587843E+03  0.60562564769E+03  0.47000000000E+01 0.  1.
         -5    1    4    4    0  503  0.70467420543E+02 -0.16246732937E+02  0.11446679309E+03  0.13547822854E+03  0.47000000000E+01 0.  1.
          5    1    4    4  503    0  0.31733570334E+02  0.47799115668E+02  0.31364646671E+02  0.65556128665E+02  0.47000000000E+01 0. -1.
         -5    1    3    3    0  502 -0.48176098274E+02  0.40816373104E+02  0.19297068221E+03  0.20309280379E+03  0.47000000000E+01 0.  1.
<mgrwt>
<rscale>  0 0.15755636E+03</rscale>
<asrwt>0</asrwt>
<pdfrwt beam="1">  1        2 0.14979927E+00 0.16452326E+03</pdfrwt>
<pdfrwt beam="2">  1       -2 0.55472937E-02 0.16452326E+03</pdfrwt>
<totfact> 0.44797870E+03</totfact>
</mgrwt>
</event>
<event>
 8    1  0.3629925E-004  0.1253229E+03  0.7546771E-02  0.1248477E+00
         -1   -1    0    0    0  501 -0.00000000000E+00  0.00000000000E+00  0.26664750008E+03  0.26664750008E+03  0.00000000000E+00 0.  1.
          1   -1    0    0  501    0  0.00000000000E+00 -0.00000000000E+00 -0.52524797501E+02  0.52524797501E+02  0.00000000000E+00 0. -1.
         25    2    1    2    0    0 -0.44697092803E+01  0.77883261571E+01  0.17858469524E+03  0.21817042479E+03  0.12500081822E+03 0.  0.
         23    2    1    2    0    0  0.44697092803E+01 -0.77883261571E+01  0.35538007348E+02  0.10100187279E+03  0.94115843599E+02 0.  0.
          5    1    4    4  502    0  0.30751187832E+02  0.32423813767E+02  0.86795734121E+01  0.45764224531E+02  0.47000000000E+01 0. -1.
         -5    1    4    4    0  502 -0.26281478552E+02 -0.40212139924E+02  0.26858433936E+02  0.55237648263E+02  0.47000000000E+01 0.  1.
          5    1    3    3  503    0 -0.99065462238E+01 -0.31791580967E+02 -0.14849858667E+01  0.33662136912E+02  0.47000000000E+01 0.  1.
         -5    1    3    3    0  503  0.54368369435E+01  0.39579907124E+02  0.18006968110E+03  0.18450828788E+03  0.47000000000E+01 0.  1.
<mgrwt>
<rscale>  0 0.11679671E+03</rscale>
<asrwt>0</asrwt>
<pdfrwt beam="1">  1        1 0.80807382E-02 0.12532295E+03</pdfrwt>
<pdfrwt beam="2">  1       -1 0.41022692E-01 0.12532295E+03</pdfrwt>
<totfact> 0.48045777E+03</totfact>
</mgrwt>
</event>
<event>
 8    1  0.3629925E-004  0.1642187E+03  0.7546771E-02  0.1191416E+00
         -2   -1    0    0    0  501 -0.00000000000E+00  0.00000000000E+00  0.31901764190E+03  0.31901764190E+03  0.00000000000E+00 0.  1.
          2   -1    0    0  501    0  0.00000000000E+00 -0.00000000000E+00 -0.78002322193E+02  0.78002322193E+02  0.00000000000E+00 0. -1.
         25    2    1    2    0    0  0.33471167132E+02  0.10110582264E+03  0.75762818621E+02  0.18085294605E+03  0.12500030803E+03 0.  0.
         23    2    1    2    0    0 -0.33471167132E+02 -0.10110582264E+03  0.16525250108E+03  0.21616701804E+03  0.89872599681E+02 0.  0.
          5    1    3    3  502    0  0.45734851833E+02  0.49104957707E+02 -0.20786359408E+02  0.70406933473E+02  0.47000000000E+01 0.  1.
         -5    1    3    3    0  502 -0.12263684701E+02  0.52000864932E+02  0.96549178029E+02  0.11044601258E+03  0.47000000000E+01 0.  1.
          5    1    4    4  503    0 -0.11188082063E+02 -0.58426789902E+02  0.19786873096E+02  0.62868698932E+02  0.47000000000E+01 0. -1.
         -5    1    4    4    0  503 -0.22283085069E+02 -0.42679032737E+02  0.14546562799E+03  0.15329831911E+03  0.47000000000E+01 0.  1.
<mgrwt>
<rscale>  0 0.15761500E+03</rscale>
<asrwt>0</asrwt>
<pdfrwt beam="1">  1        2 0.12000357E-01 0.16421871E+03</pdfrwt>
<pdfrwt beam="2">  1       -2 0.49079637E-01 0.16421871E+03</pdfrwt>
<totfact> 0.19893790E+03</totfact>
</mgrwt>
</event>
<event>
 8    1  0.3629925E-004  0.1612053E+03  0.7546771E-02  0.1194652E+00
          2   -1    0    0  501    0  0.00000000000E+00  0.00000000000E+00  0.10523624720E+03  0.10523624720E+03  0.00000000000E+00 0. -1.
         -2   -1    0    0    0  501 -0.00000000000E+00 -0.00000000000E+00 -0.21534911964E+03  0.21534911964E+03  0.00000000000E+00 0.  1.
         25    2    1    2    0    0  0.98181694206E+02 -0.26878099354E+02 -0.80654627585E+02  0.18025624967E+03  0.12500027717E+03 0.  0.
         23    2    1    2    0    0 -0.98181694206E+02  0.26878099354E+02 -0.29458244852E+02  0.14032911716E+03  0.91991280195E+02 0.  0.
          5    1    4    4  502    0 -0.35273531154E+02  0.25693676499E+02 -0.56616885829E+02  0.71637621213E+02  0.47000000000E+01 0. -1.
         -5    1    3    3    0  503 -0.21060357597E+02 -0.96680037637E+01  0.13546112242E+02  0.27250616796E+02  0.47000000000E+01 0.  1.
          5    1    3    3  503    0  0.11924205180E+03 -0.17210095590E+02 -0.94200739827E+02  0.15300563288E+03  0.47000000000E+01 0.  1.
         -5    1    4    4    0  502 -0.62908163052E+02  0.11844228556E+01  0.27158640977E+02  0.68691495950E+02  0.47000000000E+01 0.  1.
<mgrwt>
<rscale>  0 0.15483703E+03</rscale>
<asrwt>0</asrwt>
<pdfrwt beam="1">  1        2 0.16190192E-01 0.16120529E+03</pdfrwt>
<pdfrwt beam="2">  1       -2 0.33130633E-01 0.16120529E+03</pdfrwt>
<totfact> 0.29431401E+03</totfact>
</mgrwt>
</event>
<event>
 8    1  0.3629925E-004  0.1832897E+03  0.7546771E-02  0.1168271E+00
          1   -1    0    0  501    0  0.00000000000E+00  0.00000000000E+00  0.10762002552E+03  0.10762002552E+03  0.00000000000E+00 0. -1.
         -1   -1    0    0    0  501 -0.00000000000E+00 -0.00000000000E+00 -0.28779467750E+03  0.28779467750E+03  0.00000000000E+00 0.  1.
         25    2    1    2    0    0  0.11314755119E+03 -0.71891742009E+02 -0.91262806371E+02  0.20475353285E+03  0.12499727388E+03 0.  0.
         23    2    1    2    0    0 -0.11314755119E+03  0.71891742009E+02 -0.88911845613E+02  0.19066117017E+03  0.10235025457E+03 0.  0.
          5    1    4    4  502    0 -0.24475355553E+02 -0.25458079285E+02 -0.97135060386E+01  0.36926941789E+02  0.47000000000E+01 0. -1.
         -5    1    3    3    0  503  0.11095045303E+03 -0.42620200954E+01 -0.77651398353E+02  0.13557284945E+03  0.47000000000E+01 0.  1.
          5    1    3    3  503    0  0.21970981557E+01 -0.67629721914E+02 -0.13611408018E+02  0.69180683393E+02  0.47000000000E+01 0.  1.
         -5    1    4    4    0  502 -0.88672195634E+02  0.97349821294E+02 -0.79198339574E+02  0.15373422838E+03  0.47000000000E+01 0.  1.
<mgrwt>
<rscale>  0 0.17951753E+03</rscale>
<asrwt>0</asrwt>
<pdfrwt beam="1">  1        1 0.16556927E-01 0.18328969E+03</pdfrwt>
<pdfrwt beam="2">  1       -1 0.44276104E-01 0.18328969E+03</pdfrwt>
<totfact> 0.16596339E+03</totfact>
</mgrwt>
</event>
<event>
 8    1  0.3629925E-004  0.2066394E+03  0.7546771E-02  0.1148231E+00
         -1   -1    0    0    0  501 -0.00000000000E+00  0.00000000000E+00  0.58583504067E+02  0.58583504067E+02  0.00000000000E+00 0.  1.
          1   -1    0    0  501    0  0.00000000000E+00 -0.00000000000E+00 -0.72884291008E+03  0.72884291008E+03  0.00000000000E+00 0. -1.
         25    2    1    2    0    0 -0.16454883637E+03  0.16322392199E+01 -0.23266660992E+03  0.31118098321E+03  0.12498347565E+03 0.  0.
         23    2    1    2    0    0  0.16454883637E+03 -0.16322392199E+01 -0.43759279610E+03  0.47624543094E+03  0.90792464094E+02 0.  0.
          5    1    3    3  502    0 -0.45320139042E+02  0.51304110162E+02 -0.40760481882E+02  0.79809357882E+02  0.47000000000E+01 0. -1.
         -5    1    4    4    0  503  0.28393162021E+02  0.28142639481E+02 -0.16759238554E+03  0.17235857245E+03  0.47000000000E+01 0.  1.
          5    1    4    4  503    0  0.13615567435E+03 -0.29774878701E+02 -0.27000041056E+03  0.30388685849E+03  0.47000000000E+01 0. -1.
         -5    1    3    3    0  502 -0.11922869733E+03 -0.49671870942E+02 -0.19190612803E+03  0.23137162533E+03  0.47000000000E+01 0. -1.
<mgrwt>
<rscale>  0 0.20179758E+03</rscale>
<asrwt>0</asrwt>
<pdfrwt beam="1">  1        1 0.11212968E+00 0.20663943E+03</pdfrwt>
<pdfrwt beam="2">  1       -1 0.90128467E-02 0.20663943E+03</pdfrwt>
<totfact> 0.18935182E+03</totfact>
</mgrwt>
</event>
<event>
 8    1  0.3629925E-004  0.1369142E+03  0.7546771E-02  0.1230003E+00
          1   -1    0    0  501    0  0.00000000000E+00  0.00000000000E+00  0.76298466115E+03  0.76298466115E+03  0.00000000000E+00 0. -1.
         -1   -1    0    0    0  501 -0.00000000000E+00 -0.00000000000E+00 -0.29938135750E+02  0.29938135750E+02  0.00000000000E+00 0.  1.
         25    2    1    2    0    0  0.16028904131E+02 -0.53534679074E+02  0.63244822962E+03  0.64709835006E+03  0.12499049512E+03 0.  0.
         23    2    1    2    0    0 -0.16028904131E+02  0.53534679074E+02  0.10059829578E+03  0.14582444684E+03  0.89564862256E+02 0.  0.
          5    1    3    3  502    0 -0.53186260282E+02 -0.18067052869E+02  0.20506834043E+03  0.21267418962E+03  0.47000000000E+01 0.  1.
         -5    1    3    3    0  502  0.69215164412E+02 -0.35467626205E+02  0.42737988919E+03  0.43442416044E+03  0.47000000000E+01 0.  1.
          5    1    4    4  503    0  0.12892775073E+02  0.50210316896E+02  0.10384208148E+03  0.11615751141E+03  0.47000000000E+01 0. -1.
         -5    1    4    4    0  503 -0.28921679204E+02  0.33243621782E+01 -0.32437856999E+01  0.29666935425E+02  0.47000000000E+01 0.  1.
<mgrwt>
<rscale>  0 0.12829812E+03</rscale>
<asrwt>0</asrwt>
<pdfrwt beam="1">  1        1 0.11738224E+00 0.13691425E+03</pdfrwt>
<pdfrwt beam="2">  1       -1 0.46058676E-02 0.13691425E+03</pdfrwt>
<totfact> 0.47964297E+03</totfact>
</mgrwt>
</event>
<event>
 8    1  0.3629925E-004  0.1540652E+03  0.7546771E-02  0.1204180E+00
          1   -1    0    0  501    0  0.00000000000E+00  0.00000000000E+00  0.12183354816E+03  0.12183354816E+03  0.00000000000E+00 0. -1.
         -1   -1    0    0    0  501 -0.00000000000E+00 -0.00000000000E+00 -0.16530213902E+03  0.16530213902E+03  0.00000000000E+00 0.  1.
         25    2    1    2    0    0  0.57954430596E+02 -0.68932679365E+02 -0.68223593176E+01  0.15421613676E+03  0.12500256774E+03 0.  0.
         23    2    1    2    0    0 -0.57954430596E+02  0.68932679365E+02 -0.36646231540E+02  0.13291955042E+03  0.90632390946E+02 0.  0.
          5    1    4    4  502    0 -0.15192671389E+02  0.51753752674E+02  0.21779633232E+02  0.58358466425E+02  0.47000000000E+01 0. -1.
         -5    1    4    4    0  502 -0.42761759207E+02  0.17178926691E+02 -0.58425864772E+02  0.74561083999E+02  0.47000000000E+01 0.  1.
          5    1    3    3  503    0  0.89048609674E+02 -0.77336381952E+02 -0.18813963036E+02  0.11952667511E+03  0.47000000000E+01 0.  1.
         -5    1    3    3    0  503 -0.31094179078E+02  0.84037025870E+01  0.11991603718E+02  0.34689461648E+02  0.47000000000E+01 0.  1.
<mgrwt>
<rscale>  0 0.14702251E+03</rscale>
<asrwt>0</asrwt>
<pdfrwt beam="1">  1        1 0.18743623E-01 0.15406516E+03</pdfrwt>
<pdfrwt beam="2">  1       -1 0.25431098E-01 0.15406516E+03</pdfrwt>
<totfact> 0.36402384E+03</totfact>
</mgrwt>
</event>
<event>
 8    1  0.3629925E-004  0.1460124E+03  0.7546771E-02  0.1215393E+00
         -1   -1    0    0    0  501 -0.00000000000E+00  0.00000000000E+00  0.60694221567E+02  0.60694221567E+02  0.00000000000E+00 0.  1.
          1   -1    0    0  501    0  0.00000000000E+00 -0.00000000000E+00 -0.29107949837E+03  0.29107949837E+03  0.00000000000E+00 0. -1.
         25    2    1    2    0    0  0.24610914121E+02 -0.71329832746E+02 -0.14692265680E+03  0.20713739980E+03  0.12500397266E+03 0.  0.
         23    2    1    2    0    0 -0.24610914121E+02  0.71329832746E+02 -0.83462620000E+02  0.14463632014E+03  0.90884619337E+02 0.  0.
          5    1    4    4  502    0  0.11135421081E+02  0.39765002170E+02  0.71133554015E+01  0.42165659313E+02  0.47000000000E+01 0.  1.
         -5    1    3    3    0  503  0.62583472080E+02 -0.91641097331E+00 -0.86012923218E+02  0.10647931136E+03  0.47000000000E+01 0. -1.
          5    1    3    3  503    0 -0.37972557958E+02 -0.70413421773E+02 -0.60909733586E+02  0.10065808844E+03  0.47000000000E+01 0. -1.
         -5    1    4    4    0  502 -0.35746335202E+02  0.31564830576E+02 -0.90575975401E+02  0.10247066082E+03  0.47000000000E+01 0. -1.
<mgrwt>
<rscale>  0 0.13847725E+03</rscale>
<asrwt>0</asrwt>
<pdfrwt beam="1">  1        1 0.44781462E-01 0.14601245E+03</pdfrwt>
<pdfrwt beam="2">  1       -1 0.93375724E-02 0.14601245E+03</pdfrwt>
<totfact> 0.59246853E+03</totfact>
</mgrwt>
</event>
<event>
 8    1  0.3629925E-004  0.1477593E+03  0.7546771E-02  0.1213087E+00
         -1   -1    0    0    0  501 -0.00000000000E+00  0.00000000000E+00  0.22201095139E+03  0.22201095139E+03  0.00000000000E+00 0.  1.
          1   -1    0    0  501    0  0.00000000000E+00 -0.00000000000E+00 -0.82327347821E+02  0.82327347821E+02  0.00000000000E+00 0. -1.
         25    2    1    2    0    0 -0.77217577574E+02  0.15689079359E+02  0.99245719084E+02  0.17799585149E+03  0.12499643553E+03 0.  0.
         23    2    1    2    0    0  0.77217577574E+02 -0.15689079359E+02  0.40437884488E+02  0.12634244772E+03  0.90102664208E+02 0.  0.
          5    1    4    4  502    0  0.61997988832E+01 -0.38916734001E+02  0.32039138489E+02  0.51005353509E+02  0.47000000000E+01 0. -1.
         -5    1    4    4    0  502  0.71017778691E+02  0.23227654642E+02  0.83987459993E+01  0.75337094214E+02  0.47000000000E+01 0.  1.
          5    1    3    3  503    0 -0.86022185306E+02  0.48501541393E+02  0.10385798992E+03  0.14339033424E+03  0.47000000000E+01 0. -1.
         -5    1    3    3    0  503  0.88046077324E+01 -0.32812462034E+02 -0.46122708381E+01  0.34605517253E+02  0.47000000000E+01 0. -1.
<mgrwt>
<rscale>  0 0.14018006E+03</rscale>
<asrwt>0</asrwt>
<pdfrwt beam="1">  1        1 0.12665746E-01 0.14775930E+03</pdfrwt>
<pdfrwt beam="2">  1       -1 0.34155531E-01 0.14775930E+03</pdfrwt>
<totfact> 0.36766143E+03</totfact>
</mgrwt>
</event>
<event>
 8    1  0.3629925E-004  0.1336272E+03  0.7546771E-02  0.1233730E+00
         -2   -1    0    0    0  501 -0.00000000000E+00  0.00000000000E+00  0.10526101963E+03  0.10526101963E+03  0.00000000000E+00 0.  1.
          2   -1    0    0  501    0  0.00000000000E+00 -0.00000000000E+00 -0.15660591217E+03  0.15660591217E+03  0.00000000000E+00 0. -1.
         25    2    1    2    0    0 -0.24361133581E+02 -0.40476047625E+02 -0.76167286904E+02  0.15381057395E+03  0.12499784720E+03 0.  0.
         23    2    1    2    0    0  0.24361133581E+02  0.40476047625E+02  0.24822394365E+02  0.10805635785E+03  0.93958767276E+02 0.  0.
          5    1    4    4  502    0  0.27369603335E+00 -0.22822434602E+02 -0.16524275354E+02  0.28567115827E+02  0.47000000000E+01 0. -1.
         -5    1    4    4    0  502  0.24087437548E+02  0.63298482227E+02  0.41346669719E+02  0.79489242019E+02  0.47000000000E+01 0.  1.
          5    1    3    3  503    0 -0.40099734191E+02  0.24928943800E+01  0.21530768818E+02  0.45824308074E+02  0.47000000000E+01 0. -1.
         -5    1    3    3    0  503  0.15738600610E+02 -0.42968942005E+02 -0.97698055722E+02  0.10798626588E+03  0.47000000000E+01 0. -1.
<mgrwt>
<rscale>  0 0.12586087E+03</rscale>
<asrwt>0</asrwt>
<pdfrwt beam="1">  1        2 0.24093217E-01 0.13362723E+03</pdfrwt>
<pdfrwt beam="2">  1       -2 0.16194003E-01 0.13362723E+03</pdfrwt>
<totfact> 0.64102793E+03</totfact>
</mgrwt>
</event>
<event>
 8    1  0.3629925E-004  0.1260990E+03  0.7546771E-02  0.1249423E+00
         -1   -1    0    0    0  501 -0.00000000000E+00  0.00000000000E+00  0.36751145172E+03  0.36751145172E+03  0.00000000000E+00 0.  1.
          1   -1    0    0  501    0  0.00000000000E+00 -0.00000000000E+00 -0.43150406425E+02  0.43150406425E+02  0.00000000000E+00 0. -1.
         25    2    1    2    0    0  0.15668602931E+02  0.59259875558E+01  0.28461365349E+03  0.31129711796E+03  0.12498136442E+03 0.  0.
         23    2    1    2    0    0 -0.15668602931E+02 -0.59259875558E+01  0.39747391810E+02  0.99364740187E+02  0.89514657964E+02 0.  0.
          5    1    3    3  502    0  0.14397195383E+02  0.36308095695E+02  0.18610226093E+02  0.43519967407E+02  0.47000000000E+01 0. -1.
         -5    1    4    4    0  503  0.28689085637E+02  0.10427453484E+02  0.41609193843E+02  0.51819016134E+02  0.47000000000E+01 0.  1.
          5    1    4    4  503    0 -0.44357688568E+02 -0.16353441040E+02 -0.18618020334E+01  0.47545724053E+02  0.47000000000E+01 0. -1.
         -5    1    3    3    0  502  0.12714075475E+01 -0.30382108139E+02  0.26600342739E+03  0.26777715055E+03  0.47000000000E+01 0. -1.
<mgrwt>
<rscale>  0 0.11624546E+03</rscale>
<asrwt>0</asrwt>
<pdfrwt beam="1">  1        1 0.66385243E-02 0.12609902E+03</pdfrwt>
<pdfrwt beam="2">  1       -1 0.56540221E-01 0.12609902E+03</pdfrwt>
<totfact> 0.35021342E+03</totfact>
</mgrwt>
</event>
<event>
 8    1  0.3629925E-004  0.1417979E+03  0.7546771E-02  0.1220746E+00
         -1   -1    0    0    0  501 -0.00000000000E+00  0.00000000000E+00  0.40823246011E+02  0.40823246011E+02  0.00000000000E+00 0.  1.
          1   -1    0    0  501    0  0.00000000000E+00 -0.00000000000E+00 -0.41225064403E+03  0.41225064403E+03  0.00000000000E+00 0. -1.
         25    2    1    2    0    0 -0.38895719043E+02  0.54484629988E+02 -0.17374080907E+03  0.22425991822E+03  0.12500076127E+03 0.  0.
         23    2    1    2    0    0  0.38895719043E+02 -0.54484629988E+02 -0.19768658894E+03  0.22881397182E+03  0.93778432413E+02 0.  0.
          5    1    3    3  502    0 -0.23404520991E+02  0.93942560732E+02 -0.10134388035E+03  0.14023426259E+03  0.47000000000E+01 0. -1.
         -5    1    4    4    0  503 -0.29634222641E+02 -0.13596609579E+02 -0.80290298952E+02  0.86785235204E+02  0.47000000000E+01 0.  1.
          5    1    4    4  503    0  0.68529941684E+02 -0.40888020409E+02 -0.11739628999E+03  0.14202873661E+03  0.47000000000E+01 0. -1.
         -5    1    3    3    0  502 -0.15491198052E+02 -0.39457930744E+02 -0.72396928723E+02  0.84025655631E+02  0.47000000000E+01 0. -1.
<mgrwt>
<rscale>  0 0.13462791E+03</rscale>
<asrwt>0</asrwt>
<pdfrwt beam="1">  1        1 0.63423176E-01 0.14179789E+03</pdfrwt>
<pdfrwt beam="2">  1       -1 0.62804994E-02 0.14179789E+03</pdfrwt>
<totfact> 0.69608838E+03</totfact>
</mgrwt>
</event>
<event>
 8    1  0.3629925E-004  0.1283257E+03  0.7546771E-02  0.1242916E+00
         -1   -1    0    0    0  501 -0.00000000000E+00  0.00000000000E+00  0.38184350286E+03  0.38184350286E+03  0.00000000000E+00 0.  1.
          1   -1    0    0  501    0  0.00000000000E+00 -0.00000000000E+00 -0.34888156739E+02  0.34888156739E+02  0.00000000000E+00 0. -1.
         25    2    1    2    0    0  0.22400413581E+02  0.18411742859E+02  0.15707712743E+03  0.20283173067E+03  0.12500686461E+03 0.  0.
         23    2    1    2    0    0 -0.22400413581E+02 -0.18411742859E+02  0.18987821868E+03  0.21389992892E+03  0.94120512427E+02 0.  0.
          5    1    3    3  502    0 -0.67003461834E+01 -0.31686578879E+02  0.13773678361E+03  0.14157134413E+03  0.47000000000E+01 0.  1.
         -5    1    4    4    0  503 -0.80679225215E+01  0.21961154721E+02  0.15924689650E+03  0.16102499102E+03  0.47000000000E+01 0.  1.
          5    1    4    4  503    0 -0.14332491059E+02 -0.40372897580E+02  0.30631322187E+02  0.52874937900E+02  0.47000000000E+01 0. -1.
         -5    1    3    3    0  502  0.29100759764E+02  0.50098321738E+02  0.19340343825E+02  0.61260386541E+02  0.47000000000E+01 0.  1.
<mgrwt>
<rscale>  0 0.12010984E+03</rscale>
<asrwt>0</asrwt>
<pdfrwt beam="1">  1        1 0.53674090E-02 0.12832571E+03</pdfrwt>
<pdfrwt beam="2">  1       -1 0.58745151E-01 0.12832571E+03</pdfrwt>
<totfact> 0.43523920E+03</totfact>
</mgrwt>
</event>
<event>
 8    1  0.3629925E-004  0.1959869E+03  0.7546771E-02  0.1157900E+00
          2   -1    0    0  501    0  0.00000000000E+00  0.00000000000E+00  0.15757445222E+04  0.15757445222E+04  0.00000000000E+00 0.  1.
         -2   -1    0    0    0  501 -0.00000000000E+00 -0.00000000000E+00 -0.23491617821E+02  0.23491617821E+02  0.00000000000E+00 0. -1.
         25    2    1    2    0    0 -0.10596713354E+03  0.10749903623E+03  0.10251717284E+04  0.10437374845E+04  0.12500315020E+03 0.  0.
         23    2    1    2    0    0  0.10596713354E+03 -0.10749903623E+03  0.52708117602E+03  0.55549865561E+03  0.89325886995E+02 0.  0.
          5    1    4    4  502    0 -0.11257955159E+02 -0.20809388789E+02  0.37000039439E+02  0.44168598966E+02  0.47000000000E+01 0. -1.
         -5    1    4    4    0  502  0.11722508870E+03 -0.86689647443E+02  0.49008113658E+03  0.51133005664E+03  0.47000000000E+01 0.  1.
          5    1    3    3  503    0 -0.76359816477E+02  0.19250029416E+01  0.58989466583E+03  0.59483807375E+03  0.47000000000E+01 0.  1.
         -5    1    3    3    0  503 -0.29607317061E+02  0.10557403329E+03  0.43527706258E+03  0.44889941071E+03  0.47000000000E+01 0.  1.
<mgrwt>
<rscale>  0 0.19062329E+03</rscale>
<asrwt>0</asrwt>
<pdfrwt beam="1">  1        2 0.24242215E+00 0.19598690E+03</pdfrwt>
<pdfrwt beam="2">  1       -2 0.36140963E-02 0.19598690E+03</pdfrwt>
<totfact> 0.39677764E+03</totfact>
</mgrwt>
</event>
<event>
 8    1  0.3629925E-004  0.1443874E+03  0.7546771E-02  0.1218363E+00
          1   -1    0    0  501    0  0.00000000000E+00  0.00000000000E+00  0.51944633403E+03  0.51944633403E+03  0.00000000000E+00 0. -1.
         -1   -1    0    0    0  501 -0.00000000000E+00 -0.00000000000E+00 -0.34783140562E+02  0.34783140562E+02  0.00000000000E+00 0.  1.
         25    2    1    2    0    0  0.36134484134E+02  0.62588826023E+02  0.19473565272E+03  0.24242461083E+03  0.12499862162E+03 0.  0.
         23    2    1    2    0    0 -0.36134484134E+02 -0.62588826023E+02  0.28992754075E+03  0.31180486377E+03  0.89113590985E+02 0.  0.
          5    1    4    4  502    0 -0.17829942140E+02 -0.71493733220E+02  0.27823386119E+03  0.28786356532E+03  0.47000000000E+01 0. -1.
         -5    1    3    3    0  503  0.76475327201E+02  0.27707426825E+02  0.72831841550E+02  0.10928286378E+03  0.47000000000E+01 0.  1.
          5    1    3    3  503    0 -0.40340843066E+02  0.34881399198E+02  0.12190381117E+03  0.13314174705E+03  0.47000000000E+01 0.  1.
         -5    1    4    4    0  502 -0.18304541994E+02  0.89049071962E+01  0.11693679561E+02  0.23941298450E+02  0.47000000000E+01 0.  1.
<mgrwt>
<rscale>  0 0.13632379E+03</rscale>
<asrwt>0</asrwt>
<pdfrwt beam="1">  1        1 0.79914815E-01 0.14438739E+03</pdfrwt>
<pdfrwt beam="2">  1       -1 0.53512528E-02 0.14438739E+03</pdfrwt>
<totfact> 0.65653608E+03</totfact>
</mgrwt>
</event>
<event>
 8    1  0.3629925E-004  0.1352893E+03  0.7546771E-02  0.1232658E+00
          1   -1    0    0  501    0  0.00000000000E+00  0.00000000000E+00  0.10279270476E+04  0.10279270476E+04  0.00000000000E+00 0. -1.
         -1   -1    0    0    0  501 -0.00000000000E+00 -0.00000000000E+00 -0.13970291187E+02  0.13970291187E+02  0.00000000000E+00 0.  1.
         25    2    1    2    0    0  0.27728396377E+02  0.43691775677E+02  0.61560663624E+03  0.63029732083E+03  0.12500138736E+03 0.  0.
         23    2    1    2    0    0 -0.27728396377E+02 -0.43691775677E+02  0.39835012017E+03  0.41160001795E+03  0.89743642165E+02 0.  0.
          5    1    3    3  502    0 -0.38061394541E+02 -0.46554614559E+01  0.35660760564E+03  0.35869404438E+03  0.47000000000E+01 0. -1.
         -5    1    3    3    0  502  0.65789790918E+02  0.48347237133E+02  0.25899903060E+03  0.27160327645E+03  0.47000000000E+01 0. -1.
          5    1    4    4  503    0  0.64320283858E+01 -0.50043359397E+02  0.33821210617E+03  0.34198717457E+03  0.47000000000E+01 0. -1.
         -5    1    4    4    0  503 -0.34160424763E+02  0.63515837206E+01  0.60138013995E+02  0.69612843377E+02  0.47000000000E+01 0.  1.
<mgrwt>
<rscale>  0 0.12655559E+03</rscale>
<asrwt>0</asrwt>
<pdfrwt beam="1">  1        1 0.15814256E+00 0.13528925E+03</pdfrwt>
<pdfrwt beam="2">  1       -1 0.21492764E-02 0.13528925E+03</pdfrwt>
<totfact> 0.90862683E+03</totfact>
</mgrwt>
</event>
<event>
 8    1  0.3629925E-004  0.2471088E+03  0.7546771E-02  0.1117842E+00
          3   -1    0    0  501    0  0.00000000000E+00  0.00000000000E+00  0.99302352781E+02  0.99302352781E+02  0.00000000000E+00 0. -1.
         -3   -1    0    0    0  501 -0.00000000000E+00 -0.00000000000E+00 -0.12087687236E+04  0.12087687236E+04  0.00000000000E+00 0.  1.
         25    2    1    2    0    0  0.10622671969E+03 -0.18479479576E+03 -0.90321994497E+02  0.26309846094E+03  0.12501801848E+03 0.  0.
         23    2    1    2    0    0 -0.10622671969E+03  0.18479479576E+03 -0.10191443763E+04  0.10449726154E+04  0.88765278741E+02 0.  0.
          5    1    3    3  502    0  0.99176352046E+02 -0.14996311270E+03 -0.12029247354E+03  0.21637294925E+03  0.47000000000E+01 0. -1.
         -5    1    3    3    0  502  0.70503676409E+01 -0.34831683063E+02  0.29970479045E+02  0.46725511694E+02  0.47000000000E+01 0. -1.
          5    1    4    4  503    0 -0.10014603505E+03  0.13817436793E+03 -0.62111322339E+03  0.64414680824E+03  0.47000000000E+01 0. -1.
         -5    1    4    4    0  503 -0.60806846409E+01  0.46620427833E+02 -0.39803115288E+03  0.40082580716E+03  0.47000000000E+01 0.  1.
<mgrwt>
<rscale>  0 0.24295159E+03</rscale>
<asrwt>0</asrwt>
<pdfrwt beam="1">  1        3 0.15277285E-01 0.24710876E+03</pdfrwt>
<pdfrwt beam="2">  1       -3 0.18596442E+00 0.24710876E+03</pdfrwt>
<totfact> 0.17327329E+01</totfact>
</mgrwt>
</event>
<event>
 8    1  0.3629925E-004  0.1408189E+03  0.7546771E-02  0.1223200E+00
          1   -1    0    0  501    0  0.00000000000E+00  0.00000000000E+00  0.82710486730E+03  0.82710486730E+03  0.00000000000E+00 0. -1.
         -1   -1    0    0    0  501 -0.00000000000E+00 -0.00000000000E+00 -0.19314541618E+02  0.19314541618E+02  0.00000000000E+00 0.  1.
         25    2    1    2    0    0 -0.61966551556E+02 -0.19177227304E+02  0.43299035245E+03  0.45531373703E+03  0.12498933658E+03 0.  0.
         23    2    1    2    0    0  0.61966551556E+02  0.19177227304E+02  0.37479997323E+03  0.39110567188E+03  0.91000038931E+02 0.  0.
          5    1    4    4  502    0  0.32395495962E+02  0.54352050310E+02  0.25316490221E+03  0.26099458087E+03  0.47000000000E+01 0. -1.
         -5    1    4    4    0  502  0.29571055594E+02 -0.35174823006E+02  0.12163507102E+03  0.13011109101E+03  0.47000000000E+01 0.  1.
          5    1    3    3  503    0 -0.44833555955E+02 -0.51209092110E+02  0.40075413940E+03  0.40651985081E+03  0.47000000000E+01 0. -1.
         -5    1    3    3    0  503 -0.17132995601E+02  0.32031864806E+02  0.32236213044E+02  0.48793886222E+02  0.47000000000E+01 0. -1.
<mgrwt>
<rscale>  0 0.13291071E+03</rscale>
<asrwt>0</asrwt>
<pdfrwt beam="1">  1        1 0.12724688E+00 0.14081887E+03</pdfrwt>
<pdfrwt beam="2">  1       -1 0.29714686E-02 0.14081887E+03</pdfrwt>
<totfact> 0.80876975E+03</totfact>
</mgrwt>
</event>
<event>
 8    1  0.3629925E-004  0.1791368E+03  0.7546771E-02  0.1174425E+00
         -1   -1    0    0    0  501 -0.00000000000E+00  0.00000000000E+00  0.35322097499E+02  0.35322097499E+02  0.00000000000E+00 0.  1.
          1   -1    0    0  501    0  0.00000000000E+00 -0.00000000000E+00 -0.80624871061E+03  0.80624871061E+03  0.00000000000E+00 0. -1.
         25    2    1    2    0    0 -0.11314216312E+02 -0.12781105504E+03 -0.44856236324E+03  0.48300951513E+03  0.12500528271E+03 0.  0.
         23    2    1    2    0    0  0.11314216312E+02  0.12781105504E+03 -0.32236424987E+03  0.35856129298E+03  0.90464434715E+02 0.  0.
          5    1    4    4  502    0  0.45225049044E+02  0.10823450136E+03 -0.23409353550E+03  0.26188143445E+03  0.47000000000E+01 0. -1.
         -5    1    3    3    0  503 -0.35050430908E+02 -0.87395697182E+02 -0.12783183800E+03  0.15883831213E+03  0.47000000000E+01 0.  1.
          5    1    3    3  503    0  0.23736214597E+02 -0.40415357860E+02 -0.32073052524E+03  0.32417120300E+03  0.47000000000E+01 0.  1.
         -5    1    4    4    0  502 -0.33910832732E+02  0.19576553683E+02 -0.88270714368E+02  0.96679858532E+02  0.47000000000E+01 0.  1.
<mgrwt>
<rscale>  0 0.17332461E+03</rscale>
<asrwt>0</asrwt>
<pdfrwt beam="1">  1        1 0.12403826E+00 0.17913681E+03</pdfrwt>
<pdfrwt beam="2">  1       -1 0.54341692E-02 0.17913681E+03</pdfrwt>
<totfact> 0.34879887E+03</totfact>
</mgrwt>
</event>
<event>
 8    1  0.3629925E-004  0.1694526E+03  0.7546771E-02  0.1184482E+00
          1   -1    0    0  501    0  0.00000000000E+00  0.00000000000E+00  0.10246245494E+04  0.10246245494E+04  0.00000000000E+00 0. -1.
         -1   -1    0    0    0  501 -0.00000000000E+00 -0.00000000000E+00 -0.27240464798E+02  0.27240464798E+02  0.00000000000E+00 0.  1.
         25    2    1    2    0    0  0.53683459483E+02 -0.10103270190E+03  0.36506867082E+03  0.40247895297E+03  0.12499860996E+03 0.  0.
         23    2    1    2    0    0 -0.53683459483E+02  0.10103270190E+03  0.63231541374E+03  0.64938606119E+03  0.93754751002E+02 0.  0.
          5    1    3    3  502    0  0.26593432291E+02 -0.80816692619E+01  0.25189957679E+03  0.25347191325E+03  0.47000000000E+01 0.  1.
         -5    1    4    4    0  503  0.23959336856E+02  0.32631616959E+02  0.24940497037E+03  0.25271288352E+03  0.47000000000E+01 0. -1.
          5    1    4    4  503    0 -0.77642796339E+02  0.68401084944E+02  0.38291044337E+03  0.39667317768E+03  0.47000000000E+01 0.  1.
         -5    1    3    3    0  502  0.27090027192E+02 -0.92951032641E+02  0.11316909403E+03  0.14900703972E+03  0.47000000000E+01 0.  1.
<mgrwt>
<rscale>  0 0.16379126E+03</rscale>
<asrwt>0</asrwt>
<pdfrwt beam="1">  1        1 0.15763452E+00 0.16945257E+03</pdfrwt>
<pdfrwt beam="2">  1       -1 0.41908415E-02 0.16945257E+03</pdfrwt>
<totfact> 0.34760096E+03</totfact>
</mgrwt>
</event>
<event>
 8    1  0.3629925E-004  0.1664051E+03  0.7546771E-02  0.1187985E+00
          1   -1    0    0  501    0  0.00000000000E+00  0.00000000000E+00  0.55947995507E+03  0.55947995507E+03  0.00000000000E+00 0. -1.
         -1   -1    0    0    0  501 -0.00000000000E+00 -0.00000000000E+00 -0.48355433880E+02  0.48355433880E+02  0.00000000000E+00 0.  1.
         25    2    1    2    0    0  0.34691930796E+02 -0.10424221838E+03  0.17253716950E+03  0.23970758076E+03  0.12498271585E+03 0.  0.
         23    2    1    2    0    0 -0.34691930796E+02  0.10424221838E+03  0.33858735169E+03  0.36812780818E+03  0.93844116917E+02 0.  0.
          5    1    4    4  502    0  0.75526796493E+01  0.28162236721E+02  0.21433306152E+03  0.21635828112E+03  0.47000000000E+01 0. -1.
         -5    1    4    4    0  502 -0.42244610445E+02  0.76079981662E+02  0.12425429017E+03  0.15176952707E+03  0.47000000000E+01 0.  1.
          5    1    3    3  503    0  0.66189912998E+02 -0.10241552969E+02  0.68102889375E+02  0.95635179359E+02  0.47000000000E+01 0.  1.
         -5    1    3    3    0  503 -0.31497982202E+02 -0.94000665414E+02  0.10443428013E+03  0.14407240140E+03  0.47000000000E+01 0.  1.
<mgrwt>
<rscale>  0 0.16063221E+03</rscale>
<asrwt>0</asrwt>
<pdfrwt beam="1">  1        1 0.86073834E-01 0.16640508E+03</pdfrwt>
<pdfrwt beam="2">  1       -1 0.74392979E-02 0.16640508E+03</pdfrwt>
<totfact> 0.36556230E+03</totfact>
</mgrwt>
</event>
<event>
 8    1  0.3629925E-004  0.1691953E+03  0.7546771E-02  0.1184913E+00
          2   -1    0    0  501    0  0.00000000000E+00  0.00000000000E+00  0.75177501310E+03  0.75177501310E+03  0.00000000000E+00 0. -1.
         -2   -1    0    0    0  501 -0.00000000000E+00 -0.00000000000E+00 -0.53931847408E+02  0.53931847408E+02  0.00000000000E+00 0.  1.
         25    2    1    2    0    0 -0.40437928708E+02 -0.10661278694E+03  0.11501942463E+03  0.20458863230E+03  0.12500211201E+03 0.  0.
         23    2    1    2    0    0  0.40437928708E+02  0.10661278694E+03  0.58282374106E+03  0.60111822821E+03  0.93048905023E+02 0.  0.
          5    1    3    3  502    0 -0.58906002326E+02 -0.12725587238E+03  0.88064472675E+02  0.16565450646E+03  0.47000000000E+01 0. -1.
         -5    1    4    4    0  503  0.67254544309E+02  0.58454461942E+02  0.41229814388E+03  0.42184351044E+03  0.47000000000E+01 0.  1.
          5    1    4    4  503    0 -0.26816615602E+02  0.48158324997E+02  0.17052559718E+03  0.17927471778E+03  0.47000000000E+01 0. -1.
         -5    1    3    3    0  502  0.18468073618E+02  0.20643085436E+02  0.26954951957E+02  0.38934125835E+02  0.47000000000E+01 0. -1.
<mgrwt>
<rscale>  0 0.16339829E+03</rscale>
<asrwt>0</asrwt>
<pdfrwt beam="1">  1        2 0.11565769E+00 0.16919527E+03</pdfrwt>
<pdfrwt beam="2">  1       -2 0.82972078E-02 0.16919527E+03</pdfrwt>
<totfact> 0.33747756E+03</totfact>
</mgrwt>
</event>
<event>
 8    1  0.3629925E-004  0.2693591E+03  0.7546771E-02  0.1103717E+00
         -2   -1    0    0    0  501 -0.00000000000E+00  0.00000000000E+00  0.21805571534E+03  0.21805571534E+03  0.00000000000E+00 0.  1.
          2   -1    0    0  501    0  0.00000000000E+00 -0.00000000000E+00 -0.46057881522E+03  0.46057881522E+03  0.00000000000E+00 0. -1.
         25    2    1    2    0    0 -0.11598447624E+03  0.20851642835E+03 -0.31377785779E+03  0.41353462004E+03  0.12499135296E+03 0.  0.
         23    2    1    2    0    0  0.11598447624E+03 -0.20851642835E+03  0.71254757914E+02  0.26509991052E+03  0.90935264953E+02 0.  0.
          5    1    3    3  502    0  0.81342212047E+01  0.81468067237E+02 -0.15450639402E+03  0.17492148904E+03  0.47000000000E+01 0.  1.
         -5    1    4    4    0  503  0.93548743481E+02 -0.76673451283E+02  0.25761359229E+02  0.12375751762E+03  0.47000000000E+01 0.  1.
          5    1    4    4  503    0  0.22435732758E+02 -0.13184297707E+03  0.45493398685E+02  0.14134239290E+03  0.47000000000E+01 0. -1.
         -5    1    3    3    0  502 -0.12411869744E+03  0.12704836111E+03 -0.15927146377E+03  0.23861313101E+03  0.47000000000E+01 0.  1.
<mgrwt>
<rscale>  0 0.26578491E+03</rscale>
<asrwt>0</asrwt>
<pdfrwt beam="1">  1        2 0.70858278E-01 0.26935912E+03</pdfrwt>
<pdfrwt beam="2">  1       -2 0.33547034E-01 0.26935912E+03</pdfrwt>
<totfact> 0.57043603E+02</totfact>
</mgrwt>
</event>
<event>
 8    1  0.3629925E-004  0.1956769E+03  0.7546771E-02  0.1157981E+00
          4   -1    0    0  501    0  0.00000000000E+00  0.00000000000E+00  0.46837291407E+02  0.46837291407E+02  0.00000000000E+00 0. -1.
         -4   -1    0    0    0  501 -0.00000000000E+00 -0.00000000000E+00 -0.84558802485E+03  0.84558802485E+03  0.00000000000E+00 0.  1.
         25    2    1    2    0    0 -0.10320133152E+03  0.10961663731E+03 -0.25816873521E+03  0.32394528908E+03  0.12499252969E+03 0.  0.
         23    2    1    2    0    0  0.10320133152E+03 -0.10961663731E+03 -0.54058199824E+03  0.56848002718E+03  0.90963302946E+02 0.  0.
          5    1    4    4  502    0  0.11339776262E+03 -0.67332741016E+02 -0.41698205012E+03  0.43736583166E+03  0.47000000000E+01 0. -1.
         -5    1    3    3    0  503 -0.11389796891E+03  0.33711204629E+02 -0.15604496607E+03  0.19616654678E+03  0.47000000000E+01 0. -1.
          5    1    3    3  503    0  0.10696637392E+02  0.75905432677E+02 -0.10212376914E+03  0.12777874231E+03  0.47000000000E+01 0. -1.
         -5    1    4    4    0  502 -0.10196431102E+02 -0.42283896290E+02 -0.12359994812E+03  0.13111419552E+03  0.47000000000E+01 0.  1.
<mgrwt>
<rscale>  0 0.19053329E+03</rscale>
<asrwt>0</asrwt>
<pdfrwt beam="1">  1        4 0.72057369E-02 0.19567691E+03</pdfrwt>
<pdfrwt beam="2">  1       -4 0.13009047E+00 0.19567691E+03</pdfrwt>
<totfact> 0.10596480E+02</totfact>
</mgrwt>
</event>
<event>
 8    1  0.3629925E-004  0.1731488E+03  0.7546771E-02  0.1180696E+00
         -4   -1    0    0    0  501 -0.00000000000E+00  0.00000000000E+00  0.80848818431E+02  0.80848818431E+02  0.00000000000E+00 0.  1.
          4   -1    0    0  501    0  0.00000000000E+00 -0.00000000000E+00 -0.33290477599E+03  0.33290477599E+03  0.00000000000E+00 0. -1.
         25    2    1    2    0    0 -0.29462331390E+02  0.11613323482E+03 -0.16685579712E+03  0.24046075849E+03  0.12500224852E+03 0.  0.
         23    2    1    2    0    0  0.29462331390E+02 -0.11613323482E+03 -0.85200160434E+02  0.17329283594E+03  0.91740843940E+02 0.  0.
          5    1    3    3  502    0  0.26425019396E+02  0.63281428610E+02 -0.14482540665E+03  0.16031004107E+03  0.47000000000E+01 0.  1.
         -5    1    4    4    0  503  0.25887975020E+01 -0.52007029887E+02  0.12047859937E+02  0.53653275382E+02  0.47000000000E+01 0.  1.
          5    1    4    4  503    0  0.26873533888E+02 -0.64126204938E+02 -0.97248020371E+02  0.11963956055E+03  0.47000000000E+01 0. -1.
         -5    1    3    3    0  502 -0.55887350785E+02  0.52851806215E+02 -0.22030390479E+02  0.80150717418E+02  0.47000000000E+01 0.  1.
<mgrwt>
<rscale>  0 0.16729704E+03</rscale>
<asrwt>0</asrwt>
<pdfrwt beam="1">  1        4 0.51216120E-01 0.17314884E+03</pdfrwt>
<pdfrwt beam="2">  1       -4 0.12438280E-01 0.17314884E+03</pdfrwt>
<totfact> 0.33505302E+02</totfact>
</mgrwt>
</event>
<event>
 8    1  0.3629925E-004  0.1622687E+03  0.7546771E-02  0.1194627E+00
         -1   -1    0    0    0  501 -0.00000000000E+00  0.00000000000E+00  0.65623768414E+02  0.65623768414E+02  0.00000000000E+00 0.  1.
          1   -1    0    0  501    0  0.00000000000E+00 -0.00000000000E+00 -0.39895638787E+03  0.39895638787E+03  0.00000000000E+00 0. -1.
         25    2    1    2    0    0  0.10005828482E+03  0.26348552320E+02 -0.27187099363E+03  0.31661485548E+03  0.12500089185E+03 0.  0.
         23    2    1    2    0    0 -0.10005828482E+03 -0.26348552320E+02 -0.61461625818E+02  0.14796530080E+03  0.86083054204E+02 0.  0.
          5    1    3    3  502    0  0.60651781375E+02  0.70354276782E+02 -0.10893929400E+03  0.14324183266E+03  0.47000000000E+01 0. -1.
         -5    1    3    3    0  502  0.39406503444E+02 -0.44005724462E+02 -0.16293169963E+03  0.17337302283E+03  0.47000000000E+01 0. -1.
          5    1    4    4  503    0 -0.30174330277E+02 -0.51740121580E+02 -0.28500670733E+02  0.66497433191E+02  0.47000000000E+01 0. -1.
         -5    1    4    4    0  503 -0.69883954543E+02  0.25391569260E+02 -0.32960955086E+02  0.81467867605E+02  0.47000000000E+01 0.  1.
<mgrwt>
<rscale>  0 0.15485828E+03</rscale>
<asrwt>0</asrwt>
<pdfrwt beam="1">  1        1 0.61377905E-01 0.16226870E+03</pdfrwt>
<pdfrwt beam="2">  1       -1 0.10095965E-01 0.16226870E+03</pdfrwt>
<totfact> 0.35634290E+03</totfact>
</mgrwt>
</event>
<event>
 8    1  0.3629925E-004  0.2436387E+03  0.7546771E-02  0.1120486E+00
          1   -1    0    0  501    0  0.00000000000E+00  0.00000000000E+00  0.79564510371E+03  0.79564510371E+03  0.00000000000E+00 0. -1.
         -1   -1    0    0    0  501 -0.00000000000E+00 -0.00000000000E+00 -0.72275468504E+02  0.72275468504E+02  0.00000000000E+00 0.  1.
         25    2    1    2    0    0 -0.14359006512E+03  0.15203942506E+03  0.46535365881E+03  0.52527503490E+03  0.12500296373E+03 0.  0.
         23    2    1    2    0    0  0.14359006512E+03 -0.15203942506E+03  0.25801597640E+03  0.34264553732E+03  0.84259281957E+02 0.  0.
          5    1    4    4  502    0  0.26338445710E+02 -0.31319004140E+02  0.11359598130E+03  0.12083348340E+03  0.47000000000E+01 0. -1.
         -5    1    3    3    0  503 -0.61732948665E+02  0.25344946579E+01  0.20411928763E+03  0.21331702744E+03  0.47000000000E+01 0. -1.
          5    1    3    3  503    0 -0.81857116458E+02  0.14950493040E+03  0.26123437119E+03  0.31195800746E+03  0.47000000000E+01 0. -1.
         -5    1    4    4    0  502  0.11725161941E+03 -0.12072042092E+03  0.14441999510E+03  0.22181205392E+03  0.47000000000E+01 0.  1.
<mgrwt>
<rscale>  0 0.23896194E+03</rscale>
<asrwt>0</asrwt>
<pdfrwt beam="1">  1        1 0.12240693E+00 0.24363874E+03</pdfrwt>
<pdfrwt beam="2">  1       -1 0.11119303E-01 0.24363874E+03</pdfrwt>
<totfact> 0.12011236E+03</totfact>
</mgrwt>
</event>
<event>
 8    1  0.3629925E-004  0.1793920E+03  0.7546771E-02  0.1173722E+00
          2   -1    0    0  501    0  0.00000000000E+00  0.00000000000E+00  0.12987723178E+03  0.12987723178E+03  0.00000000000E+00 0. -1.
         -2   -1    0    0    0  501 -0.00000000000E+00 -0.00000000000E+00 -0.26552088293E+03  0.26552088293E+03  0.00000000000E+00 0.  1.
         25    2    1    2    0    0  0.10345326667E+03 -0.76511454989E+02 -0.15278468878E+03  0.23563672583E+03  0.12499969722E+03 0.  0.
         23    2    1    2    0    0 -0.10345326667E+03  0.76511454989E+02  0.17141037632E+02  0.15976138887E+03  0.93130580769E+02 0.  0.
          5    1    4    4  502    0 -0.65299908425E+02  0.37772441114E+01  0.36771560531E+02  0.75183663633E+02  0.47000000000E+01 0. -1.
         -5    1    4    4    0  502 -0.38153358242E+02  0.72734210878E+02 -0.19630522899E+02  0.84577725238E+02  0.47000000000E+01 0.  1.
          5    1    3    3  503    0  0.11659812963E+03 -0.38707569863E+02 -0.15177751060E+03  0.19532512005E+03  0.47000000000E+01 0.  1.
         -5    1    3    3    0  503 -0.13144862965E+02 -0.37803885127E+02 -0.10071781840E+01  0.40311605784E+02  0.47000000000E+01 0.  1.
<mgrwt>
<rscale>  0 0.17401705E+03</rscale>
<asrwt>0</asrwt>
<pdfrwt beam="1">  1        2 0.19981113E-01 0.17939204E+03</pdfrwt>
<pdfrwt beam="2">  1       -2 0.40849367E-01 0.17939204E+03</pdfrwt>
<totfact> 0.15673578E+03</totfact>
</mgrwt>
</event>
<event>
 8    1  0.3629925E-004  0.1279648E+03  0.7546771E-02  0.1245745E+00
         -1   -1    0    0    0  501 -0.00000000000E+00  0.00000000000E+00  0.31136302350E+02  0.31136302350E+02  0.00000000000E+00 0.  1.
          1   -1    0    0  501    0  0.00000000000E+00 -0.00000000000E+00 -0.47923122311E+03  0.47923122311E+03  0.00000000000E+00 0. -1.
         25    2    1    2    0    0  0.42497258846E+01  0.27028086170E+02 -0.35845782096E+03  0.38061397125E+03  0.12500563224E+03 0.  0.
         23    2    1    2    0    0 -0.42497258846E+01 -0.27028086170E+02 -0.89637099803E+02  0.12975355421E+03  0.89736266676E+02 0.  0.
          5    1    3    3  502    0 -0.38859156671E+02  0.45293097755E+02 -0.90177537461E+02  0.10823851913E+03  0.47000000000E+01 0.  1.
         -5    1    4    4    0  503  0.32219266128E+02  0.11593402257E+02 -0.14187519505E+02  0.37361260624E+02  0.47000000000E+01 0.  1.
          5    1    4    4  503    0 -0.36468992013E+02 -0.38621488427E+02 -0.75449580299E+02  0.92392293586E+02  0.47000000000E+01 0. -1.
         -5    1    3    3    0  502  0.43108882555E+02 -0.18265011585E+02 -0.26828028350E+03  0.27237545212E+03  0.47000000000E+01 0.  1.
<mgrwt>
<rscale>  0 0.11840920E+03</rscale>
<asrwt>0</asrwt>
<pdfrwt beam="1">  1        1 0.73727872E-01 0.12796478E+03</pdfrwt>
<pdfrwt beam="2">  1       -1 0.47902009E-02 0.12796478E+03</pdfrwt>
<totfact> 0.85272687E+03</totfact>
</mgrwt>
</event>
<event>
 8    1  0.3629925E-004  0.1856607E+03  0.7546771E-02  0.1167593E+00
          2   -1    0    0  501    0  0.00000000000E+00  0.00000000000E+00  0.44426986736E+03  0.44426986736E+03  0.00000000000E+00 0.  1.
         -2   -1    0    0    0  501 -0.00000000000E+00 -0.00000000000E+00 -0.75307248510E+02  0.75307248510E+02  0.00000000000E+00 0. -1.
         25    2    1    2    0    0 -0.13176564267E+03  0.38509283398E+02  0.12023673861E+03  0.22119395628E+03  0.12499897395E+03 0.  0.
         23    2    1    2    0    0  0.13176564267E+03 -0.38509283398E+02  0.24872588023E+03  0.29838315958E+03  0.91229364404E+02 0.  0.
          5    1    4    4  502    0  0.11568842014E+03 -0.57181558902E+01  0.13048723372E+03  0.17454373671E+03  0.47000000000E+01 0. -1.
         -5    1    4    4    0  502  0.16077222525E+02 -0.32791127508E+02  0.11823864652E+03  0.12383942287E+03  0.47000000000E+01 0.  1.
          5    1    3    3  503    0 -0.63387432480E+02  0.44734135687E+02 -0.54315747764E+01  0.77914706549E+02  0.47000000000E+01 0.  1.
         -5    1    3    3    0  503 -0.68378210187E+02 -0.62248522888E+01  0.12566831339E+03  0.14327924974E+03  0.47000000000E+01 0.  1.
<mgrwt>
<rscale>  0 0.18021755E+03</rscale>
<asrwt>0</asrwt>
<pdfrwt beam="1">  1        2 0.68349208E-01 0.18566069E+03</pdfrwt>
<pdfrwt beam="2">  1       -2 0.11585731E-01 0.18566069E+03</pdfrwt>
<totfact> 0.36528103E+03</totfact>
</mgrwt>
</event>
<event>
 8    1  0.3629925E-004  0.1521404E+03  0.7546771E-02  0.1209224E+00
         -2   -1    0    0    0  501 -0.00000000000E+00  0.00000000000E+00  0.32569292825E+02  0.32569292825E+02  0.00000000000E+00 0.  1.
          2   -1    0    0  501    0  0.00000000000E+00 -0.00000000000E+00 -0.62649020126E+03  0.62649020126E+03  0.00000000000E+00 0. -1.
         25    2    1    2    0    0 -0.63962776797E+02 -0.58571147630E+02 -0.22669515647E+03  0.27301535235E+03  0.12499949002E+03 0.  0.
         23    2    1    2    0    0  0.63962776797E+02  0.58571147630E+02 -0.36722575197E+03  0.38604414173E+03  0.81569052370E+02 0.  0.
          5    1    4    4  502    0 -0.15876278367E+02  0.14760887629E+02 -0.13030891844E+03  0.13218337355E+03  0.47000000000E+01 0. -1.
         -5    1    3    3    0  503 -0.24364947505E+02  0.64510367125E+01  0.74988634663E+01  0.26713095943E+02  0.47000000000E+01 0. -1.
          5    1    3    3  503    0 -0.39597829293E+02 -0.65022184342E+02 -0.23419401993E+03  0.24630225641E+03  0.47000000000E+01 0. -1.
         -5    1    4    4    0  502  0.79839055165E+02  0.43810260001E+02 -0.23691683353E+03  0.25386076818E+03  0.47000000000E+01 0.  1.
<mgrwt>
<rscale>  0 0.14309517E+03</rscale>
<asrwt>0</asrwt>
<pdfrwt beam="1">  1        2 0.96383101E-01 0.15214036E+03</pdfrwt>
<pdfrwt beam="2">  1       -2 0.50106608E-02 0.15214036E+03</pdfrwt>
<totfact> 0.90234146E+03</totfact>
</mgrwt>
</event>
<event>
 8    1  0.3629925E-004  0.1486563E+03  0.7546771E-02  0.1211308E+00
          1   -1    0    0  501    0  0.00000000000E+00  0.00000000000E+00  0.30179126559E+03  0.30179126559E+03  0.00000000000E+00 0. -1.
         -1   -1    0    0    0  501 -0.00000000000E+00 -0.00000000000E+00 -0.92479912028E+02  0.92479912028E+02  0.00000000000E+00 0.  1.
         25    2    1    2    0    0  0.80191389283E+02 -0.65380287734E+01  0.22656712994E+03  0.27098219859E+03  0.12500113137E+03 0.  0.
         23    2    1    2    0    0 -0.80191389283E+02  0.65380287734E+01 -0.17255776385E+02  0.12328897903E+03  0.91809617121E+02 0.  0.
          5    1    3    3  502    0  0.58059585567E+02  0.56462627306E+02  0.13607885727E+03  0.15842502692E+03  0.47000000000E+01 0.  1.
         -5    1    4    4    0  503 -0.49069903440E+02 -0.16973175529E+02 -0.49932498742E+02  0.72189255030E+02  0.47000000000E+01 0.  1.
          5    1    4    4  503    0 -0.31121485843E+02  0.23511204302E+02  0.32676722356E+02  0.51099723999E+02  0.47000000000E+01 0. -1.
         -5    1    3    3    0  502  0.22131803716E+02 -0.63000656079E+02  0.90488272678E+02  0.11255717167E+03  0.47000000000E+01 0.  1.
<mgrwt>
<rscale>  0 0.14151240E+03</rscale>
<asrwt>0</asrwt>
<pdfrwt beam="1">  1        1 0.46429425E-01 0.14865627E+03</pdfrwt>
<pdfrwt beam="2">  1       -1 0.14227679E-01 0.14865627E+03</pdfrwt>
<totfact> 0.29608664E+03</totfact>
</mgrwt>
</event>
<event>
 8    1  0.3629925E-004  0.1347764E+03  0.7546771E-02  0.1233422E+00
         -2   -1    0    0    0  501 -0.00000000000E+00  0.00000000000E+00  0.89090237365E+02  0.89090237365E+02  0.00000000000E+00 0.  1.
          2   -1    0    0  501    0  0.00000000000E+00 -0.00000000000E+00 -0.15982154744E+03  0.15982154744E+03  0.00000000000E+00 0. -1.
         25    2    1    2    0    0 -0.41405082825E+02  0.28780919491E+02 -0.49651601671E+02  0.14363135665E+03  0.12498785083E+03 0.  0.
         23    2    1    2    0    0  0.41405082825E+02 -0.28780919491E+02 -0.21079708406E+02  0.10528042816E+03  0.89982732989E+02 0.  0.
          5    1    4    4  502    0 -0.50754935035E+01  0.19788947299E+02  0.17780244200E+02  0.27488000169E+02  0.47000000000E+01 0. -1.
         -5    1    4    4    0  502  0.46480576328E+02 -0.48569866790E+02 -0.38859952606E+02  0.77792427989E+02  0.47000000000E+01 0.  1.
          5    1    3    3  503    0  0.13701363722E+02  0.50917357092E+02  0.15686108147E+02  0.55212757673E+02  0.47000000000E+01 0. -1.
         -5    1    3    3    0  503 -0.55106446547E+02 -0.22136437601E+02 -0.65337709818E+02  0.88418598976E+02  0.47000000000E+01 0. -1.
<mgrwt>
<rscale>  0 0.12605968E+03</rscale>
<asrwt>0</asrwt>
<pdfrwt beam="1">  1        2 0.24587930E-01 0.13477643E+03</pdfrwt>
<pdfrwt beam="2">  1       -2 0.13706190E-01 0.13477643E+03</pdfrwt>
<totfact> 0.82342292E+03</totfact>
</mgrwt>
</event>
<event>
 8    1  0.3629925E-004  0.1835756E+03  0.7546771E-02  0.1169843E+00
         -1   -1    0    0    0  501 -0.00000000000E+00  0.00000000000E+00  0.46548806418E+02  0.46548806418E+02  0.00000000000E+00 0.  1.
          1   -1    0    0  501    0  0.00000000000E+00 -0.00000000000E+00 -0.66741799279E+03  0.66741799279E+03  0.00000000000E+00 0. -1.
         25    2    1    2    0    0  0.71332194804E+02 -0.11396397780E+03 -0.39981115187E+03  0.43994200835E+03  0.12499577312E+03 0.  0.
         23    2    1    2    0    0 -0.71332194804E+02  0.11396397780E+03 -0.22105803450E+03  0.27402479086E+03  0.90259964185E+02 0.  0.
          5    1    4    4  502    0  0.11452707550E+02  0.49495721061E+02 -0.10950327385E+03  0.12080582725E+03  0.47000000000E+01 0. -1.
         -5    1    3    3    0  503  0.94438871118E+01 -0.88998741049E+02 -0.33505905369E+03  0.34683803479E+03  0.47000000000E+01 0. -1.
          5    1    3    3  503    0  0.61888307692E+02 -0.24965236753E+02 -0.64752098177E+02  0.93103973564E+02  0.47000000000E+01 0. -1.
         -5    1    4    4    0  502 -0.82784902354E+02  0.64468256741E+02 -0.11155476065E+03  0.15321896361E+03  0.47000000000E+01 0.  1.
<mgrwt>
<rscale>  0 0.17790839E+03</rscale>
<asrwt>0</asrwt>
<pdfrwt beam="1">  1        1 0.10267969E+00 0.18357563E+03</pdfrwt>
<pdfrwt beam="2">  1       -1 0.71613551E-02 0.18357563E+03</pdfrwt>
<totfact> 0.30445024E+03</totfact>
</mgrwt>
</event>
<event>
 8    1  0.3629925E-004  0.2902880E+03  0.7546771E-02  0.1092127E+00
          2   -1    0    0  501    0  0.00000000000E+00  0.00000000000E+00  0.34005007420E+03  0.34005007420E+03  0.00000000000E+00 0.  1.
         -2   -1    0    0    0  501 -0.00000000000E+00 -0.00000000000E+00 -0.26585621387E+03  0.26585621387E+03  0.00000000000E+00 0. -1.
         25    2    1    2    0    0 -0.20899779000E+03  0.15799427313E+03 -0.64119473462E+02  0.29728511954E+03  0.12499947542E+03 0.  0.
         23    2    1    2    0    0  0.20899779000E+03 -0.15799427313E+03  0.13831333379E+03  0.30862116853E+03  0.86453344629E+02 0.  0.
          5    1    4    4  502    0  0.35653558603E+01 -0.34548334008E+02  0.87145836921E+01  0.36115552246E+02  0.47000000000E+01 0. -1.
         -5    1    4    4    0  502  0.20543243414E+03 -0.12344593912E+03  0.12959875010E+03  0.27250561629E+03  0.47000000000E+01 0.  1.
          5    1    3    3  503    0 -0.13762147142E+03  0.36454085291E+02 -0.19258259841E+00  0.14244541698E+03  0.47000000000E+01 0. -1.
         -5    1    3    3    0  503 -0.71376318581E+02  0.12154018784E+03 -0.63926890863E+02  0.15483970256E+03  0.47000000000E+01 0. -1.
<mgrwt>
<rscale>  0 0.28662010E+03</rscale>
<asrwt>0</asrwt>
<pdfrwt beam="1">  1        2 0.52315396E-01 0.29028802E+03</pdfrwt>
<pdfrwt beam="2">  1       -2 0.40900956E-01 0.29028802E+03</pdfrwt>
<totfact> 0.54657781E+02</totfact>
</mgrwt>
</event>
<event>
 8    1  0.3629925E-004  0.2462575E+03  0.7546771E-02  0.1118433E+00
         -1   -1    0    0    0  501 -0.00000000000E+00  0.00000000000E+00  0.15368484550E+03  0.15368484550E+03  0.00000000000E+00 0.  1.
          1   -1    0    0  501    0  0.00000000000E+00 -0.00000000000E+00 -0.42603855472E+03  0.42603855472E+03  0.00000000000E+00 0. -1.
         25    2    1    2    0    0 -0.12085855951E+03  0.17439845942E+03 -0.24645915663E+03  0.34840330908E+03  0.12498454240E+03 0.  0.
         23    2    1    2    0    0  0.12085855951E+03 -0.17439845942E+03 -0.25894552588E+02  0.23132009114E+03  0.88412910009E+02 0.  0.
          5    1    3    3  502    0 -0.13057363835E+03  0.10636267376E+03 -0.12883536838E+03  0.21209228074E+03  0.47000000000E+01 0.  1.
         -5    1    4    4    0  503  0.87255750902E+02 -0.16381966613E+03  0.27263008964E+01  0.18568783426E+03  0.47000000000E+01 0.  1.
          5    1    4    4  503    0  0.33602808604E+02 -0.10578793293E+02 -0.28620853485E+02  0.45632256878E+02  0.47000000000E+01 0. -1.
         -5    1    3    3    0  502  0.97150788452E+01  0.68035785657E+02 -0.11762378825E+03  0.13631102835E+03  0.47000000000E+01 0.  1.
<mgrwt>
<rscale>  0 0.24205321E+03</rscale>
<asrwt>0</asrwt>
<pdfrwt beam="1">  1        1 0.65544392E-01 0.24625749E+03</pdfrwt>
<pdfrwt beam="2">  1       -1 0.23643823E-01 0.24625749E+03</pdfrwt>
<totfact> 0.85520610E+02</totfact>
</mgrwt>
</event>
<event>
 8    1  0.3629925E-004  0.2400076E+03  0.7546771E-02  0.1122366E+00
         -1   -1    0    0    0  501 -0.00000000000E+00  0.00000000000E+00  0.12068227003E+03  0.12068227003E+03  0.00000000000E+00 0.  1.
          1   -1    0    0  501    0  0.00000000000E+00 -0.00000000000E+00 -0.44835267415E+03  0.44835267415E+03  0.00000000000E+00 0. -1.
         25    2    1    2    0    0 -0.95920822549E+02 -0.18104322353E+03 -0.16151833487E+03  0.28929539655E+03  0.12500480383E+03 0.  0.
         23    2    1    2    0    0  0.95920822549E+02  0.18104322353E+03 -0.16615206924E+03  0.27973954762E+03  0.93114184778E+02 0.  0.
          5    1    4    4  502    0  0.19296246789E+02  0.12054605570E+03 -0.12143018869E+03  0.17225294601E+03  0.47000000000E+01 0. -1.
         -5    1    4    4    0  502  0.76624575760E+02  0.60497167830E+02 -0.44721880554E+02  0.10748660161E+03  0.47000000000E+01 0.  1.
          5    1    3    3  503    0  0.27768717573E+02 -0.31971007373E+02 -0.50159537073E+02  0.65812735450E+02  0.47000000000E+01 0. -1.
         -5    1    3    3    0  503 -0.12368954012E+03 -0.14907221616E+03 -0.11135879780E+03  0.22348266110E+03  0.47000000000E+01 0. -1.
<mgrwt>
<rscale>  0 0.23617762E+03</rscale>
<asrwt>0</asrwt>
<pdfrwt beam="1">  1        1 0.68977333E-01 0.24000761E+03</pdfrwt>
<pdfrwt beam="2">  1       -1 0.18566503E-01 0.24000761E+03</pdfrwt>
<totfact> 0.11883835E+03</totfact>
</mgrwt>
</event>
<event>
 8    1  0.3629925E-004  0.1953382E+03  0.7546771E-02  0.1158129E+00
          1   -1    0    0  501    0  0.00000000000E+00  0.00000000000E+00  0.14836142244E+04  0.14836142244E+04  0.00000000000E+00 0. -1.
         -1   -1    0    0    0  501 -0.00000000000E+00 -0.00000000000E+00 -0.26177776981E+02  0.26177776981E+02  0.00000000000E+00 0.  1.
         25    2    1    2    0    0  0.96158911952E+02  0.11525562886E+03  0.51041233789E+03  0.54651421159E+03  0.12500652972E+03 0.  0.
         23    2    1    2    0    0 -0.96158911952E+02 -0.11525562886E+03  0.94702410957E+03  0.96327778983E+03  0.92298645389E+02 0.  0.
          5    1    4    4  502    0 -0.40954766718E+02 -0.11020673388E+03  0.55584975869E+03  0.56816710688E+03  0.47000000000E+01 0. -1.
         -5    1    3    3    0  503  0.96633140525E+02  0.63460481887E+02  0.19421562850E+03  0.22606856695E+03  0.47000000000E+01 0. -1.
          5    1    3    3  503    0 -0.47422857330E+00  0.51795146968E+02  0.31619670939E+03  0.32044564464E+03  0.47000000000E+01 0. -1.
         -5    1    4    4    0  502 -0.55204145234E+02 -0.50488949798E+01  0.39117435088E+03  0.39511068294E+03  0.47000000000E+01 0.  1.
<mgrwt>
<rscale>  0 0.19036941E+03</rscale>
<asrwt>0</asrwt>
<pdfrwt beam="1">  1        1 0.22824828E+00 0.19533824E+03</pdfrwt>
<pdfrwt beam="2">  1       -1 0.40273515E-02 0.19533824E+03</pdfrwt>
<totfact> 0.17881126E+03</totfact>
</mgrwt>
</event>
<event>
 8    1  0.3629925E-004  0.1747615E+03  0.7546771E-02  0.1178854E+00
          4   -1    0    0  501    0  0.00000000000E+00  0.00000000000E+00  0.18965182441E+03  0.18965182441E+03  0.00000000000E+00 0. -1.
         -4   -1    0    0    0  501 -0.00000000000E+00 -0.00000000000E+00 -0.17905641622E+03  0.17905641622E+03  0.00000000000E+00 0.  1.
         25    2    1    2    0    0 -0.35984968808E+02  0.11670499709E+03 -0.78610640410E+02  0.19162776801E+03  0.12500637728E+03 0.  0.
         23    2    1    2    0    0  0.35984968808E+02 -0.11670499709E+03  0.89206048603E+02  0.17708047262E+03  0.92112976001E+02 0.  0.
          5    1    3    3  502    0  0.18781755431E+02  0.10528382701E+03 -0.17200245455E+02  0.10842221640E+03  0.47000000000E+01 0. -1.
         -5    1    4    4    0  503  0.43613094905E+02 -0.25019633412E+02  0.24830368349E+01  0.50560256874E+02  0.47000000000E+01 0.  1.
          5    1    4    4  503    0 -0.76281260967E+01 -0.91685363682E+02  0.86723011768E+02  0.12652021574E+03  0.47000000000E+01 0. -1.
         -5    1    3    3    0  502 -0.54766724239E+02  0.11421170086E+02 -0.61410394955E+02  0.83205551609E+02  0.47000000000E+01 0. -1.
<mgrwt>
<rscale>  0 0.16903853E+03</rscale>
<asrwt>0</asrwt>
<pdfrwt beam="1">  1        4 0.29177204E-01 0.17476146E+03</pdfrwt>
<pdfrwt beam="2">  1       -4 0.27547141E-01 0.17476146E+03</pdfrwt>
<totfact> 0.24380344E+02</totfact>
</mgrwt>
</event>
<event>
 8    1  0.3629925E-004  0.1656545E+03  0.7546771E-02  0.1189895E+00
         -2   -1    0    0    0  501 -0.00000000000E+00  0.00000000000E+00  0.53142639260E+02  0.53142639260E+02  0.00000000000E+00 0.  1.
          2   -1    0    0  501    0  0.00000000000E+00 -0.00000000000E+00 -0.77080354934E+03  0.77080354934E+03  0.00000000000E+00 0. -1.
         25    2    1    2    0    0  0.10067018321E+03 -0.41010203293E+02 -0.10665934156E+03  0.19702187505E+03  0.12500032618E+03 0.  0.
         23    2    1    2    0    0 -0.10067018321E+03  0.41010203293E+02 -0.61100156852E+03  0.62692431355E+03  0.88853000078E+02 0.  0.
          5    1    3    3  502    0  0.31317371102E+02 -0.71839559195E+02 -0.18616910981E+02  0.80686921942E+02  0.47000000000E+01 0. -1.
         -5    1    4    4    0  503 -0.17410466909E+02  0.37610651289E+02 -0.88958800220E+02  0.98251939345E+02  0.47000000000E+01 0.  1.
          5    1    4    4  503    0 -0.83259716299E+02  0.33995520042E+01 -0.52204276830E+03  0.52867237421E+03  0.47000000000E+01 0. -1.
         -5    1    3    3    0  502  0.69352812106E+02  0.30829355902E+02 -0.88042430576E+02  0.11633495311E+03  0.47000000000E+01 0. -1.
<mgrwt>
<rscale>  0 0.15894301E+03</rscale>
<asrwt>0</asrwt>
<pdfrwt beam="1">  1        2 0.11858515E+00 0.16565447E+03</pdfrwt>
<pdfrwt beam="2">  1       -2 0.81757911E-02 0.16565447E+03</pdfrwt>
<totfact> 0.33462575E+03</totfact>
</mgrwt>
</event>
<event>
 8    1  0.3629925E-004  0.1255842E+03  0.7546771E-02  0.1248755E+00
         -1   -1    0    0    0  501 -0.00000000000E+00  0.00000000000E+00  0.71095968629E+02  0.71095968629E+02  0.00000000000E+00 0.  1.
          1   -1    0    0  501    0  0.00000000000E+00 -0.00000000000E+00 -0.26491261371E+03  0.26491261371E+03  0.00000000000E+00 0. -1.
         25    2    1    2    0    0 -0.98290156735E+01  0.70781522285E+01 -0.20652966484E+03  0.24171450376E+03  0.12499875632E+03 0.  0.
         23    2    1    2    0    0  0.98290156735E+01 -0.70781522285E+01  0.12713019761E+02  0.94294078575E+02  0.92644711639E+02 0.  0.
          5    1    3    3  502    0 -0.57076172836E+02 -0.30042496948E+02 -0.94645043584E+02  0.11462990624E+03  0.47000000000E+01 0.  1.
         -5    1    4    4    0  503  0.16033213249E+02  0.39225621852E+02  0.19444967732E+02  0.46860538909E+02  0.47000000000E+01 0.  1.
          5    1    4    4  503    0 -0.62041975757E+01 -0.46303774081E+02 -0.67319479712E+01  0.47433539665E+02  0.47000000000E+01 0. -1.
         -5    1    3    3    0  502  0.47247157163E+02  0.37120649177E+02 -0.11188462125E+03  0.12708459753E+03  0.47000000000E+01 0.  1.
<mgrwt>
<rscale>  0 0.11663438E+03</rscale>
<asrwt>0</asrwt>
<pdfrwt beam="1">  1        1 0.40755786E-01 0.12558423E+03</pdfrwt>
<pdfrwt beam="2">  1       -1 0.10937841E-01 0.12558423E+03</pdfrwt>
<totfact> 0.51801246E+03</totfact>
</mgrwt>
</event>
<event>
 8    1  0.3629925E-004  0.1725304E+03  0.7546771E-02  0.1181337E+00
          2   -1    0    0  501    0  0.00000000000E+00  0.00000000000E+00  0.92927305070E+02  0.92927305070E+02  0.00000000000E+00 0. -1.
         -2   -1    0    0    0  501 -0.00000000000E+00 -0.00000000000E+00 -0.35298162111E+03  0.35298162111E+03  0.00000000000E+00 0.  1.
         25    2    1    2    0    0  0.11731622567E+03 -0.19265571823E+02 -0.36262146224E+02  0.17630000878E+03  0.12502995955E+03 0.  0.
         23    2    1    2    0    0 -0.11731622567E+03  0.19265571823E+02 -0.22379216981E+03  0.26960891740E+03  0.92042240336E+02 0.  0.
          5    1    4    4  502    0 -0.10349353634E+03 -0.30247827746E+01 -0.10376871105E+03  0.14666320864E+03  0.47000000000E+01 0. -1.
         -5    1    4    4    0  502 -0.13822689328E+02  0.22290354598E+02 -0.12002345876E+03  0.12294570875E+03  0.47000000000E+01 0.  1.
          5    1    3    3  503    0  0.28818172619E+02  0.43871968601E+02 -0.41920196809E+02  0.67339658468E+02  0.47000000000E+01 0. -1.
         -5    1    3    3    0  503  0.88498053050E+02 -0.63137540424E+02  0.56580505851E+01  0.10896035032E+03  0.47000000000E+01 0. -1.
<mgrwt>
<rscale>  0 0.16669682E+03</rscale>
<asrwt>0</asrwt>
<pdfrwt beam="1">  1        2 0.14296508E-01 0.17253043E+03</pdfrwt>
<pdfrwt beam="2">  1       -2 0.54304865E-01 0.17253043E+03</pdfrwt>
<totfact> 0.13204828E+03</totfact>
</mgrwt>
</event>
<event>
 8    1  0.3629925E-004  0.1423025E+03  0.7546771E-02  0.1224535E+00
          1   -1    0    0  501    0  0.00000000000E+00  0.00000000000E+00  0.82295174745E+03  0.82295174745E+03  0.00000000000E+00 0. -1.
         -1   -1    0    0    0  501 -0.00000000000E+00 -0.00000000000E+00 -0.21665589858E+02  0.21665589858E+02  0.00000000000E+00 0.  1.
         25    2    1    2    0    0  0.28540503922E+02  0.61716319379E+02  0.60872656624E+03  0.62513840636E+03  0.12500612070E+03 0.  0.
         23    2    1    2    0    0 -0.28540503922E+02 -0.61716319379E+02  0.19255959135E+03  0.21947893095E+03  0.80425993736E+02 0.  0.
          5    1    4    4  502    0  0.98484422735E+01 -0.41837656360E+02  0.15835987994E+03  0.16415639762E+03  0.47000000000E+01 0. -1.
         -5    1    4    4    0  502 -0.38388946196E+02 -0.19878663019E+02  0.34199711406E+02  0.55322533326E+02  0.47000000000E+01 0.  1.
          5    1    3    3  503    0 -0.27140184567E+02 -0.22664472874E+02  0.24542915942E+03  0.24800772214E+03  0.47000000000E+01 0.  1.
         -5    1    3    3    0  503  0.55680688489E+02  0.84380792253E+02  0.36329740683E+03  0.37713068422E+03  0.47000000000E+01 0.  1.
<mgrwt>
<rscale>  0 0.13198805E+03</rscale>
<asrwt>0</asrwt>
<pdfrwt beam="1">  1        1 0.12660794E+00 0.14230248E+03</pdfrwt>
<pdfrwt beam="2">  1       -1 0.33331683E-02 0.14230248E+03</pdfrwt>
<totfact> 0.68959175E+03</totfact>
</mgrwt>
</event>
<event>
 8    1  0.3629925E-004  0.1779202E+03  0.7546771E-02  0.1175001E+00
          1   -1    0    0  501    0  0.00000000000E+00  0.00000000000E+00  0.15477592340E+03  0.15477592340E+03  0.00000000000E+00 0. -1.
         -1   -1    0    0    0  501 -0.00000000000E+00 -0.00000000000E+00 -0.48698597041E+03  0.48698597041E+03  0.00000000000E+00 0.  1.
         25    2    1    2    0    0  0.10885489272E+03  0.64668685884E+02 -0.42335517556E+03  0.45922239897E+03  0.12499672171E+03 0.  0.
         23    2    1    2    0    0 -0.10885489272E+03 -0.64668685884E+02  0.91145128558E+02  0.18253949484E+03  0.94772391099E+02 0.  0.
          5    1    3    3  502    0  0.45764219905E+02 -0.17148454537E+02 -0.43687452319E+02  0.65719987878E+02  0.47000000000E+01 0. -1.
         -5    1    3    3    0  502  0.63090672813E+02  0.81817140422E+02 -0.37966772324E+03  0.39350241109E+03  0.47000000000E+01 0. -1.
          5    1    4    4  503    0 -0.80611121187E+02 -0.31744891149E+02  0.10551048244E+03  0.13660323158E+03  0.47000000000E+01 0. -1.
         -5    1    4    4    0  503 -0.28243771531E+02 -0.32923794736E+02 -0.14365353885E+02  0.45936263261E+02  0.47000000000E+01 0.  1.
<mgrwt>
<rscale>  0 0.17275882E+03</rscale>
<asrwt>0</asrwt>
<pdfrwt beam="1">  1        1 0.23811681E-01 0.17792023E+03</pdfrwt>
<pdfrwt beam="2">  1       -1 0.74920918E-01 0.17792023E+03</pdfrwt>
<totfact> 0.38333063E+02</totfact>
</mgrwt>
</event>
<event>
 8    1  0.3629925E-004  0.2134451E+03  0.7546771E-02  0.1142431E+00
          2   -1    0    0  501    0  0.00000000000E+00  0.00000000000E+00  0.84106363818E+03  0.84106363818E+03  0.00000000000E+00 0. -1.
         -2   -1    0    0    0  501 -0.00000000000E+00 -0.00000000000E+00 -0.55777611359E+02  0.55777611359E+02  0.00000000000E+00 0.  1.
         25    2    1    2    0    0  0.15129733817E+03 -0.83915986905E+02  0.55434504871E+03  0.59401788952E+03  0.12500417048E+03 0.  0.
         23    2    1    2    0    0 -0.15129733817E+03  0.83915986905E+02  0.23094097811E+03  0.30282336002E+03  0.91844839865E+02 0.  0.
          5    1    4    4  502    0 -0.58417843349E+02  0.81981427214E+02  0.97982640001E+02  0.14055705806E+03  0.47000000000E+01 0. -1.
         -5    1    4    4    0  502 -0.92879494823E+02  0.19345596917E+01  0.13295833811E+03  0.16226630196E+03  0.47000000000E+01 0.  1.
          5    1    3    3  503    0  0.45325521514E+02 -0.75222040741E+02  0.37755304197E+03  0.38766112497E+03  0.47000000000E+01 0.  1.
         -5    1    3    3    0  503  0.10597181666E+03 -0.86939461644E+01  0.17679200675E+03  0.20635676455E+03  0.47000000000E+01 0.  1.
<mgrwt>
<rscale>  0 0.20891094E+03</rscale>
<asrwt>0</asrwt>
<pdfrwt beam="1">  1        2 0.12939440E+00 0.21344512E+03</pdfrwt>
<pdfrwt beam="2">  1       -2 0.85811716E-02 0.21344512E+03</pdfrwt>
<totfact> 0.27963439E+03</totfact>
</mgrwt>
</event>
<event>
 8    1  0.3629925E-004  0.1540662E+03  0.7546771E-02  0.1204406E+00
          2   -1    0    0  501    0  0.00000000000E+00  0.00000000000E+00  0.87184454638E+03  0.87184454638E+03  0.00000000000E+00 0. -1.
         -2   -1    0    0    0  501 -0.00000000000E+00 -0.00000000000E+00 -0.26427083713E+02  0.26427083713E+02  0.00000000000E+00 0.  1.
         25    2    1    2    0    0  0.70806456524E+02  0.55637764931E+02  0.62598224778E+03  0.64466284350E+03  0.12500916795E+03 0.  0.
         23    2    1    2    0    0 -0.70806456524E+02 -0.55637764931E+02  0.21943521489E+03  0.25360878660E+03  0.89757940797E+02 0.  0.
          5    1    4    4  502    0 -0.27211265313E+01 -0.27931357630E+02  0.14900733786E+03  0.15169984181E+03  0.47000000000E+01 0. -1.
         -5    1    3    3    0  503  0.89043085930E+02 -0.56764930760E+01  0.39151173614E+03  0.40157741877E+03  0.47000000000E+01 0.  1.
          5    1    3    3  503    0 -0.18236629406E+02  0.61314258007E+02  0.23447051164E+03  0.24308542473E+03  0.47000000000E+01 0.  1.
         -5    1    4    4    0  502 -0.68085329993E+02 -0.27706407301E+02  0.70427877025E+02  0.10190894479E+03  0.47000000000E+01 0.  1.
<mgrwt>
<rscale>  0 0.14684346E+03</rscale>
<asrwt>0</asrwt>
<pdfrwt beam="1">  1        2 0.13412991E+00 0.15406624E+03</pdfrwt>
<pdfrwt beam="2">  1       -2 0.40657058E-02 0.15406624E+03</pdfrwt>
<totfact> 0.82578497E+03</totfact>
</mgrwt>
</event>
<event>
 8    1  0.3629925E-004  0.1476284E+03  0.7546771E-02  0.1212778E+00
         -1   -1    0    0    0  501 -0.00000000000E+00  0.00000000000E+00  0.89869392169E+02  0.89869392169E+02  0.00000000000E+00 0.  1.
          1   -1    0    0  501    0  0.00000000000E+00 -0.00000000000E+00 -0.21165471534E+03  0.21165471534E+03  0.00000000000E+00 0. -1.
         25    2    1    2    0    0  0.32738412911E+02 -0.71394708218E+02 -0.10118153949E+03  0.17897444144E+03  0.12500055485E+03 0.  0.
         23    2    1    2    0    0 -0.32738412911E+02  0.71394708218E+02 -0.20603783676E+02  0.12254966607E+03  0.91787236094E+02 0.  0.
          5    1    4    4  502    0  0.82296480301E+01  0.60642653436E+02 -0.42481982077E+02  0.74646281378E+02  0.47000000000E+01 0. -1.
         -5    1    4    4    0  502 -0.40968060941E+02  0.10752054782E+02  0.21878198401E+02  0.47903384689E+02  0.47000000000E+01 0.  1.
          5    1    3    3  503    0  0.37537740115E+02 -0.98892899264E+00 -0.10141792960E+03  0.10824853975E+03  0.47000000000E+01 0. -1.
         -5    1    3    3    0  503 -0.47993272035E+01 -0.70405779225E+02  0.23639010511E+00  0.70725901693E+02  0.47000000000E+01 0. -1.
<mgrwt>
<rscale>  0 0.14041028E+03</rscale>
<asrwt>0</asrwt>
<pdfrwt beam="1">  1        1 0.32562264E-01 0.14762841E+03</pdfrwt>
<pdfrwt beam="2">  1       -1 0.13826060E-01 0.14762841E+03</pdfrwt>
<totfact> 0.48066041E+03</totfact>
</mgrwt>
</event>
<event>
 8    1  0.3629925E-004  0.2085498E+03  0.7546771E-02  0.1146583E+00
         -2   -1    0    0    0  501 -0.00000000000E+00  0.00000000000E+00  0.14240099832E+04  0.14240099832E+04  0.00000000000E+00 0.  1.
          2   -1    0    0  501    0  0.00000000000E+00 -0.00000000000E+00 -0.30702573326E+02  0.30702573326E+02  0.00000000000E+00 0. -1.
         25    2    1    2    0    0 -0.13214779691E+03  0.10200722570E+03  0.94518955799E+03  0.96792371701E+03  0.12499802837E+03 0.  0.
         23    2    1    2    0    0  0.13214779691E+03 -0.10200722570E+03  0.44811785191E+03  0.48678883954E+03  0.91023352935E+02 0.  0.
          5    1    3    3  502    0 -0.17392092020E+02 -0.20159079744E+02  0.47038546259E+02  0.54254844900E+02  0.47000000000E+01 0. -1.
         -5    1    4    4    0  503  0.51589203189E+02 -0.76054362302E+02  0.14246603270E+03  0.16960062614E+03  0.47000000000E+01 0.  1.
          5    1    4    4  503    0  0.80558593719E+02 -0.25952863395E+02  0.30565181920E+03  0.31718821340E+03  0.47000000000E+01 0. -1.
         -5    1    3    3    0  502 -0.11475570489E+03  0.12216630544E+03  0.89815101173E+03  0.91366887211E+03  0.47000000000E+01 0. -1.
<mgrwt>
<rscale>  0 0.20378703E+03</rscale>
<asrwt>0</asrwt>
<pdfrwt beam="1">  1        2 0.47234739E-02 0.20854981E+03</pdfrwt>
<pdfrwt beam="2">  1       -2 0.21907841E+00 0.20854981E+03</pdfrwt>
<totfact> 0.18587775E+02</totfact>
</mgrwt>
</event>
<event>
 8    1  0.3629925E-004  0.1275622E+03  0.7546771E-02  0.1245459E+00
         -1   -1    0    0    0  501 -0.00000000000E+00  0.00000000000E+00  0.35551624516E+03  0.35551624516E+03  0.00000000000E+00 0.  1.
          1   -1    0    0  501    0  0.00000000000E+00 -0.00000000000E+00 -0.36192422046E+02  0.36192422046E+02  0.00000000000E+00 0. -1.
         25    2    1    2    0    0  0.21697235455E+02  0.13164197058E+02  0.21846504708E+03  0.25298039244E+03  0.12501214364E+03 0.  0.
         23    2    1    2    0    0 -0.21697235455E+02 -0.13164197058E+02  0.10085877604E+03  0.13872827476E+03  0.91809451604E+02 0.  0.
          5    1    3    3  502    0  0.65679348028E+02 -0.58243771825E+01  0.17872979805E+03  0.19056266905E+03  0.47000000000E+01 0. -1.
         -5    1    3    3    0  502 -0.43982112572E+02  0.18988574241E+02  0.39735249029E+02  0.62417723392E+02  0.47000000000E+01 0. -1.
          5    1    4    4  503    0  0.21353087549E+02  0.58706095469E+01 -0.46400781675E+01  0.23109278001E+02  0.47000000000E+01 0. -1.
         -5    1    4    4    0  503 -0.43050323004E+02 -0.19034806605E+02  0.10549885420E+03  0.11561899676E+03  0.47000000000E+01 0.  1.
<mgrwt>
<rscale>  0 0.11857974E+03</rscale>
<asrwt>0</asrwt>
<pdfrwt beam="1">  1        1 0.55680652E-02 0.12756215E+03</pdfrwt>
<pdfrwt beam="2">  1       -1 0.54694805E-01 0.12756215E+03</pdfrwt>
<totfact> 0.47308433E+03</totfact>
</mgrwt>
</event>
<event>
 8    1  0.3629925E-004  0.1336019E+03  0.7546771E-02  0.1234780E+00
         -1   -1    0    0    0  501 -0.00000000000E+00  0.00000000000E+00  0.47823271746E+02  0.47823271746E+02  0.00000000000E+00 0.  1.
          1   -1    0    0  501    0  0.00000000000E+00 -0.00000000000E+00 -0.29260662047E+03  0.29260662047E+03  0.00000000000E+00 0. -1.
         25    2    1    2    0    0 -0.42854867192E+02  0.19717058987E+02 -0.13777014671E+03  0.19191165056E+03  0.12499666492E+03 0.  0.
         23    2    1    2    0    0  0.42854867192E+02 -0.19717058987E+02 -0.10701320202E+03  0.14851824166E+03  0.91545292841E+02 0.  0.
          5    1    3    3  502    0 -0.55148039711E+02 -0.41971701580E+02 -0.60087503324E+02  0.91845130917E+02  0.47000000000E+01 0. -1.
         -5    1    4    4    0  503  0.39410742337E+02  0.14974270315E+01 -0.46347323925E+00  0.39720947958E+02  0.47000000000E+01 0.  1.
          5    1    4    4  503    0  0.34441248547E+01 -0.21214486019E+02 -0.10654972878E+03  0.10879729370E+03  0.47000000000E+01 0. -1.
         -5    1    3    3    0  502  0.12293172519E+02  0.61688760567E+02 -0.77682643382E+02  0.10006651964E+03  0.47000000000E+01 0. -1.
<mgrwt>
<rscale>  0 0.12518510E+03</rscale>
<asrwt>0</asrwt>
<pdfrwt beam="1">  1        1 0.45016403E-01 0.13360190E+03</pdfrwt>
<pdfrwt beam="2">  1       -1 0.73574264E-02 0.13360190E+03</pdfrwt>
<totfact> 0.83923812E+03</totfact>
</mgrwt>
</event>
<event>
 8    1  0.3629925E-004  0.1340946E+03  0.7546771E-02  0.1234519E+00
         -2   -1    0    0    0  501 -0.00000000000E+00  0.00000000000E+00  0.45649347368E+02  0.45649347368E+02  0.00000000000E+00 0.  1.
          2   -1    0    0  501    0  0.00000000000E+00 -0.00000000000E+00 -0.41894065895E+03  0.41894065895E+03  0.00000000000E+00 0. -1.
         25    2    1    2    0    0  0.42818717123E+02  0.22869587686E+02 -0.32458983887E+03  0.35119783804E+03  0.12499958948E+03 0.  0.
         23    2    1    2    0    0 -0.42818717123E+02 -0.22869587686E+02 -0.48701472715E+02  0.11339216828E+03  0.90163683408E+02 0.  0.
          5    1    4    4  502    0 -0.83343102323E+01 -0.32189464250E+02 -0.65524517052E+02  0.73628626706E+02  0.47000000000E+01 0. -1.
         -5    1    4    4    0  502 -0.34484406891E+02  0.93198765641E+01  0.16823044337E+02  0.39763541575E+02  0.47000000000E+01 0.  1.
          5    1    3    3  503    0  0.64770515190E+02 -0.17738906155E+02 -0.91856888615E+02  0.11388444326E+03  0.47000000000E+01 0.  1.
         -5    1    3    3    0  503 -0.21951798067E+02  0.40608493841E+02 -0.23273295025E+03  0.23731339478E+03  0.47000000000E+01 0.  1.
<mgrwt>
<rscale>  0 0.12535291E+03</rscale>
<asrwt>0</asrwt>
<pdfrwt beam="1">  1        2 0.64452408E-01 0.13409459E+03</pdfrwt>
<pdfrwt beam="2">  1       -2 0.70229767E-02 0.13409459E+03</pdfrwt>
<totfact> 0.83745289E+03</totfact>
</mgrwt>
</event>
<event>
 8    1  0.3629925E-004  0.1372288E+03  0.7546771E-02  0.1227140E+00
         -1   -1    0    0    0  501 -0.00000000000E+00  0.00000000000E+00  0.35346216485E+02  0.35346216485E+02  0.00000000000E+00 0.  1.
          1   -1    0    0  501    0  0.00000000000E+00 -0.00000000000E+00 -0.48301955809E+03  0.48301955809E+03  0.00000000000E+00 0. -1.
         25    2    1    2    0    0 -0.55381826481E+02 -0.11809546075E+02 -0.32488216688E+03  0.35267573538E+03  0.12500055956E+03 0.  0.
         23    2    1    2    0    0  0.55381826481E+02  0.11809546075E+02 -0.12279117473E+03  0.16569003919E+03  0.95754396314E+02 0.  0.
          5    1    3    3  502    0  0.18583002990E+02 -0.14939291646E+02 -0.56662681403E+01  0.24954098454E+02  0.47000000000E+01 0. -1.
         -5    1    4    4    0  503  0.26160668588E+02  0.15376060904E+02 -0.13117630584E+03  0.13472237024E+03  0.47000000000E+01 0. -1.
          5    1    4    4  503    0  0.29221157893E+02 -0.35665148288E+01  0.83851311085E+01  0.30967668952E+02  0.47000000000E+01 0.  1.
         -5    1    3    3    0  502 -0.73964829470E+02  0.31297455704E+01 -0.31921589874E+03  0.32772163693E+03  0.47000000000E+01 0. -1.
<mgrwt>
<rscale>  0 0.13021303E+03</rscale>
<asrwt>0</asrwt>
<pdfrwt beam="1">  1        1 0.74310695E-01 0.13722883E+03</pdfrwt>
<pdfrwt beam="2">  1       -1 0.54378799E-02 0.13722883E+03</pdfrwt>
<totfact> 0.70284382E+03</totfact>
</mgrwt>
</event>
<event>
 8    1  0.3629925E-004  0.2106802E+03  0.7546771E-02  0.1144373E+00
         -1   -1    0    0    0  501 -0.00000000000E+00  0.00000000000E+00  0.29669624488E+03  0.29669624488E+03  0.00000000000E+00 0.  1.
          1   -1    0    0  501    0  0.00000000000E+00 -0.00000000000E+00 -0.17618644827E+03  0.17618644827E+03  0.00000000000E+00 0. -1.
         25    2    1    2    0    0  0.13932926821E+03  0.96687558415E+02 -0.47446489019E+02  0.21595671580E+03  0.12500001940E+03 0.  0.
         23    2    1    2    0    0 -0.13932926821E+03 -0.96687558415E+02  0.16795628563E+03  0.25692597734E+03  0.95081622929E+02 0.  0.
          5    1    3    3  502    0  0.14735434900E+03  0.69072298953E+02 -0.30312294455E+01  0.16283600647E+03  0.47000000000E+01 0. -1.
         -5    1    4    4    0  503  0.11250143252E+02 -0.17427613286E+02  0.34877252873E+02  0.40850950981E+02  0.47000000000E+01 0.  1.
          5    1    4    4  503    0 -0.15057941146E+03 -0.79259945129E+02  0.13307903275E+03  0.21607502636E+03  0.47000000000E+01 0. -1.
         -5    1    3    3    0  502 -0.80250807922E+01  0.27615259463E+02 -0.44415259574E+02  0.53120709332E+02  0.47000000000E+01 0. -1.
<mgrwt>
<rscale>  0 0.20649359E+03</rscale>
<asrwt>0</asrwt>
<pdfrwt beam="1">  1        1 0.27105607E-01 0.21068017E+03</pdfrwt>
<pdfrwt beam="2">  1       -1 0.45645576E-01 0.21068017E+03</pdfrwt>
<totfact> 0.83783584E+02</totfact>
</mgrwt>
</event>
<event>
 8    1  0.3629925E-004  0.1334572E+03  0.7546771E-02  0.1235795E+00
          1   -1    0    0  501    0  0.00000000000E+00  0.00000000000E+00  0.99377847950E+02  0.99377847950E+02  0.00000000000E+00 0. -1.
         -1   -1    0    0    0  501 -0.00000000000E+00 -0.00000000000E+00 -0.14054324065E+03  0.14054324065E+03  0.00000000000E+00 0.  1.
         25    2    1    2    0    0 -0.46724054011E+02  0.19036796613E+01 -0.91013455849E+01  0.13376721192E+03  0.12499628504E+03 0.  0.
         23    2    1    2    0    0  0.46724054011E+02 -0.19036796613E+01 -0.32064047117E+02  0.10615387668E+03  0.89742861540E+02 0.  0.
          5    1    3    3  502    0  0.13412911075E+00  0.54098140802E+02  0.19743479561E+02  0.57779943008E+02  0.47000000000E+01 0.  1.
         -5    1    3    3    0  502 -0.46858183122E+02 -0.52194461140E+02 -0.28844825146E+02  0.75987268913E+02  0.47000000000E+01 0.  1.
          5    1    4    4  503    0  0.25219062753E+02 -0.11614624790E+01  0.30473798057E+02  0.39850878149E+02  0.47000000000E+01 0. -1.
         -5    1    4    4    0  503  0.21504991258E+02 -0.74221718233E+00 -0.62537845174E+02  0.66302998532E+02  0.47000000000E+01 0.  1.
<mgrwt>
<rscale>  0 0.12453658E+03</rscale>
<asrwt>0</asrwt>
<pdfrwt beam="1">  1        1 0.15288900E-01 0.13345723E+03</pdfrwt>
<pdfrwt beam="2">  1       -1 0.21622037E-01 0.13345723E+03</pdfrwt>
<totfact> 0.61142603E+03</totfact>
</mgrwt>
</event>
<event>
 8    1  0.3629925E-004  0.1311567E+03  0.7546771E-02  0.1239477E+00
         -1   -1    0    0    0  501 -0.00000000000E+00  0.00000000000E+00  0.25421759021E+02  0.25421759021E+02  0.00000000000E+00 0.  1.
          1   -1    0    0  501    0  0.00000000000E+00 -0.00000000000E+00 -0.52083436119E+03  0.52083436119E+03  0.00000000000E+00 0. -1.
         25    2    1    2    0    0 -0.49910478161E+01  0.39346111756E+02 -0.28923114905E+03  0.31757951263E+03  0.12501624770E+03 0.  0.
         23    2    1    2    0    0  0.49910478161E+01 -0.39346111756E+02 -0.20618145311E+03  0.22867660758E+03  0.90604482117E+02 0.  0.
          5    1    4    4  502    0  0.18983064485E+02 -0.64235229138E+01 -0.18639331922E+03  0.18752647235E+03  0.47000000000E+01 0. -1.
         -5    1    3    3    0  503  0.38403617628E+02 -0.28540309313E+02 -0.80175766207E+02  0.93485991407E+02  0.47000000000E+01 0. -1.
          5    1    3    3  503    0 -0.43394665444E+02  0.67886421069E+02 -0.20905538285E+03  0.22409352122E+03  0.47000000000E+01 0. -1.
         -5    1    4    4    0  502 -0.13992016669E+02 -0.32922588842E+02 -0.19788133896E+02  0.41150135232E+02  0.47000000000E+01 0.  1.
<mgrwt>
<rscale>  0 0.12222147E+03</rscale>
<asrwt>0</asrwt>
<pdfrwt beam="1">  1        1 0.80128352E-01 0.13115674E+03</pdfrwt>
<pdfrwt beam="2">  1       -1 0.39110404E-02 0.13115674E+03</pdfrwt>
<totfact> 0.10326932E+04</totfact>
</mgrwt>
</event>
<event>
 8    1  0.3629925E-004  0.1616570E+03  0.7546771E-02  0.1194283E+00
         -2   -1    0    0    0  501 -0.00000000000E+00  0.00000000000E+00  0.10653730979E+03  0.10653730979E+03  0.00000000000E+00 0.  1.
          2   -1    0    0  501    0  0.00000000000E+00 -0.00000000000E+00 -0.38563771000E+03  0.38563771000E+03  0.00000000000E+00 0. -1.
         25    2    1    2    0    0 -0.19545090906E+02 -0.10063499375E+03 -0.31175965100E+03  0.35117952858E+03  0.12499427488E+03 0.  0.
         23    2    1    2    0    0  0.19545090906E+02  0.10063499375E+03  0.32659250792E+02  0.14099549122E+03  0.91124581399E+02 0.  0.
          5    1    3    3  502    0  0.45825920176E+02 -0.43602976048E+02 -0.19879743856E+03  0.20867138294E+03  0.47000000000E+01 0. -1.
         -5    1    4    4    0  503 -0.91162241221E+01  0.98636999171E+02  0.26776564373E+01  0.99204954471E+02  0.47000000000E+01 0.  1.
          5    1    4    4  503    0  0.28661315028E+02  0.19979945830E+01  0.29981594355E+02  0.41790536747E+02  0.47000000000E+01 0. -1.
         -5    1    3    3    0  502 -0.65371011083E+02 -0.57032017706E+02 -0.11296221244E+03  0.14250814564E+03  0.47000000000E+01 0. -1.
<mgrwt>
<rscale>  0 0.15515058E+03</rscale>
<asrwt>0</asrwt>
<pdfrwt beam="1">  1        2 0.59328878E-01 0.16165699E+03</pdfrwt>
<pdfrwt beam="2">  1       -2 0.16390355E-01 0.16165699E+03</pdfrwt>
<totfact> 0.24070742E+03</totfact>
</mgrwt>
</event>
<event>
 8    1  0.3629925E-004  0.1311631E+03  0.7546771E-02  0.1240712E+00
          2   -1    0    0  501    0  0.00000000000E+00  0.00000000000E+00  0.85523331485E+03  0.85523331485E+03  0.00000000000E+00 0. -1.
         -2   -1    0    0    0  501 -0.00000000000E+00 -0.00000000000E+00 -0.15606348923E+02  0.15606348923E+02  0.00000000000E+00 0.  1.
         25    2    1    2    0    0 -0.29290228388E+02  0.26846655902E+02  0.40780000740E+03  0.42837436105E+03  0.12500034702E+03 0.  0.
         23    2    1    2    0    0  0.29290228388E+02 -0.26846655902E+02  0.43182695852E+03  0.44246530272E+03  0.87876968511E+02 0.  0.
          5    1    3    3  502    0 -0.17750805702E+02  0.59477211897E+02  0.94662118779E+02  0.11329446840E+03  0.47000000000E+01 0.  1.
         -5    1    3    3    0  502 -0.11539422686E+02 -0.32630555995E+02  0.31313788862E+03  0.31507989265E+03  0.47000000000E+01 0.  1.
          5    1    4    4  503    0  0.44660313230E+02  0.28205304356E+00  0.37323749337E+03  0.37592943432E+03  0.47000000000E+01 0. -1.
         -5    1    4    4    0  503 -0.15370084843E+02 -0.27128708946E+02  0.58589465152E+02  0.66535868401E+02  0.47000000000E+01 0.  1.
<mgrwt>
<rscale>  0 0.12145768E+03</rscale>
<asrwt>0</asrwt>
<pdfrwt beam="1">  1        2 0.13157432E+00 0.13116306E+03</pdfrwt>
<pdfrwt beam="2">  1       -2 0.24009774E-02 0.13116306E+03</pdfrwt>
<totfact> 0.18213091E+04</totfact>
</mgrwt>
</event>
<event>
 8    1  0.3629925E-004  0.1492731E+03  0.7546771E-02  0.1208625E+00
          2   -1    0    0  501    0  0.00000000000E+00  0.00000000000E+00  0.99966677519E+03  0.99966677519E+03  0.00000000000E+00 0. -1.
         -2   -1    0    0    0  501 -0.00000000000E+00 -0.00000000000E+00 -0.19353600201E+02  0.19353600201E+02  0.00000000000E+00 0.  1.
         25    2    1    2    0    0  0.52794227169E+01  0.81454350200E+02  0.48017899483E+03  0.50284621026E+03  0.12497904075E+03 0.  0.
         23    2    1    2    0    0 -0.52794227169E+01 -0.81454350200E+02  0.50013418016E+03  0.51617416513E+03  0.98177834126E+02 0.  0.
          5    1    3    3  502    0  0.51291806242E+02  0.79631462708E+02  0.39139029116E+03  0.40271636328E+03  0.47000000000E+01 0. -1.
         -5    1    3    3    0  502 -0.46012383525E+02  0.18228874912E+01  0.88788703665E+02  0.10012984697E+03  0.47000000000E+01 0. -1.
          5    1    4    4  503    0 -0.47831569838E+02 -0.58961169779E+02  0.35942857243E+03  0.36738980293E+03  0.47000000000E+01 0. -1.
         -5    1    4    4    0  503  0.42552147121E+02 -0.22493180421E+02  0.14070560773E+03  0.14878436220E+03  0.47000000000E+01 0.  1.
<mgrwt>
<rscale>  0 0.14355382E+03</rscale>
<asrwt>0</asrwt>
<pdfrwt beam="1">  1        2 0.15379485E+00 0.14927305E+03</pdfrwt>
<pdfrwt beam="2">  1       -2 0.29774777E-02 0.14927305E+03</pdfrwt>
<totfact> 0.10894947E+04</totfact>
</mgrwt>
</event>
<event>
 8    1  0.3629925E-004  0.1489676E+03  0.7546771E-02  0.1210734E+00
         -2   -1    0    0    0  501 -0.00000000000E+00  0.00000000000E+00  0.18774303775E+02  0.18774303775E+02  0.00000000000E+00 0.  1.
          2   -1    0    0  501    0  0.00000000000E+00 -0.00000000000E+00 -0.98374455948E+03  0.98374455948E+03  0.00000000000E+00 0. -1.
         25    2    1    2    0    0 -0.77256120482E+02 -0.24442937331E+02 -0.52150524332E+03  0.54236431482E+03  0.12500146335E+03 0.  0.
         23    2    1    2    0    0  0.77256120482E+02  0.24442937331E+02 -0.44346501239E+03  0.46015454844E+03  0.92276897974E+02 0.  0.
          5    1    3    3  502    0  0.74434924925E+01  0.33406152474E+02 -0.24474936369E+03  0.24717547943E+03  0.47000000000E+01 0. -1.
         -5    1    3    3    0  502 -0.84699612975E+02 -0.57849089805E+02 -0.27675587963E+03  0.29518883539E+03  0.47000000000E+01 0. -1.
          5    1    4    4  503    0  0.30257002258E+02 -0.34418691993E+02 -0.13718360654E+03  0.14471200520E+03  0.47000000000E+01 0. -1.
         -5    1    4    4    0  503  0.46999118225E+02  0.58861629324E+02 -0.30628140584E+03  0.31544254324E+03  0.47000000000E+01 0.  1.
<mgrwt>
<rscale>  0 0.14194578E+03</rscale>
<asrwt>0</asrwt>
<pdfrwt beam="1">  1        2 0.15134535E+00 0.14896755E+03</pdfrwt>
<pdfrwt beam="2">  1       -2 0.28883538E-02 0.14896755E+03</pdfrwt>
<totfact> 0.11646426E+04</totfact>
</mgrwt>
</event>
<event>
 8    1  0.3629925E-004  0.1800469E+03  0.7546771E-02  0.1173376E+00
          1   -1    0    0  501    0  0.00000000000E+00  0.00000000000E+00  0.50601211981E+03  0.50601211981E+03  0.00000000000E+00 0. -1.
         -1   -1    0    0    0  501 -0.00000000000E+00 -0.00000000000E+00 -0.57819985711E+02  0.57819985711E+02  0.00000000000E+00 0.  1.
         25    2    1    2    0    0 -0.12408243681E+03  0.37375188689E+02  0.27939337585E+03  0.33238161296E+03  0.12499408911E+03 0.  0.
         23    2    1    2    0    0  0.12408243681E+03 -0.37375188689E+02  0.16879875824E+03  0.23145049255E+03  0.91010734890E+02 0.  0.
          5    1    3    3  502    0 -0.71699711094E+02  0.83412067307E+02  0.16677086500E+03  0.19983251226E+03  0.47000000000E+01 0.  1.
         -5    1    4    4    0  503  0.64910559429E+02 -0.28532226981E+02  0.24492722007E+02  0.75162837448E+02  0.47000000000E+01 0.  1.
          5    1    4    4  503    0  0.59171877379E+02 -0.88429617076E+01  0.14430603624E+03  0.15628765511E+03  0.47000000000E+01 0. -1.
         -5    1    3    3    0  502 -0.52382725715E+02 -0.46036878619E+02  0.11262251086E+03  0.13254910071E+03  0.47000000000E+01 0.  1.
<mgrwt>
<rscale>  0 0.17436012E+03</rscale>
<asrwt>0</asrwt>
<pdfrwt beam="1">  1        1 0.77848016E-01 0.18004688E+03</pdfrwt>
<pdfrwt beam="2">  1       -1 0.88953827E-02 0.18004688E+03</pdfrwt>
<totfact> 0.31946920E+03</totfact>
</mgrwt>
</event>
<event>
 8    1  0.3629925E-004  0.1345187E+03  0.7546771E-02  0.1233057E+00
          1   -1    0    0  501    0  0.00000000000E+00  0.00000000000E+00  0.58188121484E+03  0.58188121484E+03  0.00000000000E+00 0. -1.
         -1   -1    0    0    0  501 -0.00000000000E+00 -0.00000000000E+00 -0.28168271569E+02  0.28168271569E+02  0.00000000000E+00 0.  1.
         25    2    1    2    0    0 -0.48451556174E+02 -0.10814268217E+02  0.41570135052E+03  0.43692436920E+03  0.12502315738E+03 0.  0.
         23    2    1    2    0    0  0.48451556174E+02  0.10814268217E+02  0.13801159274E+03  0.17312511721E+03  0.91981545885E+02 0.  0.
          5    1    3    3  502    0  0.25951701681E+02 -0.38588203692E+02  0.23317441277E+03  0.23781281937E+03  0.47000000000E+01 0.  1.
         -5    1    4    4    0  503  0.47350869704E+02 -0.29743484930E+02  0.46373459576E+02  0.72796754808E+02  0.47000000000E+01 0.  1.
          5    1    4    4  503    0  0.11006864697E+01  0.40557753147E+02  0.91638133169E+02  0.10032836240E+03  0.47000000000E+01 0. -1.
         -5    1    3    3    0  502 -0.74403257856E+02  0.27773935475E+02  0.18252693775E+03  0.19911154983E+03  0.47000000000E+01 0.  1.
<mgrwt>
<rscale>  0 0.12629621E+03</rscale>
<asrwt>0</asrwt>
<pdfrwt beam="1">  1        1 0.89520178E-01 0.13451874E+03</pdfrwt>
<pdfrwt beam="2">  1       -1 0.43335807E-02 0.13451874E+03</pdfrwt>
<totfact> 0.76771965E+03</totfact>
</mgrwt>
</event>
<event>
 8    1  0.3629925E-004  0.1570984E+03  0.7546771E-02  0.1199924E+00
         -2   -1    0    0    0  501 -0.00000000000E+00  0.00000000000E+00  0.53653815226E+02  0.53653815226E+02  0.00000000000E+00 0.  1.
          2   -1    0    0  501    0  0.00000000000E+00 -0.00000000000E+00 -0.40780611069E+03  0.40780611069E+03  0.00000000000E+00 0. -1.
         25    2    1    2    0    0 -0.92533830328E+02 -0.22184823335E+02 -0.14337407643E+03  0.21268762895E+03  0.12500090230E+03 0.  0.
         23    2    1    2    0    0  0.92533830328E+02  0.22184823335E+02 -0.21077821904E+03  0.24877229697E+03  0.91681633804E+02 0.  0.
          5    1    4    4  502    0  0.27412791685E+02  0.33463845809E+02 -0.15852812780E+03  0.16439144573E+03  0.47000000000E+01 0. -1.
         -5    1    3    3    0  503  0.88187452063E+01  0.25882490754E+02 -0.77959503089E+02  0.82749306441E+02  0.47000000000E+01 0. -1.
          5    1    3    3  503    0 -0.10135257553E+03 -0.48067314089E+02 -0.65414573339E+02  0.12993832251E+03  0.47000000000E+01 0. -1.
         -5    1    4    4    0  502  0.65121038643E+02 -0.11279022475E+02 -0.52250091236E+02  0.84380851240E+02  0.47000000000E+01 0.  1.
<mgrwt>
<rscale>  0 0.15044748E+03</rscale>
<asrwt>0</asrwt>
<pdfrwt beam="1">  1        2 0.62739401E-01 0.15709838E+03</pdfrwt>
<pdfrwt beam="2">  1       -2 0.82544332E-02 0.15709838E+03</pdfrwt>
<totfact> 0.67867124E+03</totfact>
</mgrwt>
</event>
<event>
 8    1  0.3629925E-004  0.1308412E+03  0.7546771E-02  0.1243498E+00
         -1   -1    0    0    0  501 -0.00000000000E+00  0.00000000000E+00  0.14670161632E+03  0.14670161632E+03  0.00000000000E+00 0.  1.
          1   -1    0    0  501    0  0.00000000000E+00 -0.00000000000E+00 -0.10765239036E+03  0.10765239036E+03  0.00000000000E+00 0. -1.
         25    2    1    2    0    0 -0.24653983689E+02 -0.29771298407E+02  0.80481424914E+02  0.15361213593E+03  0.12500111770E+03 0.  0.
         23    2    1    2    0    0  0.24653983689E+02  0.29771298407E+02 -0.41432198947E+02  0.10074187076E+03  0.83295547859E+02 0.  0.
          5    1    3    3  502    0 -0.29209516026E+02  0.28974078864E+02 -0.12656611971E+02  0.43300957254E+02  0.47000000000E+01 0. -1.
         -5    1    4    4    0  503  0.49331439364E+02  0.19104242918E+02 -0.24640012903E+01  0.53166947529E+02  0.47000000000E+01 0.  1.
          5    1    4    4  503    0 -0.24677455675E+02  0.10667055489E+02 -0.38968197657E+02  0.47574923226E+02  0.47000000000E+01 0. -1.
         -5    1    3    3    0  502  0.45555323372E+01 -0.58745377271E+02  0.93138036885E+02  0.11031117867E+03  0.47000000000E+01 0. -1.
<mgrwt>
<rscale>  0 0.11975722E+03</rscale>
<asrwt>0</asrwt>
<pdfrwt beam="1">  1        1 0.16561906E-01 0.13084123E+03</pdfrwt>
<pdfrwt beam="2">  1       -1 0.22569479E-01 0.13084123E+03</pdfrwt>
<totfact> 0.51383966E+03</totfact>
</mgrwt>
</event>
<event>
 8    1  0.3629925E-004  0.1653214E+03  0.7546771E-02  0.1190458E+00
         -1   -1    0    0    0  501 -0.00000000000E+00  0.00000000000E+00  0.60330002414E+03  0.60330002414E+03  0.00000000000E+00 0.  1.
          1   -1    0    0  501    0  0.00000000000E+00 -0.00000000000E+00 -0.39335392701E+02  0.39335392701E+02  0.00000000000E+00 0. -1.
         25    2    1    2    0    0 -0.59998135033E+02  0.90027335621E+02  0.35191415303E+03  0.38881195503E+03  0.12500587148E+03 0.  0.
         23    2    1    2    0    0  0.59998135033E+02 -0.90027335621E+02  0.21205047841E+03  0.25382346181E+03  0.88069557769E+02 0.  0.
          5    1    4    4  502    0  0.15699769735E+02 -0.46353817739E+02  0.22124416832E+02  0.53914181890E+02  0.47000000000E+01 0. -1.
         -5    1    3    3    0  503 -0.47142895469E+02  0.97391375026E+01  0.26625633292E+03  0.27061379901E+03  0.47000000000E+01 0. -1.
          5    1    3    3  503    0 -0.12855239564E+02  0.80288198118E+02  0.85657820111E+02  0.11819815602E+03  0.47000000000E+01 0. -1.
         -5    1    4    4    0  502  0.44298365298E+02 -0.43673517882E+02  0.18992606157E+03  0.19990927992E+03  0.47000000000E+01 0.  1.
<mgrwt>
<rscale>  0 0.15845002E+03</rscale>
<asrwt>0</asrwt>
<pdfrwt beam="1">  1        1 0.60515993E-02 0.16532140E+03</pdfrwt>
<pdfrwt beam="2">  1       -1 0.92815382E-01 0.16532140E+03</pdfrwt>
<totfact> 0.14928324E+03</totfact>
</mgrwt>
</event>
<event>
 8    1  0.3629925E-004  0.1422910E+03  0.7546771E-02  0.1220186E+00
         -1   -1    0    0    0  501 -0.00000000000E+00  0.00000000000E+00  0.80256573303E+02  0.80256573303E+02  0.00000000000E+00 0.  1.
          1   -1    0    0  501    0  0.00000000000E+00 -0.00000000000E+00 -0.22997335368E+03  0.22997335368E+03  0.00000000000E+00 0. -1.
         25    2    1    2    0    0  0.18539582649E+02  0.65396069501E+02 -0.32904263979E+02  0.14604597523E+03  0.12500549693E+03 0.  0.
         23    2    1    2    0    0 -0.18539582649E+02 -0.65396069501E+02 -0.11681251639E+03  0.16418395175E+03  0.93224696265E+02 0.  0.
          5    1    3    3  502    0  0.71593527775E+02  0.31818988546E+02 -0.26122031619E+02  0.82719597359E+02  0.47000000000E+01 0. -1.
         -5    1    3    3    0  502 -0.53053945126E+02  0.33577080955E+02 -0.67822323602E+01  0.63326377874E+02  0.47000000000E+01 0. -1.
          5    1    4    4  503    0  0.82790355947E+01  0.21605523711E+02 -0.31175015172E+02  0.39106427300E+02  0.47000000000E+01 0. -1.
         -5    1    4    4    0  503 -0.26818618244E+02 -0.87001593212E+02 -0.85637501222E+02  0.12507752445E+03  0.47000000000E+01 0.  1.
<mgrwt>
<rscale>  0 0.13502380E+03</rscale>
<asrwt>0</asrwt>
<pdfrwt beam="1">  1        1 0.35380515E-01 0.14229103E+03</pdfrwt>
<pdfrwt beam="2">  1       -1 0.12347165E-01 0.14229103E+03</pdfrwt>
<totfact> 0.51583796E+03</totfact>
</mgrwt>
</event>
<event>
 8    1  0.3629925E-004  0.1839939E+03  0.7546771E-02  0.1169223E+00
          1   -1    0    0  501    0  0.00000000000E+00  0.00000000000E+00  0.28624078836E+03  0.28624078836E+03  0.00000000000E+00 0. -1.
         -1   -1    0    0    0  501 -0.00000000000E+00 -0.00000000000E+00 -0.12443464422E+03  0.12443464422E+03  0.00000000000E+00 0.  1.
         25    2    1    2    0    0 -0.59422780383E+02  0.12123885650E+03  0.44910978779E+01  0.18404866934E+03  0.12499526220E+03 0.  0.
         23    2    1    2    0    0  0.59422780383E+02 -0.12123885650E+03  0.15731504626E+03  0.22662676324E+03  0.91551837132E+02 0.  0.
          5    1    3    3  502    0 -0.49110711089E+02 -0.10814251919E+02 -0.71055438948E+01  0.51003811057E+02  0.47000000000E+01 0.  1.
         -5    1    3    3    0  502 -0.10312069294E+02  0.13205310842E+03  0.11596641773E+02  0.13304485829E+03  0.47000000000E+01 0.  1.
          5    1    4    4  503    0  0.81148117759E+02 -0.78056186050E+02  0.93494880685E+02  0.14642802980E+03  0.47000000000E+01 0. -1.
         -5    1    4    4    0  503 -0.21725337376E+02 -0.43182670449E+02  0.63820165574E+02  0.80198733439E+02  0.47000000000E+01 0.  1.
<mgrwt>
<rscale>  0 0.17854041E+03</rscale>
<asrwt>0</asrwt>
<pdfrwt beam="1">  1        1 0.44037044E-01 0.18399387E+03</pdfrwt>
<pdfrwt beam="2">  1       -1 0.19143791E-01 0.18399387E+03</pdfrwt>
<totfact> 0.19895742E+03</totfact>
</mgrwt>
</event>
<event>
 8    1  0.3629925E-004  0.1527986E+03  0.7546771E-02  0.1205584E+00
         -2   -1    0    0    0  501 -0.00000000000E+00  0.00000000000E+00  0.19486804879E+02  0.19486804879E+02  0.00000000000E+00 0.  1.
          2   -1    0    0  501    0  0.00000000000E+00 -0.00000000000E+00 -0.10186294382E+04  0.10186294382E+04  0.00000000000E+00 0. -1.
         25    2    1    2    0    0  0.69064202123E+02  0.54349377158E+02 -0.48478978827E+03  0.50829967859E+03  0.12499482241E+03 0.  0.
         23    2    1    2    0    0 -0.69064202123E+02 -0.54349377158E+02 -0.51435284501E+03  0.52981656445E+03  0.91777034072E+02 0.  0.
          5    1    4    4  502    0 -0.44286102332E+02  0.53080403796E+01 -0.35472425123E+03  0.35754834437E+03  0.47000000000E+01 0. -1.
         -5    1    3    3    0  503  0.23485971537E+02  0.82145891943E+02 -0.18595061564E+03  0.20469308703E+03  0.47000000000E+01 0.  1.
          5    1    3    3  503    0  0.45578230586E+02 -0.27796514785E+02 -0.29883917264E+03  0.30360659156E+03  0.47000000000E+01 0.  1.
         -5    1    4    4    0  502 -0.24778099791E+02 -0.59657417537E+02 -0.15962859377E+03  0.17226822007E+03  0.47000000000E+01 0.  1.
<mgrwt>
<rscale>  0 0.14591510E+03</rscale>
<asrwt>0</asrwt>
<pdfrwt beam="1">  1        2 0.15671226E+00 0.15279864E+03</pdfrwt>
<pdfrwt beam="2">  1       -2 0.29979693E-02 0.15279864E+03</pdfrwt>
<totfact> 0.10520971E+04</totfact>
</mgrwt>
</event>
<event>
 8    1  0.3629925E-004  0.1265696E+03  0.7546771E-02  0.1248732E+00
         -1   -1    0    0    0  501 -0.00000000000E+00  0.00000000000E+00  0.89291436128E+02  0.89291436128E+02  0.00000000000E+00 0.  1.
          1   -1    0    0  501    0  0.00000000000E+00 -0.00000000000E+00 -0.13663438851E+03  0.13663438851E+03  0.00000000000E+00 0. -1.
         25    2    1    2    0    0 -0.90252746394E+01  0.17699772954E+02 -0.89907575398E+01  0.12688856459E+03  0.12500054623E+03 0.  0.
         23    2    1    2    0    0  0.90252746394E+01 -0.17699772954E+02 -0.38352194843E+02  0.99037260052E+02  0.89122109963E+02 0.  0.
          5    1    4    4  502    0 -0.22400422273E+02  0.45236826268E+00 -0.54443776395E+02  0.59060971404E+02  0.47000000000E+01 0. -1.
         -5    1    3    3    0  503  0.53416813799E+02 -0.15237624881E+02 -0.60662568018E+01  0.56075223406E+02  0.47000000000E+01 0. -1.
          5    1    3    3  503    0 -0.62442088439E+02  0.32937397835E+02 -0.29245007380E+01  0.70813341182E+02  0.47000000000E+01 0. -1.
         -5    1    4    4    0  502  0.31425696912E+02 -0.18152141217E+02  0.16091581552E+02  0.39976288647E+02  0.47000000000E+01 0.  1.
<mgrwt>
<rscale>  0 0.11664780E+03</rscale>
<asrwt>0</asrwt>
<pdfrwt beam="1">  1        1 0.21020675E-01 0.12656964E+03</pdfrwt>
<pdfrwt beam="2">  1       -1 0.13737144E-01 0.12656964E+03</pdfrwt>
<totfact> 0.83147299E+03</totfact>
</mgrwt>
</event>
<event>
 8    1  0.3629925E-004  0.1277645E+03  0.7546771E-02  0.1245776E+00
         -2   -1    0    0    0  501 -0.00000000000E+00  0.00000000000E+00  0.15832347295E+03  0.15832347295E+03  0.00000000000E+00 0.  1.
          2   -1    0    0  501    0  0.00000000000E+00 -0.00000000000E+00 -0.12091628206E+03  0.12091628206E+03  0.00000000000E+00 0. -1.
         25    2    1    2    0    0 -0.23523908478E+02 -0.12051214490E+02 -0.62238627897E+02  0.14211759456E+03  0.12500063136E+03 0.  0.
         23    2    1    2    0    0  0.23523908478E+02  0.12051214490E+02  0.99645818785E+02  0.13712216045E+03  0.90413448353E+02 0.  0.
          5    1    3    3  502    0  0.37660065054E+02  0.30112538460E+02 -0.44038792752E+02  0.65471755279E+02  0.47000000000E+01 0. -1.
         -5    1    4    4    0  503  0.13857525756E+02 -0.39064187838E+02  0.49229939013E+02  0.64526883442E+02  0.47000000000E+01 0.  1.
          5    1    4    4  503    0  0.96663827223E+01  0.51115402327E+02  0.50415879772E+02  0.72595277003E+02  0.47000000000E+01 0. -1.
         -5    1    3    3    0  502 -0.61183973532E+02 -0.42163752949E+02 -0.18199835145E+02  0.76645839282E+02  0.47000000000E+01 0. -1.
<mgrwt>
<rscale>  0 0.11839071E+03</rscale>
<asrwt>0</asrwt>
<pdfrwt beam="1">  1        2 0.18602505E-01 0.12776449E+03</pdfrwt>
<pdfrwt beam="2">  1       -2 0.24357457E-01 0.12776449E+03</pdfrwt>
<totfact> 0.42855128E+03</totfact>
</mgrwt>
</event>
<event>
 8    1  0.3629925E-004  0.1277962E+03  0.7546771E-02  0.1244848E+00
         -1   -1    0    0    0  501 -0.00000000000E+00  0.00000000000E+00  0.30729004019E+02  0.30729004019E+02  0.00000000000E+00 0.  1.
          1   -1    0    0  501    0  0.00000000000E+00 -0.00000000000E+00 -0.46387516781E+03  0.46387516781E+03  0.00000000000E+00 0. -1.
         25    2    1    2    0    0  0.10281996492E+02 -0.24473657937E+02 -0.32940409949E+03  0.35332554342E+03  0.12500879764E+03 0.  0.
         23    2    1    2    0    0 -0.10281996492E+02  0.24473657937E+02 -0.10374206430E+03  0.14127862841E+03  0.92155062556E+02 0.  0.
          5    1    3    3  502    0 -0.24182790534E+02 -0.17137444754E+02 -0.95365401391E+01  0.31488648249E+02  0.47000000000E+01 0. -1.
         -5    1    3    3    0  502  0.34464787026E+02 -0.73362131822E+01 -0.31986755935E+03  0.32183689517E+03  0.47000000000E+01 0. -1.
          5    1    4    4  503    0  0.25818766381E+02 -0.18254142864E+02 -0.66868996306E+02  0.74117306320E+02  0.47000000000E+01 0. -1.
         -5    1    4    4    0  503 -0.36100762873E+02  0.42727800800E+02 -0.36873067993E+02  0.67161322087E+02  0.47000000000E+01 0.  1.
<mgrwt>
<rscale>  0 0.11894487E+03</rscale>
<asrwt>0</asrwt>
<pdfrwt beam="1">  1        1 0.71365408E-01 0.12779624E+03</pdfrwt>
<pdfrwt beam="2">  1       -1 0.47275392E-02 0.12779624E+03</pdfrwt>
<totfact> 0.90658873E+03</totfact>
</mgrwt>
</event>
<event>
 8    1  0.3629925E-004  0.1554457E+03  0.7546771E-02  0.1201700E+00
         -2   -1    0    0    0  501 -0.00000000000E+00  0.00000000000E+00  0.81672873627E+02  0.81672873627E+02  0.00000000000E+00 0.  1.
          2   -1    0    0  501    0  0.00000000000E+00 -0.00000000000E+00 -0.27564398991E+03  0.27564398991E+03  0.00000000000E+00 0. -1.
         25    2    1    2    0    0  0.52175035752E+02  0.76259487387E+02 -0.51845623398E+02  0.16386379417E+03  0.12500252239E+03 0.  0.
         23    2    1    2    0    0 -0.52175035752E+02 -0.76259487387E+02 -0.14212549289E+03  0.19345306937E+03  0.93202417066E+02 0.  0.
          5    1    4    4  502    0 -0.74113020577E+02 -0.78610464365E+02 -0.11055048850E+03  0.15464748764E+03  0.47000000000E+01 0.  1.
         -5    1    3    3    0  503  0.86207018448E+02  0.79188492786E+02 -0.24095430091E+02  0.11960412690E+03  0.47000000000E+01 0.  1.
          5    1    3    3  503    0 -0.34031982696E+02 -0.29290053988E+01 -0.27750193307E+02  0.44259667277E+02  0.47000000000E+01 0.  1.
         -5    1    4    4    0  502  0.21937984825E+02  0.23509769780E+01 -0.31575004386E+02  0.38805581723E+02  0.47000000000E+01 0.  1.
<mgrwt>
<rscale>  0 0.14900547E+03</rscale>
<asrwt>0</asrwt>
<pdfrwt beam="1">  1        2 0.42406768E-01 0.15544573E+03</pdfrwt>
<pdfrwt beam="2">  1       -2 0.12565057E-01 0.15544573E+03</pdfrwt>
<totfact> 0.53051274E+03</totfact>
</mgrwt>
</event>
<event>
 8    1  0.3629925E-004  0.1682675E+03  0.7546771E-02  0.1186262E+00
          2   -1    0    0  501    0  0.00000000000E+00  0.00000000000E+00  0.12830468228E+04  0.12830468228E+04  0.00000000000E+00 0. -1.
         -2   -1    0    0    0  501 -0.00000000000E+00 -0.00000000000E+00 -0.20366955319E+02  0.20366955319E+02  0.00000000000E+00 0.  1.
         25    2    1    2    0    0  0.77518199124E+02  0.81725060184E+02  0.51581844321E+03  0.54257038771E+03  0.12500361041E+03 0.  0.
         23    2    1    2    0    0 -0.77518199124E+02 -0.81725060184E+02  0.74686142424E+03  0.76084339037E+03  0.91611249275E+02 0.  0.
          5    1    4    4  502    0 -0.26366827409E+02 -0.84191314897E+02  0.56441319981E+03  0.57128603799E+03  0.47000000000E+01 0. -1.
         -5    1    4    4    0  502 -0.51151371714E+02  0.24662547121E+01  0.18244822444E+03  0.18955735238E+03  0.47000000000E+01 0.  1.
          5    1    3    3  503    0  0.12352429755E+02 -0.24948762121E+02  0.21402275436E+03  0.21587693864E+03  0.47000000000E+01 0. -1.
         -5    1    3    3    0  503  0.65165769369E+02  0.10667382231E+03  0.30179568885E+03  0.32669344907E+03  0.47000000000E+01 0. -1.
<mgrwt>
<rscale>  0 0.16217571E+03</rscale>
<asrwt>0</asrwt>
<pdfrwt beam="1">  1        2 0.19739175E+00 0.16826752E+03</pdfrwt>
<pdfrwt beam="2">  1       -2 0.31333788E-02 0.16826752E+03</pdfrwt>
<totfact> 0.70051082E+03</totfact>
</mgrwt>
</event>
<event>
 8    1  0.3629925E-004  0.1311617E+03  0.7546771E-02  0.1238739E+00
          1   -1    0    0  501    0  0.00000000000E+00  0.00000000000E+00  0.12270809844E+04  0.12270809844E+04  0.00000000000E+00 0. -1.
         -1   -1    0    0    0  501 -0.00000000000E+00 -0.00000000000E+00 -0.10927472816E+02  0.10927472816E+02  0.00000000000E+00 0.  1.
         25    2    1    2    0    0  0.37224409555E+02 -0.13918055534E+02  0.70073158825E+03  0.71290122825E+03  0.12499613411E+03 0.  0.
         23    2    1    2    0    0 -0.37224409555E+02  0.13918055534E+02  0.51542192337E+03  0.52510722900E+03  0.92187167850E+02 0.  0.
          5    1    3    3  502    0  0.33259933146E+02  0.41802712209E+02  0.14951133694E+03  0.15883771521E+03  0.47000000000E+01 0. -1.
         -5    1    3    3    0  502  0.39644764091E+01 -0.55720767743E+02  0.55122025131E+03  0.55406351304E+03  0.47000000000E+01 0. -1.
          5    1    4    4  503    0 -0.58098018387E+01  0.44183247556E+02  0.38285824654E+03  0.38547171116E+03  0.47000000000E+01 0. -1.
         -5    1    4    4    0  503 -0.31414607716E+02 -0.30265192022E+02  0.13256367683E+03  0.13963551784E+03  0.47000000000E+01 0.  1.
<mgrwt>
<rscale>  0 0.12268072E+03</rscale>
<asrwt>0</asrwt>
<pdfrwt beam="1">  1        1 0.18878158E+00 0.13116174E+03</pdfrwt>
<pdfrwt beam="2">  1       -1 0.16811506E-02 0.13116174E+03</pdfrwt>
<totfact> 0.93789916E+03</totfact>
</mgrwt>
</event>
<event>
 8    1  0.3629925E-004  0.2276931E+03  0.7546771E-02  0.1131768E+00
         -1   -1    0    0    0  501 -0.00000000000E+00  0.00000000000E+00  0.67445565834E+02  0.67445565834E+02  0.00000000000E+00 0.  1.
          1   -1    0    0  501    0  0.00000000000E+00 -0.00000000000E+00 -0.87710088608E+03  0.87710088608E+03  0.00000000000E+00 0. -1.
         25    2    1    2    0    0  0.43385739763E+02  0.18531087411E+03 -0.62677359901E+03  0.66685026481E+03  0.12498675444E+03 0.  0.
         23    2    1    2    0    0 -0.43385739763E+02 -0.18531087411E+03 -0.18288172124E+03  0.27769618711E+03  0.86296036365E+02 0.  0.
          5    1    3    3  502    0  0.82417125288E+02  0.15927997462E+03 -0.52164376733E+03  0.55163121998E+03  0.47000000000E+01 0.  1.
         -5    1    4    4    0  503 -0.30455966333E+01 -0.15782690485E+03 -0.15501679733E+03  0.22129370757E+03  0.47000000000E+01 0.  1.
          5    1    4    4  503    0 -0.40340143129E+02 -0.27483969260E+02 -0.27864923905E+02  0.56402479540E+02  0.47000000000E+01 0. -1.
         -5    1    3    3    0  502 -0.39031385525E+02  0.26030899493E+02 -0.10512983167E+03  0.11521904483E+03  0.47000000000E+01 0.  1.
<mgrwt>
<rscale>  0 0.22286125E+03</rscale>
<asrwt>0</asrwt>
<pdfrwt beam="1">  1        1 0.13493860E+00 0.22769306E+03</pdfrwt>
<pdfrwt beam="2">  1       -1 0.10376241E-01 0.22769306E+03</pdfrwt>
<totfact> 0.11478392E+03</totfact>
</mgrwt>
</event>
<event>
 8    1  0.3629925E-004  0.1397217E+03  0.7546771E-02  0.1225131E+00
          2   -1    0    0  501    0  0.00000000000E+00  0.00000000000E+00  0.35119802408E+03  0.35119802408E+03  0.00000000000E+00 0. -1.
         -2   -1    0    0    0  501 -0.00000000000E+00 -0.00000000000E+00 -0.44731038273E+02  0.44731038273E+02  0.00000000000E+00 0.  1.
         25    2    1    2    0    0  0.59751482178E+02  0.18073446070E+02  0.15330858501E+03  0.20742633790E+03  0.12500109736E+03 0.  0.
         23    2    1    2    0    0 -0.59751482178E+02 -0.18073446070E+02  0.15315840080E+03  0.18850272445E+03  0.90437228594E+02 0.  0.
          5    1    3    3  502    0  0.41278452089E+02 -0.30604447274E+02  0.70180573430E+01  0.52075771033E+02  0.47000000000E+01 0.  1.
         -5    1    4    4    0  503 -0.64409483868E+02  0.21010394099E+02  0.11454723493E+03  0.13316597652E+03  0.47000000000E+01 0.  1.
          5    1    4    4  503    0  0.46580016901E+01 -0.39083840170E+02  0.38611165871E+02  0.55336747936E+02  0.47000000000E+01 0. -1.
         -5    1    3    3    0  502  0.18473030089E+02  0.48677893345E+02  0.14629052767E+03  0.15535056687E+03  0.47000000000E+01 0.  1.
<mgrwt>
<rscale>  0 0.13157924E+03</rscale>
<asrwt>0</asrwt>
<pdfrwt beam="1">  1        2 0.54030463E-01 0.13972174E+03</pdfrwt>
<pdfrwt beam="2">  1       -2 0.68816984E-02 0.13972174E+03</pdfrwt>
<totfact> 0.10457462E+04</totfact>
</mgrwt>
</event>
<event>
 8    1  0.3629925E-004  0.1256120E+03  0.7546771E-02  0.1251899E+00
          1   -1    0    0  501    0  0.00000000000E+00  0.00000000000E+00  0.10809253574E+03  0.10809253574E+03  0.00000000000E+00 0. -1.
         -1   -1    0    0    0  501 -0.00000000000E+00 -0.00000000000E+00 -0.10662868437E+03  0.10662868437E+03  0.00000000000E+00 0.  1.
         25    2    1    2    0    0  0.36511332616E+01  0.11792615411E+02  0.12974047622E+02  0.12628024599E+03  0.12500391220E+03 0.  0.
         23    2    1    2    0    0 -0.36511332616E+01 -0.11792615411E+02 -0.11510196253E+02  0.88440974117E+02  0.86815463673E+02 0.  0.
          5    1    4    4  502    0 -0.27643598777E+02  0.58584961963E+01  0.27111812646E+02  0.39441487244E+02  0.47000000000E+01 0. -1.
         -5    1    3    3    0  503  0.33533535017E+02  0.57831719643E+02  0.21838087101E+02  0.70484025252E+02  0.47000000000E+01 0.  1.
          5    1    3    3  503    0 -0.29882401755E+02 -0.46039104232E+02 -0.88640394795E+01  0.55796220741E+02  0.47000000000E+01 0.  1.
         -5    1    4    4    0  502  0.23992465516E+02 -0.17651111608E+02 -0.38622008899E+02  0.48999486874E+02  0.47000000000E+01 0.  1.
<mgrwt>
<rscale>  0 0.11481783E+03</rscale>
<asrwt>0</asrwt>
<pdfrwt beam="1">  1        1 0.16629621E-01 0.12561200E+03</pdfrwt>
<pdfrwt beam="2">  1       -1 0.16404413E-01 0.12561200E+03</pdfrwt>
<totfact> 0.84852295E+03</totfact>
</mgrwt>
</event>
<event>
 8    1  0.3629925E-004  0.1520342E+03  0.7546771E-02  0.1206984E+00
          4   -1    0    0  501    0  0.00000000000E+00  0.00000000000E+00  0.83219505112E+02  0.83219505112E+02  0.00000000000E+00 0. -1.
         -4   -1    0    0    0  501 -0.00000000000E+00 -0.00000000000E+00 -0.32946759665E+03  0.32946759665E+03  0.00000000000E+00 0.  1.
         25    2    1    2    0    0 -0.15961175302E+02  0.85066706712E+02 -0.18962924377E+02  0.15321227637E+03  0.12499322150E+03 0.  0.
         23    2    1    2    0    0  0.15961175302E+02 -0.85066706712E+02 -0.22728516716E+03  0.25947482539E+03  0.90429719075E+02 0.  0.
          5    1    3    3  502    0 -0.27950336272E+01  0.11627251073E+03 -0.23405158127E+02  0.11873078957E+03  0.47000000000E+01 0. -1.
         -5    1    4    4    0  503  0.32996662579E+02 -0.46347872817E+02 -0.20212715529E+03  0.21003423998E+03  0.47000000000E+01 0.  1.
          5    1    4    4  503    0 -0.17035487277E+02 -0.38718833895E+02 -0.25158011872E+02  0.49440585416E+02  0.47000000000E+01 0. -1.
         -5    1    3    3    0  502 -0.13166141675E+02 -0.31205804022E+02  0.44422337495E+01  0.34481486800E+02  0.47000000000E+01 0. -1.
<mgrwt>
<rscale>  0 0.14482214E+03</rscale>
<asrwt>0</asrwt>
<pdfrwt beam="1">  1        4 0.12803001E-01 0.15203424E+03</pdfrwt>
<pdfrwt beam="2">  1       -4 0.50687323E-01 0.15203424E+03</pdfrwt>
<totfact> 0.31840967E+02</totfact>
</mgrwt>
</event>
<event>
 8    1  0.3629925E-004  0.1422610E+03  0.7546771E-02  0.1219434E+00
          2   -1    0    0  501    0  0.00000000000E+00  0.00000000000E+00  0.55623177995E+03  0.55623177995E+03  0.00000000000E+00 0. -1.
         -2   -1    0    0    0  501 -0.00000000000E+00 -0.00000000000E+00 -0.30991354187E+02  0.30991354187E+02  0.00000000000E+00 0.  1.
         25    2    1    2    0    0 -0.17937644598E+02 -0.65508061239E+02  0.33168042006E+03  0.36090178039E+03  0.12500051542E+03 0.  0.
         23    2    1    2    0    0  0.17937644598E+02  0.65508061239E+02  0.19356000570E+03  0.22632135375E+03  0.95618064060E+02 0.  0.
          5    1    3    3  502    0  0.11046200803E+02 -0.30521994511E+02  0.76632986641E+01  0.33681253652E+02  0.47000000000E+01 0.  1.
         -5    1    3    3    0  502 -0.28983845401E+02 -0.34986066728E+02  0.32401712140E+03  0.32722052674E+03  0.47000000000E+01 0.  1.
          5    1    4    4  503    0 -0.10597828179E+02  0.45373552781E+02  0.18391898078E+03  0.18978765699E+03  0.47000000000E+01 0. -1.
         -5    1    4    4    0  503  0.28535472777E+02  0.20134508458E+02  0.96410249217E+01  0.36533696760E+02  0.47000000000E+01 0.  1.
<mgrwt>
<rscale>  0 0.13555809E+03</rscale>
<asrwt>0</asrwt>
<pdfrwt beam="1">  1        2 0.85574113E-01 0.14226101E+03</pdfrwt>
<pdfrwt beam="2">  1       -2 0.47679010E-02 0.14226101E+03</pdfrwt>
<totfact> 0.11083202E+04</totfact>
</mgrwt>
</event>
<event>
 8    1  0.3629925E-004  0.1295282E+03  0.7546771E-02  0.1242635E+00
          2   -1    0    0  501    0  0.00000000000E+00  0.00000000000E+00  0.21631204527E+03  0.21631204527E+03  0.00000000000E+00 0. -1.
         -2   -1    0    0    0  501 -0.00000000000E+00 -0.00000000000E+00 -0.71826095262E+02  0.71826095262E+02  0.00000000000E+00 0.  1.
         25    2    1    2    0    0  0.32968662263E+02  0.80998032510E+01  0.14142172636E+03  0.19177505542E+03  0.12500011076E+03 0.  0.
         23    2    1    2    0    0 -0.32968662263E+02 -0.80998032510E+01  0.30642236481E+01  0.96363085112E+02  0.90132764307E+02 0.  0.
          5    1    3    3  502    0  0.56899880096E+02  0.16771313766E+01  0.15352149843E+03  0.16380277655E+03  0.47000000000E+01 0. -1.
         -5    1    3    3    0  502 -0.23931217832E+02  0.64226718744E+01 -0.12099772073E+02  0.27972278870E+02  0.47000000000E+01 0. -1.
          5    1    4    4  503    0 -0.12293223265E+00  0.30197650609E+02 -0.24053083579E+02  0.38891567779E+02  0.47000000000E+01 0. -1.
         -5    1    4    4    0  503 -0.32845730031E+02 -0.38297453860E+02  0.27117307227E+02  0.57471517334E+02  0.47000000000E+01 0.  1.
<mgrwt>
<rscale>  0 0.12028075E+03</rscale>
<asrwt>0</asrwt>
<pdfrwt beam="1">  1        2 0.33278776E-01 0.12952825E+03</pdfrwt>
<pdfrwt beam="2">  1       -2 0.11050169E-01 0.12952825E+03</pdfrwt>
<totfact> 0.83375118E+03</totfact>
</mgrwt>
</event>
<event>
 8    1  0.3629925E-004  0.1278136E+03  0.7546771E-02  0.1245681E+00
          1   -1    0    0  501    0  0.00000000000E+00  0.00000000000E+00  0.19271297817E+03  0.19271297817E+03  0.00000000000E+00 0. -1.
         -1   -1    0    0    0  501 -0.00000000000E+00 -0.00000000000E+00 -0.19472939517E+03  0.19472939517E+03  0.00000000000E+00 0.  1.
         25    2    1    2    0    0 -0.11973792988E+02 -0.23801377971E+02 -0.15919907874E+03  0.20415840769E+03  0.12500572565E+03 0.  0.
         23    2    1    2    0    0  0.11973792988E+02  0.23801377971E+02  0.15718266174E+03  0.18328396565E+03  0.90425359276E+02 0.  0.
          5    1    4    4  502    0 -0.28250123044E+02  0.27323750968E+02  0.12594199443E+03  0.13201565354E+03  0.47000000000E+01 0. -1.
         -5    1    3    3    0  503  0.53809658199E+02 -0.26276512611E+02 -0.59144494087E+02  0.84297660770E+02  0.47000000000E+01 0.  1.
          5    1    3    3  503    0 -0.65783451187E+02  0.24751346392E+01 -0.10005458466E+03  0.11986074692E+03  0.47000000000E+01 0.  1.
         -5    1    4    4    0  502  0.40223916032E+02 -0.35223729970E+01  0.31240667317E+02  0.51268312113E+02  0.47000000000E+01 0.  1.
<mgrwt>
<rscale>  0 0.11844721E+03</rscale>
<asrwt>0</asrwt>
<pdfrwt beam="1">  1        1 0.29648151E-01 0.12781357E+03</pdfrwt>
<pdfrwt beam="2">  1       -1 0.29958368E-01 0.12781357E+03</pdfrwt>
<totfact> 0.15428274E+03</totfact>
</mgrwt>
</event>
<event>
 8    1  0.3629925E-004  0.1584957E+03  0.7546771E-02  0.1198060E+00
         -2   -1    0    0    0  501 -0.00000000000E+00  0.00000000000E+00  0.38881591541E+02  0.38881591541E+02  0.00000000000E+00 0. -1.
          2   -1    0    0  501    0  0.00000000000E+00 -0.00000000000E+00 -0.56065859144E+03  0.56065859144E+03  0.00000000000E+00 0.  1.
         25    2    1    2    0    0  0.40708587069E+01  0.97365075453E+02 -0.32334000764E+03  0.36009673483E+03  0.12499747232E+03 0.  0.
         23    2    1    2    0    0 -0.40708587069E+01 -0.97365075453E+02 -0.19843699226E+03  0.23944344815E+03  0.91974970268E+02 0.  0.
          5    1    3    3  502    0 -0.51806403072E+02  0.48960890270E+02 -0.87840233008E+02  0.11322132622E+03  0.47000000000E+01 0.  1.
         -5    1    4    4    0  503 -0.44615996096E+02 -0.36847998736E+02 -0.11322226166E+03  0.12723888028E+03  0.47000000000E+01 0.  1.
          5    1    4    4  503    0  0.40545137389E+02 -0.60517076717E+02 -0.85214730595E+02  0.11220456787E+03  0.47000000000E+01 0. -1.
         -5    1    3    3    0  502  0.55877261779E+02  0.48404185184E+02 -0.23549977463E+03  0.24687540862E+03  0.47000000000E+01 0.  1.
<mgrwt>
<rscale>  0 0.15198095E+03</rscale>
<asrwt>0</asrwt>
<pdfrwt beam="1">  1        2 0.86255164E-01 0.15849573E+03</pdfrwt>
<pdfrwt beam="2">  1       -2 0.59817836E-02 0.15849573E+03</pdfrwt>
<totfact> 0.78521572E+03</totfact>
</mgrwt>
</event>
<event>
 8    1  0.3629925E-004  0.2315888E+03  0.7546771E-02  0.1128747E+00
         -1   -1    0    0    0  501 -0.00000000000E+00  0.00000000000E+00  0.37472830418E+02  0.37472830418E+02  0.00000000000E+00 0.  1.
          1   -1    0    0  501    0  0.00000000000E+00 -0.00000000000E+00 -0.15461488576E+04  0.15461488576E+04  0.00000000000E+00 0. -1.
         25    2    1    2    0    0  0.24651146542E+02  0.19339960313E+03 -0.48004272732E+03  0.53298628882E+03  0.12498911355E+03 0.  0.
         23    2    1    2    0    0 -0.24651146542E+02 -0.19339960313E+03 -0.10286332999E+04  0.10506353992E+04  0.87961303611E+02 0.  0.
          5    1    4    4  502    0  0.19292050885E+01 -0.70041705437E+02 -0.59070258624E+03  0.59486233511E+03  0.47000000000E+01 0. -1.
         -5    1    3    3    0  503 -0.36642432910E+02  0.19344845605E+02 -0.50720530964E+02  0.65662418493E+02  0.47000000000E+01 0.  1.
          5    1    3    3  503    0  0.61293579452E+02  0.17405475753E+03 -0.42932219635E+03  0.46732387033E+03  0.47000000000E+01 0.  1.
         -5    1    4    4    0  502 -0.26580351631E+02 -0.12335789769E+03 -0.43793071364E+03  0.45577306411E+03  0.47000000000E+01 0.  1.
<mgrwt>
<rscale>  0 0.22703091E+03</rscale>
<asrwt>0</asrwt>
<pdfrwt beam="1">  1        1 0.23786904E+00 0.23158878E+03</pdfrwt>
<pdfrwt beam="2">  1       -1 0.57650512E-02 0.23158878E+03</pdfrwt>
<totfact> 0.95009663E+02</totfact>
</mgrwt>
</event>
<event>
 8    1  0.3629925E-004  0.1333536E+03  0.7546771E-02  0.1235349E+00
          1   -1    0    0  501    0  0.00000000000E+00  0.00000000000E+00  0.75875216288E+02  0.75875216288E+02  0.00000000000E+00 0. -1.
         -1   -1    0    0    0  501 -0.00000000000E+00 -0.00000000000E+00 -0.18340207256E+03  0.18340207256E+03  0.00000000000E+00 0.  1.
         25    2    1    2    0    0 -0.31983110757E+02  0.33721348856E+02 -0.55355106192E+02  0.14438614804E+03  0.12499249267E+03 0.  0.
         23    2    1    2    0    0  0.31983110757E+02 -0.33721348856E+02 -0.52171750078E+02  0.11489114080E+03  0.91203256448E+02 0.  0.
          5    1    4    4  502    0  0.10039106045E+02  0.25674671591E+02 -0.42190475029E+02  0.50617176873E+02  0.47000000000E+01 0.  1.
         -5    1    3    3    0  503 -0.72205384377E+02  0.11511584676E+02 -0.64134300445E+02  0.97372648153E+02  0.47000000000E+01 0.  1.
          5    1    3    3  503    0  0.40222273620E+02  0.22209764180E+02  0.87791942526E+01  0.47013499890E+02  0.47000000000E+01 0.  1.
         -5    1    4    4    0  502  0.21944004712E+02 -0.59396020447E+02 -0.99812750496E+01  0.64273963931E+02  0.47000000000E+01 0. -1.
<mgrwt>
<rscale>  0 0.12482130E+03</rscale>
<asrwt>0</asrwt>
<pdfrwt beam="1">  1        1 0.11673110E-01 0.13335356E+03</pdfrwt>
<pdfrwt beam="2">  1       -1 0.28215703E-01 0.13335356E+03</pdfrwt>
<totfact> 0.56156638E+03</totfact>
</mgrwt>
</event>
<event>
 8    1  0.3629925E-004  0.1281697E+03  0.7546771E-02  0.1244896E+00
          1   -1    0    0  501    0  0.00000000000E+00  0.00000000000E+00  0.14184887252E+03  0.14184887252E+03  0.00000000000E+00 0. -1.
         -1   -1    0    0    0  501 -0.00000000000E+00 -0.00000000000E+00 -0.91181162805E+02  0.91181162805E+02  0.00000000000E+00 0.  1.
         25    2    1    2    0    0  0.22648139941E+02  0.17014591591E+02  0.66245086390E+01  0.12834075268E+03  0.12500012046E+03 0.  0.
         23    2    1    2    0    0 -0.22648139941E+02 -0.17014591591E+02  0.44043201075E+02  0.10468928264E+03  0.90651021888E+02 0.  0.
          5    1    3    3  502    0  0.19874358428E+02 -0.27422435758E+02 -0.47229733237E+02  0.58307099117E+02  0.47000000000E+01 0. -1.
         -5    1    4    4    0  503  0.84925632955E+01  0.31112166323E+02  0.57603948566E+00  0.32596201406E+02  0.47000000000E+01 0.  1.
          5    1    4    4  503    0 -0.31140703237E+02 -0.48126757914E+02  0.43467161589E+02  0.72093081236E+02  0.47000000000E+01 0. -1.
         -5    1    3    3    0  502  0.27737815139E+01  0.44437027349E+02  0.53854241876E+02  0.70033653564E+02  0.47000000000E+01 0. -1.
<mgrwt>
<rscale>  0 0.11891593E+03</rscale>
<asrwt>0</asrwt>
<pdfrwt beam="1">  1        1 0.21822903E-01 0.12816967E+03</pdfrwt>
<pdfrwt beam="2">  1       -1 0.14027871E-01 0.12816967E+03</pdfrwt>
<totfact> 0.76836652E+03</totfact>
</mgrwt>
</event>
<event>
 8    1  0.3629925E-004  0.1265955E+03  0.7546771E-02  0.1247848E+00
         -2   -1    0    0    0  501 -0.00000000000E+00  0.00000000000E+00  0.23556450965E+02  0.23556450965E+02  0.00000000000E+00 0.  1.
          2   -1    0    0  501    0  0.00000000000E+00 -0.00000000000E+00 -0.52467871692E+03  0.52467871692E+03  0.00000000000E+00 0. -1.
         25    2    1    2    0    0  0.20015259058E+02 -0.19395437802E+01 -0.24468430431E+03  0.27549377153E+03  0.12498814724E+03 0.  0.
         23    2    1    2    0    0 -0.20015259058E+02  0.19395437802E+01 -0.25643796164E+03  0.27274139636E+03  0.90681137453E+02 0.  0.
          5    1    3    3  502    0 -0.32522618703E+02 -0.17035700692E+02 -0.20363559597E+03  0.20697217632E+03  0.47000000000E+01 0.  1.
         -5    1    4    4    0  503 -0.30668210186E+01 -0.35595612207E+02 -0.46912996354E+02  0.59155491938E+02  0.47000000000E+01 0.  1.
          5    1    4    4  503    0 -0.16948438039E+02  0.37535155987E+02 -0.20952496529E+03  0.21358590442E+03  0.47000000000E+01 0. -1.
         -5    1    3    3    0  502  0.52537877761E+02  0.15096156912E+02 -0.41048708342E+02  0.68521595207E+02  0.47000000000E+01 0.  1.
<mgrwt>
<rscale>  0 0.11716525E+03</rscale>
<asrwt>0</asrwt>
<pdfrwt beam="1">  1        2 0.80719800E-01 0.12659546E+03</pdfrwt>
<pdfrwt beam="2">  1       -2 0.36240695E-02 0.12659546E+03</pdfrwt>
<totfact> 0.17631775E+04</totfact>
</mgrwt>
</event>
<event>
 8    1  0.3629925E-004  0.1780698E+03  0.7546771E-02  0.1175798E+00
         -1   -1    0    0    0  501 -0.00000000000E+00  0.00000000000E+00  0.56051817242E+02  0.56051817242E+02  0.00000000000E+00 0.  1.
          1   -1    0    0  501    0  0.00000000000E+00 -0.00000000000E+00 -0.60169345876E+03  0.60169345876E+03  0.00000000000E+00 0. -1.
         25    2    1    2    0    0 -0.21247874264E+02 -0.12503353253E+03 -0.14992633678E+03  0.23278048404E+03  0.12499596341E+03 0.  0.
         23    2    1    2    0    0  0.21247874264E+02  0.12503353253E+03 -0.39571530473E+03  0.42496479196E+03  0.88992222056E+02 0.  0.
          5    1    3    3  502    0 -0.44905432910E+02 -0.12497130515E+03 -0.15881793535E+03  0.20707378300E+03  0.47000000000E+01 0.  1.
         -5    1    3    3    0  502  0.23657558646E+02 -0.62227380231E-01  0.88915985668E+01  0.25706701041E+02  0.47000000000E+01 0.  1.
          5    1    4    4  503    0  0.54958661137E+02  0.66864377978E+02 -0.20018540152E+03  0.21814578717E+03  0.47000000000E+01 0. -1.
         -5    1    4    4    0  503 -0.33710786874E+02  0.58169154556E+02 -0.19552990321E+03  0.20681900479E+03  0.47000000000E+01 0.  1.
<mgrwt>
<rscale>  0 0.17198049E+03</rscale>
<asrwt>0</asrwt>
<pdfrwt beam="1">  1        1 0.92568224E-01 0.17806978E+03</pdfrwt>
<pdfrwt beam="2">  1       -1 0.86233566E-02 0.17806978E+03</pdfrwt>
<totfact> 0.26521112E+03</totfact>
</mgrwt>
</event>
<event>
 8    1  0.3629925E-004  0.2167034E+03  0.7546771E-02  0.1139945E+00
          1   -1    0    0  501    0  0.00000000000E+00  0.00000000000E+00  0.12726867488E+03  0.12726867488E+03  0.00000000000E+00 0. -1.
         -1   -1    0    0    0  501 -0.00000000000E+00 -0.00000000000E+00 -0.33916502600E+03  0.33916502600E+03  0.00000000000E+00 0.  1.
         25    2    1    2    0    0  0.13672859624E+03  0.11242960169E+03 -0.11564655640E+03  0.24563079029E+03  0.12500093906E+03 0.  0.
         23    2    1    2    0    0 -0.13672859624E+03 -0.11242960169E+03 -0.96249794713E+02  0.22080291059E+03  0.90303809310E+02 0.  0.
          5    1    4    4  502    0  0.12395686200E+02 -0.16558803413E+02 -0.13115798777E+02  0.24939149632E+02  0.47000000000E+01 0. -1.
         -5    1    4    4    0  502 -0.14912428244E+03 -0.95870798281E+02 -0.83133995936E+02  0.19586376096E+03  0.47000000000E+01 0.  1.
          5    1    3    3  503    0  0.68584684478E+02  0.12913318883E+03 -0.74718196890E+02  0.16426849469E+03  0.47000000000E+01 0.  1.
         -5    1    3    3    0  503  0.68143911761E+02 -0.16703587133E+02 -0.40928359508E+02  0.81362295599E+02  0.47000000000E+01 0.  1.
<mgrwt>
<rscale>  0 0.21206062E+03</rscale>
<asrwt>0</asrwt>
<pdfrwt beam="1">  1        1 0.19579796E-01 0.21670339E+03</pdfrwt>
<pdfrwt beam="2">  1       -1 0.52179234E-01 0.21670339E+03</pdfrwt>
<totfact> 0.99307930E+02</totfact>
</mgrwt>
</event>
<event>
 8    1  0.3629925E-004  0.2115657E+03  0.7546771E-02  0.1143967E+00
         -1   -1    0    0    0  501 -0.00000000000E+00  0.00000000000E+00  0.51257493882E+02  0.51257493882E+02  0.00000000000E+00 0.  1.
          1   -1    0    0  501    0  0.00000000000E+00 -0.00000000000E+00 -0.11514512962E+04  0.11514512962E+04  0.00000000000E+00 0. -1.
         25    2    1    2    0    0  0.33415221189E+02 -0.16738847841E+03 -0.89800631494E+03  0.92259165920E+03  0.12499819297E+03 0.  0.
         23    2    1    2    0    0 -0.33415221189E+02  0.16738847841E+03 -0.20218748742E+03  0.28011713092E+03  0.91925770354E+02 0.  0.
          5    1    4    4  502    0 -0.61095776288E+02  0.11905098506E+03 -0.11475638055E+03  0.17634326695E+03  0.47000000000E+01 0. -1.
         -5    1    3    3    0  503 -0.89541381580E+01 -0.41679745558E+02 -0.57853481681E+02  0.72017311270E+02  0.47000000000E+01 0.  1.
          5    1    3    3  503    0  0.42369359347E+02 -0.12570873285E+03 -0.84015283326E+03  0.85057434793E+03  0.47000000000E+01 0.  1.
         -5    1    4    4    0  502  0.27680555099E+02  0.48337493356E+02 -0.87431106872E+02  0.10377386397E+03  0.47000000000E+01 0.  1.
<mgrwt>
<rscale>  0 0.20699597E+03</rscale>
<asrwt>0</asrwt>
<pdfrwt beam="1">  1        1 0.17714634E+00 0.21156566E+03</pdfrwt>
<pdfrwt beam="2">  1       -1 0.78857690E-02 0.21156566E+03</pdfrwt>
<totfact> 0.10943529E+03</totfact>
</mgrwt>
</event>
<event>
 8    1  0.3629925E-004  0.1590110E+03  0.7546771E-02  0.1196569E+00
          2   -1    0    0  501    0  0.00000000000E+00  0.00000000000E+00  0.18877765508E+03  0.18877765508E+03  0.00000000000E+00 0. -1.
         -2   -1    0    0    0  501 -0.00000000000E+00 -0.00000000000E+00 -0.11666658007E+03  0.11666658007E+03  0.00000000000E+00 0.  1.
         25    2    1    2    0    0 -0.34502268838E+02  0.92033101108E+02  0.28177489655E+02  0.16148829697E+03  0.12499600346E+03 0.  0.
         23    2    1    2    0    0  0.34502268838E+02 -0.92033101108E+02  0.43933585350E+02  0.14395593819E+03  0.95564920147E+02 0.  0.
          5    1    3    3  502    0 -0.30988775825E+02  0.12273038229E+03  0.30029649235E+02  0.13018033952E+03  0.47000000000E+01 0. -1.
         -5    1    4    4    0  503  0.59592112046E+02 -0.91715900628E+02  0.45096898181E+02  0.11840120976E+03  0.47000000000E+01 0.  1.
          5    1    4    4  503    0 -0.25089843209E+02 -0.31720047984E+00 -0.11633128303E+01  0.25554728430E+02  0.47000000000E+01 0. -1.
         -5    1    3    3    0  502 -0.35134930129E+01 -0.30697281178E+02 -0.18521595802E+01  0.31307957454E+02  0.47000000000E+01 0. -1.
<mgrwt>
<rscale>  0 0.15322172E+03</rscale>
<asrwt>0</asrwt>
<pdfrwt beam="1">  1        2 0.29042716E-01 0.15901100E+03</pdfrwt>
<pdfrwt beam="2">  1       -2 0.17948705E-01 0.15901100E+03</pdfrwt>
<totfact> 0.44483313E+03</totfact>
</mgrwt>
</event>
<event>
 8    1  0.3629925E-004  0.1984499E+03  0.7546771E-02  0.1155222E+00
         -1   -1    0    0    0  501 -0.00000000000E+00  0.00000000000E+00  0.14255955068E+03  0.14255955068E+03  0.00000000000E+00 0.  1.
          1   -1    0    0  501    0  0.00000000000E+00 -0.00000000000E+00 -0.40681125376E+03  0.40681125376E+03  0.00000000000E+00 0. -1.
         25    2    1    2    0    0  0.14366165503E+03 -0.55843835480E+02 -0.30598872157E+03  0.36470738363E+03  0.12500069143E+03 0.  0.
         23    2    1    2    0    0 -0.14366165503E+03  0.55843835480E+02  0.41737018493E+02  0.18466342081E+03  0.92743706982E+02 0.  0.
          5    1    3    3  502    0  0.55672811116E+02  0.19103556130E+02 -0.19742294047E+03  0.20606386189E+03  0.47000000000E+01 0. -1.
         -5    1    4    4    0  503 -0.54619784931E+02  0.60754916160E+02  0.48468274050E+02  0.95109118032E+02  0.47000000000E+01 0.  1.
          5    1    4    4  503    0 -0.89041870103E+02 -0.49110806797E+01 -0.67312555568E+01  0.89554302780E+02  0.47000000000E+01 0. -1.
         -5    1    3    3    0  502  0.87988843918E+02 -0.74947391610E+02 -0.10856578110E+03  0.15864352174E+03  0.47000000000E+01 0. -1.
<mgrwt>
<rscale>  0 0.19363637E+03</rscale>
<asrwt>0</asrwt>
<pdfrwt beam="1">  1        1 0.62586346E-01 0.19844994E+03</pdfrwt>
<pdfrwt beam="2">  1       -1 0.21932239E-01 0.19844994E+03</pdfrwt>
<totfact> 0.10259383E+03</totfact>
</mgrwt>
</event>
<event>
 8    1  0.3629925E-004  0.1456824E+03  0.7546771E-02  0.1216098E+00
         -1   -1    0    0    0  501 -0.00000000000E+00  0.00000000000E+00  0.29468586696E+03  0.29468586696E+03  0.00000000000E+00 0.  1.
          1   -1    0    0  501    0  0.00000000000E+00 -0.00000000000E+00 -0.58625075205E+02  0.58625075205E+02  0.00000000000E+00 0. -1.
         25    2    1    2    0    0 -0.33261005974E+02 -0.67022691518E+02  0.12840135970E+03  0.19419131604E+03  0.12500008942E+03 0.  0.
         23    2    1    2    0    0  0.33261005974E+02  0.67022691518E+02  0.10765943205E+03  0.15911962613E+03  0.90167435430E+02 0.  0.
          5    1    4    4  502    0  0.40238624902E+02  0.27761415749E+02  0.55803044607E+01  0.49427451242E+02  0.47000000000E+01 0. -1.
         -5    1    4    4    0  502 -0.69776189283E+01  0.39261275769E+02  0.10207912759E+03  0.10969217488E+03  0.47000000000E+01 0.  1.
          5    1    3    3  503    0 -0.74694034285E+02 -0.48703229549E+02  0.46982505116E+02  0.10089920274E+03  0.47000000000E+01 0. -1.
         -5    1    3    3    0  503  0.41433028311E+02 -0.18319461969E+02  0.81418854583E+02  0.93292113297E+02  0.47000000000E+01 0. -1.
<mgrwt>
<rscale>  0 0.13796159E+03</rscale>
<asrwt>0</asrwt>
<pdfrwt beam="1">  1        1 0.90192425E-02 0.14568239E+03</pdfrwt>
<pdfrwt beam="2">  1       -1 0.45336286E-01 0.14568239E+03</pdfrwt>
<totfact> 0.35059022E+03</totfact>
</mgrwt>
</event>
<event>
 8    1  0.3629925E-004  0.1508531E+03  0.7546771E-02  0.1207537E+00
          4   -1    0    0  501    0  0.00000000000E+00  0.00000000000E+00  0.18278386945E+03  0.18278386945E+03  0.00000000000E+00 0. -1.
         -4   -1    0    0    0  501 -0.00000000000E+00 -0.00000000000E+00 -0.13163610209E+03  0.13163610209E+03  0.00000000000E+00 0.  1.
         25    2    1    2    0    0  0.83360010172E+02 -0.13525059874E+02  0.97452259400E+02  0.17959285976E+03  0.12499933549E+03 0.  0.
         23    2    1    2    0    0 -0.83360010172E+02  0.13525059874E+02 -0.46304492042E+02  0.13482711178E+03  0.94352665813E+02 0.  0.
          5    1    3    3  502    0 -0.28539816764E+02 -0.22321691965E+02  0.12042790572E+02  0.38469440831E+02  0.47000000000E+01 0. -1.
         -5    1    4    4    0  503 -0.28503995359E+02 -0.39814855356E+02 -0.25441302782E+02  0.55380956526E+02  0.47000000000E+01 0. -1.
          5    1    4    4  503    0 -0.54856014814E+02  0.53339915230E+02 -0.20863189260E+02  0.79446155250E+02  0.47000000000E+01 0.  1.
         -5    1    3    3    0  502  0.11189982694E+03  0.87966320904E+01  0.85409468828E+02  0.14112341893E+03  0.47000000000E+01 0. -1.
<mgrwt>
<rscale>  0 0.14439319E+03</rscale>
<asrwt>0</asrwt>
<pdfrwt beam="1">  1        4 0.28120595E-01 0.15085308E+03</pdfrwt>
<pdfrwt beam="2">  1       -4 0.20251708E-01 0.15085308E+03</pdfrwt>
<totfact> 0.44893693E+02</totfact>
</mgrwt>
</event>
<event>
 8    1  0.3629925E-004  0.1506984E+03  0.7546771E-02  0.1208817E+00
         -1   -1    0    0    0  501 -0.00000000000E+00  0.00000000000E+00  0.24484781329E+03  0.24484781329E+03  0.00000000000E+00 0.  1.
          1   -1    0    0  501    0  0.00000000000E+00 -0.00000000000E+00 -0.82632707263E+02  0.82632707263E+02  0.00000000000E+00 0. -1.
         25    2    1    2    0    0 -0.15653027549E+02  0.82704206842E+02  0.13181742944E+03  0.20021451119E+03  0.12500005074E+03 0.  0.
         23    2    1    2    0    0  0.15653027549E+02 -0.82704206842E+02  0.30397676588E+02  0.12726600936E+03  0.90485442456E+02 0.  0.
          5    1    3    3  502    0 -0.49373804874E+02  0.34121121227E+02  0.52449742832E+01  0.60428662709E+02  0.47000000000E+01 0.  1.
         -5    1    3    3    0  502  0.33720777326E+02  0.48583085615E+02  0.12657245515E+03  0.13978584848E+03  0.47000000000E+01 0.  1.
          5    1    4    4  503    0  0.16374645661E+02 -0.55119463756E+02 -0.26779773738E+02  0.63604485586E+02  0.47000000000E+01 0. -1.
         -5    1    4    4    0  503 -0.72161811207E+00 -0.27584743086E+02  0.57177450326E+02  0.63661523777E+02  0.47000000000E+01 0.  1.
<mgrwt>
<rscale>  0 0.14340712E+03</rscale>
<asrwt>0</asrwt>
<pdfrwt beam="1">  1        1 0.12712724E-01 0.15069843E+03</pdfrwt>
<pdfrwt beam="2">  1       -1 0.37668894E-01 0.15069843E+03</pdfrwt>
<totfact> 0.30930192E+03</totfact>
</mgrwt>
</event>
<event>
 8    1  0.3629925E-004  0.1253687E+03  0.7546771E-02  0.1250293E+00
          2   -1    0    0  501    0  0.00000000000E+00  0.00000000000E+00  0.28898867395E+03  0.28898867395E+03  0.00000000000E+00 0. -1.
         -2   -1    0    0    0  501 -0.00000000000E+00 -0.00000000000E+00 -0.53551568440E+02  0.53551568440E+02  0.00000000000E+00 0.  1.
         25    2    1    2    0    0  0.94713919140E+01 -0.15865480542E+01  0.21549555063E+03  0.24931032030E+03  0.12500031628E+03 0.  0.
         23    2    1    2    0    0 -0.94713919140E+01  0.15865480542E+01  0.19941554882E+02  0.93229922086E+02  0.90564498351E+02 0.  0.
          5    1    3    3  502    0  0.60429718159E+02  0.22347701946E+02  0.14667619878E+03  0.16027216822E+03  0.47000000000E+01 0.  1.
         -5    1    3    3    0  502 -0.50958326245E+02 -0.23934250000E+02  0.68819351850E+02  0.89038152080E+02  0.47000000000E+01 0.  1.
          5    1    4    4  503    0  0.14981377789E+02 -0.28414674864E+02  0.38239161526E+02  0.50161328753E+02  0.47000000000E+01 0. -1.
         -5    1    4    4    0  503 -0.24452769703E+02  0.30001222918E+02 -0.18297606644E+02  0.43068593332E+02  0.47000000000E+01 0.  1.
<mgrwt>
<rscale>  0 0.11574128E+03</rscale>
<asrwt>0</asrwt>
<pdfrwt beam="1">  1        2 0.44459795E-01 0.12536867E+03</pdfrwt>
<pdfrwt beam="2">  1       -2 0.82387030E-02 0.12536867E+03</pdfrwt>
<totfact> 0.96707304E+03</totfact>
</mgrwt>
</event>
<event>
 8    1  0.3629925E-004  0.3061023E+03  0.7546771E-02  0.1083780E+00
         -1   -1    0    0    0  501 -0.00000000000E+00  0.00000000000E+00  0.54302037260E+03  0.54302037260E+03  0.00000000000E+00 0.  1.
          1   -1    0    0  501    0  0.00000000000E+00 -0.00000000000E+00 -0.20841407523E+03  0.20841407523E+03  0.00000000000E+00 0. -1.
         25    2    1    2    0    0 -0.25615117852E+03  0.11162958239E+03  0.34032046773E+03  0.45772989128E+03  0.12499617072E+03 0.  0.
         23    2    1    2    0    0  0.25615117852E+03 -0.11162958239E+03 -0.57141703674E+01  0.29370455654E+03  0.90305729992E+02 0.  0.
          5    1    4    4  502    0  0.23822845644E+03 -0.74931031109E+02 -0.18999142649E+02  0.25050052755E+03  0.47000000000E+01 0. -1.
         -5    1    4    4    0  502  0.17922722084E+02 -0.36698551283E+02  0.13284972282E+02  0.43204028999E+02  0.47000000000E+01 0.  1.
          5    1    3    3  503    0 -0.49279034782E+02  0.70348965452E+02  0.15324885441E+03  0.17574043811E+03  0.47000000000E+01 0.  1.
         -5    1    3    3    0  503 -0.20687214374E+03  0.41280616940E+02  0.18707161332E+03  0.28198945317E+03  0.47000000000E+01 0.  1.
<mgrwt>
<rscale>  0 0.30294033E+03</rscale>
<asrwt>0</asrwt>
<pdfrwt beam="1">  1        1 0.32063704E-01 0.30610232E+03</pdfrwt>
<pdfrwt beam="2">  1       -1 0.83541595E-01 0.30610232E+03</pdfrwt>
<totfact> 0.20803257E+02</totfact>
</mgrwt>
</event>
<event>
 8    1  0.3629925E-004  0.1258383E+03  0.7546771E-02  0.1243161E+00
          1   -1    0    0  501    0  0.00000000000E+00  0.00000000000E+00  0.51490648322E+02  0.51490648322E+02  0.00000000000E+00 0. -1.
         -1   -1    0    0    0  501 -0.00000000000E+00 -0.00000000000E+00 -0.25767149665E+03  0.25767149665E+03  0.00000000000E+00 0.  1.
         25    2    1    2    0    0 -0.12584236496E+02 -0.71939331770E+01 -0.10171502838E+03  0.16180610670E+03  0.12500061394E+03 0.  0.
         23    2    1    2    0    0  0.12584236496E+02  0.71939331770E+01 -0.10446581995E+03  0.14735603827E+03  0.10291053781E+03 0.  0.
          5    1    4    4  502    0 -0.38350777614E+01 -0.43487055314E+02 -0.73332981603E+02  0.85473083436E+02  0.47000000000E+01 0.  1.
         -5    1    4    4    0  502  0.16419314257E+02  0.50680988491E+02 -0.31132838346E+02  0.61882954830E+02  0.47000000000E+01 0. -1.
          5    1    3    3  503    0 -0.17711258804E+02  0.26617173377E+02 -0.11892325385E+03  0.12323551806E+03  0.47000000000E+01 0.  1.
         -5    1    3    3    0  503  0.51270223080E+01 -0.33811106554E+02  0.17208225470E+02  0.38570588639E+02  0.47000000000E+01 0.  1.
<mgrwt>
<rscale>  0 0.11996126E+03</rscale>
<asrwt>0</asrwt>
<pdfrwt beam="1">  1        1 0.79216383E-02 0.12583827E+03</pdfrwt>
<pdfrwt beam="2">  1       -1 0.39641768E-01 0.12583827E+03</pdfrwt>
<totfact> 0.52406994E+03</totfact>
</mgrwt>
</event>
<event>
 8    1  0.3629925E-004  0.1448976E+03  0.7546771E-02  0.1217339E+00
         -1   -1    0    0    0  501 -0.00000000000E+00  0.00000000000E+00  0.16622079986E+02  0.16622079986E+02  0.00000000000E+00 0.  1.
          1   -1    0    0  501    0  0.00000000000E+00 -0.00000000000E+00 -0.10714992005E+04  0.10714992005E+04  0.00000000000E+00 0. -1.
         25    2    1    2    0    0  0.56095230367E+02  0.47151489510E+02 -0.69738573288E+03  0.71227955581E+03  0.12500146946E+03 0.  0.
         23    2    1    2    0    0 -0.56095230367E+02 -0.47151489510E+02 -0.35749138761E+03  0.37584172465E+03  0.89927592769E+02 0.  0.
          5    1    3    3  502    0  0.61741726854E+02 -0.96944725915E+01 -0.55886160452E+03  0.56236501193E+03  0.47000000000E+01 0.  1.
         -5    1    3    3    0  502 -0.56464964873E+01  0.56845962101E+02 -0.13852412836E+03  0.14991454389E+03  0.47000000000E+01 0.  1.
          5    1    4    4  503    0 -0.31044248478E+02 -0.18244969506E+02 -0.32007200046E+03  0.32212544102E+03  0.47000000000E+01 0. -1.
         -5    1    4    4    0  503 -0.25050981889E+02 -0.28906520004E+02 -0.37419387153E+02  0.53716283632E+02  0.47000000000E+01 0.  1.
<mgrwt>
<rscale>  0 0.13706103E+03</rscale>
<asrwt>0</asrwt>
<pdfrwt beam="1">  1        1 0.16484605E+00 0.14489757E+03</pdfrwt>
<pdfrwt beam="2">  1       -1 0.25572428E-02 0.14489757E+03</pdfrwt>
<totfact> 0.65949265E+03</totfact>
</mgrwt>
</event>
<event>
 8    1  0.3629925E-004  0.1323437E+03  0.7546771E-02  0.1237449E+00
          1   -1    0    0  501    0  0.00000000000E+00  0.00000000000E+00  0.35900889449E+03  0.35900889449E+03  0.00000000000E+00 0. -1.
         -1   -1    0    0    0  501 -0.00000000000E+00 -0.00000000000E+00 -0.38140191198E+02  0.38140191198E+02  0.00000000000E+00 0.  1.
         25    2    1    2    0    0  0.18586376426E+02 -0.39277101917E+02  0.20345244232E+03  0.24270921543E+03  0.12500689119E+03 0.  0.
         23    2    1    2    0    0 -0.18586376426E+02  0.39277101917E+02  0.11741626097E+03  0.15443987026E+03  0.90426495350E+02 0.  0.
          5    1    3    3  502    0 -0.39289503746E+02 -0.24968576387E+01  0.15478595024E+02  0.42562616303E+02  0.47000000000E+01 0. -1.
         -5    1    4    4    0  503  0.13515035630E+02 -0.22953876247E+02  0.17060748696E+02  0.31979614896E+02  0.47000000000E+01 0.  1.
          5    1    4    4  503    0 -0.32101412056E+02  0.62230978164E+02  0.10035551228E+03  0.12246025536E+03  0.47000000000E+01 0. -1.
         -5    1    3    3    0  502  0.57875880172E+02 -0.36780244278E+02  0.18797384730E+03  0.20014659913E+03  0.47000000000E+01 0. -1.
<mgrwt>
<rscale>  0 0.12348943E+03</rscale>
<asrwt>0</asrwt>
<pdfrwt beam="1">  1        1 0.55232135E-01 0.13234375E+03</pdfrwt>
<pdfrwt beam="2">  1       -1 0.58677220E-02 0.13234375E+03</pdfrwt>
<totfact> 0.91237491E+03</totfact>
</mgrwt>
</event>
<event>
 8    1  0.3629925E-004  0.1464099E+03  0.7546771E-02  0.1215047E+00
          2   -1    0    0  501    0  0.00000000000E+00  0.00000000000E+00  0.21817338392E+03  0.21817338392E+03  0.00000000000E+00 0. -1.
         -2   -1    0    0    0  501 -0.00000000000E+00 -0.00000000000E+00 -0.85584301231E+02  0.85584301231E+02  0.00000000000E+00 0.  1.
         25    2    1    2    0    0 -0.73464990619E+02 -0.20410057204E+02  0.34813341030E+02  0.15049191424E+03  0.12498868851E+03 0.  0.
         23    2    1    2    0    0  0.73464990619E+02  0.20410057204E+02  0.97775741661E+02  0.15326577092E+03  0.90092317073E+02 0.  0.
          5    1    3    3  502    0 -0.67804138320E+02  0.43878576368E+02  0.11506745247E+02  0.81714293876E+02  0.47000000000E+01 0. -1.
         -5    1    4    4    0  503  0.32342254317E+02 -0.13484882087E+02 -0.66120464464E+01  0.35967660717E+02  0.47000000000E+01 0.  1.
          5    1    4    4  503    0  0.41122736302E+02  0.33894939291E+02  0.10438778811E+03  0.11729811020E+03  0.47000000000E+01 0. -1.
         -5    1    3    3    0  502 -0.56608522997E+01 -0.64288633572E+02  0.23306595783E+02  0.68777620360E+02  0.47000000000E+01 0. -1.
<mgrwt>
<rscale>  0 0.13873077E+03</rscale>
<asrwt>0</asrwt>
<pdfrwt beam="1">  1        2 0.33565136E-01 0.14640986E+03</pdfrwt>
<pdfrwt beam="2">  1       -2 0.13166816E-01 0.14640986E+03</pdfrwt>
<totfact> 0.62956660E+03</totfact>
</mgrwt>
</event>
<event>
 8    1  0.3629925E-004  0.1298029E+03  0.7546771E-02  0.1242742E+00
          3   -1    0    0  501    0  0.00000000000E+00  0.00000000000E+00  0.25475902706E+02  0.25475902706E+02  0.00000000000E+00 0. -1.
         -3   -1    0    0    0  501 -0.00000000000E+00 -0.00000000000E+00 -0.50063092557E+03  0.50063092557E+03  0.00000000000E+00 0.  1.
         25    2    1    2    0    0 -0.30639355862E+02 -0.16978198145E+02 -0.29198747564E+03  0.31953946830E+03  0.12498702544E+03 0.  0.
         23    2    1    2    0    0  0.30639355862E+02  0.16978198145E+02 -0.18316754722E+03  0.20656735998E+03  0.88840838093E+02 0.  0.
          5    1    4    4  502    0  0.36090362234E+01  0.40619681755E+02 -0.15595363370E+03  0.16126564901E+03  0.47000000000E+01 0. -1.
         -5    1    4    4    0  502  0.27030319638E+02 -0.23641483611E+02 -0.27213913528E+02  0.45301710968E+02  0.47000000000E+01 0.  1.
          5    1    3    3  503    0 -0.39515266667E+02  0.90199679895E+01 -0.18786167357E+02  0.44920220461E+02  0.47000000000E+01 0. -1.
         -5    1    3    3    0  503  0.88759108051E+01 -0.25998166134E+02 -0.27320130829E+03  0.27461924784E+03  0.47000000000E+01 0. -1.
<mgrwt>
<rscale>  0 0.12021563E+03</rscale>
<asrwt>0</asrwt>
<pdfrwt beam="1">  1        3 0.39193704E-02 0.12980287E+03</pdfrwt>
<pdfrwt beam="2">  1       -3 0.77020128E-01 0.12980287E+03</pdfrwt>
<totfact> 0.12416470E+03</totfact>
</mgrwt>
</event>
<event>
 8    1  0.3629925E-004  0.1881128E+03  0.7546771E-02  0.1164997E+00
          2   -1    0    0  501    0  0.00000000000E+00  0.00000000000E+00  0.44434706414E+03  0.44434706414E+03  0.00000000000E+00 0.  1.
         -2   -1    0    0    0  501 -0.00000000000E+00 -0.00000000000E+00 -0.14683556391E+03  0.14683556391E+03  0.00000000000E+00 0. -1.
         25    2    1    2    0    0 -0.10339453669E+03 -0.95225544060E+02  0.36444721107E+03  0.41013191352E+03  0.12501232886E+03 0.  0.
         23    2    1    2    0    0  0.10339453669E+03  0.95225544060E+02 -0.66935710853E+02  0.18105071453E+03  0.92415568956E+02 0.  0.
          5    1    3    3  502    0 -0.17750744073E+02  0.16668999372E+02  0.68248231622E+01  0.25721832485E+02  0.47000000000E+01 0.  1.
         -5    1    3    3    0  502 -0.85643792621E+02 -0.11189454343E+03  0.35762238791E+03  0.38441008103E+03  0.47000000000E+01 0.  1.
          5    1    4    4  503    0  0.17683011560E+02  0.15774942493E+02 -0.59071990719E+02  0.63821060755E+02  0.47000000000E+01 0. -1.
         -5    1    4    4    0  503  0.85711525134E+02  0.79450601567E+02 -0.78637201339E+01  0.11722965378E+03  0.47000000000E+01 0.  1.
<mgrwt>
<rscale>  0 0.18293005E+03</rscale>
<asrwt>0</asrwt>
<pdfrwt beam="1">  1        2 0.68361086E-01 0.18811278E+03</pdfrwt>
<pdfrwt beam="2">  1       -2 0.22590087E-01 0.18811278E+03</pdfrwt>
<totfact> 0.12037523E+03</totfact>
</mgrwt>
</event>
<event>
 8    1  0.3629925E-004  0.1383195E+03  0.7546771E-02  0.1227239E+00
         -3   -1    0    0    0  501 -0.00000000000E+00  0.00000000000E+00  0.38635553605E+02  0.38635553605E+02  0.00000000000E+00 0.  1.
          3   -1    0    0  501    0  0.00000000000E+00 -0.00000000000E+00 -0.40218147525E+03  0.40218147525E+03  0.00000000000E+00 0. -1.
         25    2    1    2    0    0  0.55757726713E+02 -0.20008400137E+02 -0.23472951946E+03  0.27245227590E+03  0.12499214045E+03 0.  0.
         23    2    1    2    0    0 -0.55757726713E+02  0.20008400137E+02 -0.12881640218E+03  0.16836475295E+03  0.90795178289E+02 0.  0.
          5    1    4    4  502    0 -0.22003612062E+02  0.24991122623E+02 -0.12962233039E+03  0.13391323194E+03  0.47000000000E+01 0. -1.
         -5    1    4    4    0  502 -0.33754114650E+02 -0.49827224851E+01  0.80592821167E+00  0.34451521004E+02  0.47000000000E+01 0.  1.
          5    1    3    3  503    0 -0.29828880228E+02  0.26626963546E+02 -0.79204655268E+02  0.88849449630E+02  0.47000000000E+01 0.  1.
         -5    1    3    3    0  503  0.85586606940E+02 -0.46635363684E+02 -0.15552486419E+03  0.18360282628E+03  0.47000000000E+01 0.  1.
<mgrwt>
<rscale>  0 0.13014616E+03</rscale>
<asrwt>0</asrwt>
<pdfrwt beam="1">  1        3 0.61874069E-01 0.13831954E+03</pdfrwt>
<pdfrwt beam="2">  1       -3 0.59439317E-02 0.13831954E+03</pdfrwt>
<totfact> 0.10329048E+03</totfact>
</mgrwt>
</event>
<event>
 8    1  0.3629925E-004  0.2150967E+03  0.7546771E-02  0.1141235E+00
         -2   -1    0    0    0  501 -0.00000000000E+00  0.00000000000E+00  0.25553535405E+03  0.25553535405E+03  0.00000000000E+00 0.  1.
          2   -1    0    0  501    0  0.00000000000E+00 -0.00000000000E+00 -0.21093224305E+03  0.21093224305E+03  0.00000000000E+00 0. -1.
         25    2    1    2    0    0  0.14198978867E+03 -0.10237713286E+03  0.13048013563E+03  0.25157833006E+03  0.12499765175E+03 0.  0.
         23    2    1    2    0    0 -0.14198978867E+03  0.10237713286E+03 -0.85877024634E+02  0.21488926704E+03  0.90334690512E+02 0.  0.
          5    1    4    4  502    0 -0.90045781637E+02  0.27291242035E+02 -0.79455737803E+02  0.12324106033E+03  0.47000000000E+01 0. -1.
         -5    1    4    4    0  502 -0.51944007030E+02  0.75085890827E+02 -0.64212868302E+01  0.91648206705E+02  0.47000000000E+01 0.  1.
          5    1    3    3  503    0  0.67732361798E+02 -0.11954684983E+03  0.70667899487E+02  0.15458060731E+03  0.47000000000E+01 0. -1.
         -5    1    3    3    0  503  0.74257426870E+02  0.17169716969E+02  0.59812236143E+02  0.96997722749E+02  0.47000000000E+01 0. -1.
<mgrwt>
<rscale>  0 0.21041797E+03</rscale>
<asrwt>0</asrwt>
<pdfrwt beam="1">  1        2 0.32451114E-01 0.21509670E+03</pdfrwt>
<pdfrwt beam="2">  1       -2 0.39313131E-01 0.21509670E+03</pdfrwt>
<totfact> 0.98732054E+02</totfact>
</mgrwt>
</event>
<event>
 8    1  0.3629925E-004  0.1307125E+03  0.7546771E-02  0.1240402E+00
          2   -1    0    0  501    0  0.00000000000E+00  0.00000000000E+00  0.21677380367E+03  0.21677380367E+03  0.00000000000E+00 0. -1.
         -2   -1    0    0    0  501 -0.00000000000E+00 -0.00000000000E+00 -0.62134111629E+02  0.62134111629E+02  0.00000000000E+00 0.  1.
         25    2    1    2    0    0 -0.57329875177E+01  0.37785348728E+02  0.11139089902E+03  0.17173729144E+03  0.12500066064E+03 0.  0.
         23    2    1    2    0    0  0.57329875177E+01 -0.37785348728E+02  0.43248793016E+02  0.10717062386E+03  0.90302186003E+02 0.  0.
          5    1    4    4  502    0  0.15616611657E+02  0.27214876262E+02  0.95057228380E+01  0.33120640336E+02  0.47000000000E+01 0. -1.
         -5    1    3    3    0  503 -0.62959283224E+02  0.33847760311E+02  0.48630522794E+02  0.86582677075E+02  0.47000000000E+01 0.  1.
          5    1    3    3  503    0  0.57226295707E+02  0.39375884164E+01  0.62760376229E+02  0.85154614363E+02  0.47000000000E+01 0.  1.
         -5    1    4    4    0  502 -0.98836241396E+01 -0.65000224990E+02  0.33743070178E+02  0.74049983524E+02  0.47000000000E+01 0.  1.
<mgrwt>
<rscale>  0 0.12164858E+03</rscale>
<asrwt>0</asrwt>
<pdfrwt beam="1">  1        2 0.33349816E-01 0.13071253E+03</pdfrwt>
<pdfrwt beam="2">  1       -2 0.95590942E-02 0.13071253E+03</pdfrwt>
<totfact> 0.10456674E+04</totfact>
</mgrwt>
</event>
<event>
 8    1  0.3629925E-004  0.1417437E+03  0.7546771E-02  0.1220257E+00
         -3   -1    0    0    0  501 -0.00000000000E+00  0.00000000000E+00  0.25877593488E+03  0.25877593488E+03  0.00000000000E+00 0.  1.
          3   -1    0    0  501    0  0.00000000000E+00 -0.00000000000E+00 -0.69452207833E+02  0.69452207833E+02  0.00000000000E+00 0. -1.
         25    2    1    2    0    0 -0.59148377931E+02 -0.31064063722E+02  0.14708548984E+03  0.20426802164E+03  0.12501110622E+03 0.  0.
         23    2    1    2    0    0  0.59148377931E+02  0.31064063722E+02  0.42238237214E+02  0.12396012107E+03  0.95491027151E+02 0.  0.
          5    1    4    4  502    0 -0.42475620677E+01 -0.26063172143E+02 -0.34573988154E+01  0.27043933373E+02  0.47000000000E+01 0. -1.
         -5    1    3    3    0  503 -0.38993743500E+02 -0.34880677922E+02 -0.30954384142E+01  0.52619820063E+02  0.47000000000E+01 0. -1.
          5    1    3    3  503    0 -0.20154634430E+02  0.38166141997E+01  0.15018092825E+03  0.15164820158E+03  0.47000000000E+01 0. -1.
         -5    1    4    4    0  502  0.63395939998E+02  0.57127235866E+02  0.45695636029E+02  0.96916187699E+02  0.47000000000E+01 0.  1.
<mgrwt>
<rscale>  0 0.13497350E+03</rscale>
<asrwt>0</asrwt>
<pdfrwt beam="1">  1        3 0.10684955E-01 0.14174372E+03</pdfrwt>
<pdfrwt beam="2">  1       -3 0.39811682E-01 0.14174372E+03</pdfrwt>
<totfact> 0.96138783E+02</totfact>
</mgrwt>
</event>
<event>
 8    1  0.3629925E-004  0.1409528E+03  0.7546771E-02  0.1223042E+00
         -2   -1    0    0    0  501 -0.00000000000E+00  0.00000000000E+00  0.25415943844E+02  0.25415943844E+02  0.00000000000E+00 0.  1.
          2   -1    0    0  501    0  0.00000000000E+00 -0.00000000000E+00 -0.75706372664E+03  0.75706372664E+03  0.00000000000E+00 0. -1.
         25    2    1    2    0    0  0.32261092190E+02  0.56552906484E+02 -0.56124085967E+03  0.57867001017E+03  0.12501467437E+03 0.  0.
         23    2    1    2    0    0 -0.32261092190E+02 -0.56552906484E+02 -0.17040692313E+03  0.20380966032E+03  0.90889212158E+02 0.  0.
          5    1    4    4  502    0 -0.36723766901E+02 -0.23565805925E+02 -0.16376292880E+03  0.16954164419E+03  0.47000000000E+01 0. -1.
         -5    1    3    3    0  503 -0.26968820423E+02  0.90808360042E+01 -0.28568426547E+02  0.40595860047E+02  0.47000000000E+01 0. -1.
          5    1    3    3  503    0  0.59229912614E+02  0.47472070480E+02 -0.53267243312E+03  0.53807415012E+03  0.47000000000E+01 0. -1.
         -5    1    4    4    0  502  0.44626747103E+01 -0.32987100559E+02 -0.66439943304E+01  0.34268016130E+02  0.47000000000E+01 0.  1.
<mgrwt>
<rscale>  0 0.13302042E+03</rscale>
<asrwt>0</asrwt>
<pdfrwt beam="1">  1        2 0.11647135E+00 0.14095275E+03</pdfrwt>
<pdfrwt beam="2">  1       -2 0.39101449E-02 0.14095275E+03</pdfrwt>
<totfact> 0.10397663E+04</totfact>
</mgrwt>
</event>
<event>
 8    1  0.3629925E-004  0.1254277E+03  0.7546771E-02  0.1250298E+00
          2   -1    0    0  501    0  0.00000000000E+00  0.00000000000E+00  0.45211389161E+03  0.45211389161E+03  0.00000000000E+00 0. -1.
         -2   -1    0    0    0  501 -0.00000000000E+00 -0.00000000000E+00 -0.28537048281E+02  0.28537048281E+02  0.00000000000E+00 0.  1.
         25    2    1    2    0    0 -0.54312639290E+01  0.87817458032E+01  0.17000651246E+03  0.21126833743E+03  0.12500191372E+03 0.  0.
         23    2    1    2    0    0  0.54312639290E+01 -0.87817458032E+01  0.25357033087E+03  0.26938260247E+03  0.90346312182E+02 0.  0.
          5    1    3    3  502    0 -0.54638308904E+02 -0.20677718637E+02  0.45807513477E+02  0.74386363931E+02  0.47000000000E+01 0. -1.
         -5    1    3    3    0  502  0.49207044975E+02  0.29459464440E+02  0.12419899898E+03  0.13688197350E+03  0.47000000000E+01 0. -1.
          5    1    4    4  503    0 -0.24338400230E+02 -0.40023429507E+02  0.11854223761E+03  0.12754836233E+03  0.47000000000E+01 0. -1.
         -5    1    4    4    0  503  0.29769664159E+02  0.31241683704E+02  0.13502809327E+03  0.14183424014E+03  0.47000000000E+01 0.  1.
<mgrwt>
<rscale>  0 0.11573830E+03</rscale>
<asrwt>0</asrwt>
<pdfrwt beam="1">  1        2 0.69555978E-01 0.12542765E+03</pdfrwt>
<pdfrwt beam="2">  1       -2 0.43903154E-02 0.12542765E+03</pdfrwt>
<totfact> 0.15593241E+04</totfact>
</mgrwt>
</event>
<event>
 8    1  0.3629925E-004  0.2494471E+03  0.7546771E-02  0.1116232E+00
          1   -1    0    0  501    0  0.00000000000E+00  0.00000000000E+00  0.25535760909E+03  0.25535760909E+03  0.00000000000E+00 0. -1.
         -1   -1    0    0    0  501 -0.00000000000E+00 -0.00000000000E+00 -0.23026176146E+03  0.23026176146E+03  0.00000000000E+00 0.  1.
         25    2    1    2    0    0 -0.20219308117E+03 -0.75598885089E+02  0.33763279653E+02  0.25172165775E+03  0.12500640153E+03 0.  0.
         23    2    1    2    0    0  0.20219308117E+03  0.75598885089E+02 -0.86674320193E+01  0.23389771281E+03  0.89642524388E+02 0.  0.
          5    1    3    3  502    0 -0.14362325916E+03 -0.99030862060E+02 -0.99932738262E+01  0.17480477034E+03  0.47000000000E+01 0. -1.
         -5    1    4    4    0  503  0.12418417750E+03  0.65021637248E+02 -0.44681496672E+02  0.14720071127E+03  0.47000000000E+01 0.  1.
          5    1    4    4  503    0  0.78008903672E+02  0.10577247841E+02  0.36014064652E+02  0.86697001545E+02  0.47000000000E+01 0. -1.
         -5    1    3    3    0  502 -0.58569822010E+02  0.23431976971E+02  0.43756553479E+02  0.76916887401E+02  0.47000000000E+01 0. -1.
<mgrwt>
<rscale>  0 0.24542324E+03</rscale>
<asrwt>0</asrwt>
<pdfrwt beam="1">  1        1 0.39285786E-01 0.24944706E+03</pdfrwt>
<pdfrwt beam="2">  1       -1 0.35424886E-01 0.24944706E+03</pdfrwt>
<totfact> 0.82456146E+02</totfact>
</mgrwt>
</event>
<event>
 8    1  0.3629925E-004  0.1282293E+03  0.7546771E-02  0.1243109E+00
         -1   -1    0    0    0  501 -0.00000000000E+00  0.00000000000E+00  0.18687225996E+03  0.18687225996E+03  0.00000000000E+00 0.  1.
          1   -1    0    0  501    0  0.00000000000E+00 -0.00000000000E+00 -0.69294029286E+02  0.69294029286E+02  0.00000000000E+00 0. -1.
         25    2    1    2    0    0  0.22608641184E+02  0.17503329048E+02  0.54384061133E+02  0.13928523951E+03  0.12500093862E+03 0.  0.
         23    2    1    2    0    0 -0.22608641184E+02 -0.17503329048E+02  0.63194169544E+02  0.11688104974E+03  0.94075286550E+02 0.  0.
          5    1    3    3  502    0 -0.18862081892E+02 -0.46037688944E+02  0.90918741533E+01  0.50793691658E+02  0.47000000000E+01 0. -1.
         -5    1    4    4    0  503 -0.31349842832E+02 -0.46307694059E+02  0.65589473980E+02  0.86320821773E+02  0.47000000000E+01 0.  1.
          5    1    4    4  503    0  0.87412016477E+01  0.28804365011E+02 -0.23953044362E+01  0.30560227965E+02  0.47000000000E+01 0. -1.
         -5    1    3    3    0  502  0.41470723076E+02  0.63541017992E+02  0.45292186980E+02  0.88491547853E+02  0.47000000000E+01 0. -1.
<mgrwt>
<rscale>  0 0.11999294E+03</rscale>
<asrwt>0</asrwt>
<pdfrwt beam="1">  1        1 0.10660620E-01 0.12822929E+03</pdfrwt>
<pdfrwt beam="2">  1       -1 0.28749578E-01 0.12822929E+03</pdfrwt>
<totfact> 0.61161840E+03</totfact>
</mgrwt>
</event>
<event>
 8    1  0.3629925E-004  0.1788906E+03  0.7546771E-02  0.1174367E+00
         -2   -1    0    0    0  501 -0.00000000000E+00  0.00000000000E+00  0.16897274230E+02  0.16897274230E+02  0.00000000000E+00 0. -1.
          2   -1    0    0  501    0  0.00000000000E+00 -0.00000000000E+00 -0.16860985457E+04  0.16860985457E+04  0.00000000000E+00 0.  1.
         25    2    1    2    0    0  0.10871325505E+03 -0.67491122309E+02 -0.82646987557E+03  0.84560882630E+03  0.12501283322E+03 0.  0.
         23    2    1    2    0    0 -0.10871325505E+03  0.67491122309E+02 -0.84273139590E+03  0.85738699363E+03  0.92426337179E+02 0.  0.
          5    1    4    4  502    0 -0.39076966280E+02  0.42883119098E+01 -0.84313090410E+02  0.93146047297E+02  0.47000000000E+01 0. -1.
         -5    1    4    4    0  502 -0.69636288772E+02  0.63202810400E+02 -0.75841830549E+03  0.76424094633E+03  0.47000000000E+01 0.  1.
          5    1    3    3  503    0  0.86475218926E+02 -0.10398165428E+03 -0.65490479749E+03  0.66873950959E+03  0.47000000000E+01 0.  1.
         -5    1    3    3    0  503  0.22238036126E+02  0.36490531972E+02 -0.17156507808E+03  0.17686931670E+03  0.47000000000E+01 0.  1.
<mgrwt>
<rscale>  0 0.17338076E+03</rscale>
<asrwt>0</asrwt>
<pdfrwt beam="1">  1        2 0.25939979E+00 0.17889056E+03</pdfrwt>
<pdfrwt beam="2">  1       -2 0.25995805E-02 0.17889056E+03</pdfrwt>
<totfact> 0.56565120E+03</totfact>
</mgrwt>
</event>
<event>
 8    1  0.3629925E-004  0.1253254E+03  0.7546771E-02  0.1249777E+00
         -2   -1    0    0    0  501 -0.00000000000E+00  0.00000000000E+00  0.27272757495E+02  0.27272757495E+02  0.00000000000E+00 0.  1.
          2   -1    0    0  501    0  0.00000000000E+00 -0.00000000000E+00 -0.43373052814E+03  0.43373052814E+03  0.00000000000E+00 0. -1.
         25    2    1    2    0    0 -0.76962556771E+01 -0.47460385359E+01 -0.22783050492E+03  0.26002537930E+03  0.12499880670E+03 0.  0.
         23    2    1    2    0    0  0.76962556771E+01  0.47460385359E+01 -0.17862726573E+03  0.20097790633E+03  0.91666032643E+02 0.  0.
          5    1    3    3  502    0  0.51382162478E+02  0.13943374358E+02 -0.15674679687E+03  0.16560855243E+03  0.47000000000E+01 0. -1.
         -5    1    4    4    0  503  0.33584291893E+02  0.28469625671E+02 -0.46604581741E+02  0.64284533809E+02  0.47000000000E+01 0.  1.
          5    1    4    4  503    0 -0.25888036216E+02 -0.23723587135E+02 -0.13202268399E+03  0.13669337253E+03  0.47000000000E+01 0. -1.
         -5    1    3    3    0  502 -0.59078418155E+02 -0.18689412894E+02 -0.71083708047E+02  0.94416826868E+02  0.47000000000E+01 0. -1.
<mgrwt>
<rscale>  0 0.11603984E+03</rscale>
<asrwt>0</asrwt>
<pdfrwt beam="1">  1        2 0.66727773E-01 0.12532541E+03</pdfrwt>
<pdfrwt beam="2">  1       -2 0.41958089E-02 0.12532541E+03</pdfrwt>
<totfact> 0.17441750E+04</totfact>
</mgrwt>
</event>
<event>
 8    1  0.3629925E-004  0.1526629E+03  0.7546771E-02  0.1204921E+00
          1   -1    0    0  501    0  0.00000000000E+00  0.00000000000E+00  0.23204778963E+03  0.23204778963E+03  0.00000000000E+00 0. -1.
         -1   -1    0    0    0  501 -0.00000000000E+00 -0.00000000000E+00 -0.85682247822E+02  0.85682247822E+02  0.00000000000E+00 0.  1.
         25    2    1    2    0    0  0.14408904175E+02 -0.86443613818E+02  0.74942572876E+02  0.17006574863E+03  0.12500341891E+03 0.  0.
         23    2    1    2    0    0 -0.14408904175E+02  0.86443613818E+02  0.71422968930E+02  0.14766428882E+03  0.94991509160E+02 0.  0.
          5    1    3    3  502    0  0.92626135270E+01 -0.11549174429E+03  0.78428947577E+02  0.13999045977E+03  0.47000000000E+01 0. -1.
         -5    1    4    4    0  503 -0.42581812579E+02  0.15459388837E+02  0.51192658757E+02  0.68519937071E+02  0.47000000000E+01 0.  1.
          5    1    4    4  503    0  0.28172908403E+02  0.70984224981E+02  0.20230310173E+02  0.79144351749E+02  0.47000000000E+01 0. -1.
         -5    1    3    3    0  502  0.51462906483E+01  0.29048130473E+02 -0.34863747011E+01  0.30075288859E+02  0.47000000000E+01 0. -1.
<mgrwt>
<rscale>  0 0.14643710E+03</rscale>
<asrwt>0</asrwt>
<pdfrwt beam="1">  1        1 0.35699660E-01 0.15266293E+03</pdfrwt>
<pdfrwt beam="2">  1       -1 0.13181884E-01 0.15266293E+03</pdfrwt>
<totfact> 0.46271684E+03</totfact>
</mgrwt>
</event>
<event>
 8    1  0.3629925E-004  0.1600622E+03  0.7546771E-02  0.1196624E+00
          1   -1    0    0  501    0  0.00000000000E+00  0.00000000000E+00  0.49806073404E+03  0.49806073404E+03  0.00000000000E+00 0. -1.
         -1   -1    0    0    0  501 -0.00000000000E+00 -0.00000000000E+00 -0.47848662412E+02  0.47848662412E+02  0.00000000000E+00 0.  1.
         25    2    1    2    0    0  0.54450908735E+02  0.83850413146E+02  0.32526850200E+03  0.36251830421E+03  0.12499651694E+03 0.  0.
         23    2    1    2    0    0 -0.54450908735E+02 -0.83850413146E+02  0.12494356963E+03  0.18339109224E+03  0.89585734778E+02 0.  0.
          5    1    4    4  502    0 -0.80047283780E+01 -0.74076969105E+02  0.11086979399E+03  0.13366253869E+03  0.47000000000E+01 0. -1.
         -5    1    4    4    0  502 -0.46446180357E+02 -0.97734440402E+01  0.14073775637E+02  0.49728553557E+02  0.47000000000E+01 0.  1.
          5    1    3    3  503    0  0.79126805014E+02  0.98487057216E+02  0.29284915164E+03  0.31897251813E+03  0.47000000000E+01 0.  1.
         -5    1    3    3    0  503 -0.24675896279E+02 -0.14636644071E+02  0.32419350360E+02  0.43545786072E+02  0.47000000000E+01 0.  1.
<mgrwt>
<rscale>  0 0.15317583E+03</rscale>
<asrwt>0</asrwt>
<pdfrwt beam="1">  1        1 0.76624724E-01 0.16006225E+03</pdfrwt>
<pdfrwt beam="2">  1       -1 0.73613331E-02 0.16006225E+03</pdfrwt>
<totfact> 0.43275855E+03</totfact>
</mgrwt>
</event>
<event>
 8    1  0.3629925E-004  0.1842392E+03  0.7546771E-02  0.1168770E+00
          2   -1    0    0  501    0  0.00000000000E+00  0.00000000000E+00  0.81232159303E+03  0.81232159303E+03  0.00000000000E+00 0. -1.
         -2   -1    0    0    0  501 -0.00000000000E+00 -0.00000000000E+00 -0.37395103488E+02  0.37395103488E+02  0.00000000000E+00 0.  1.
         25    2    1    2    0    0  0.74473417337E+02 -0.11301050661E+03  0.42281008020E+03  0.46120758451E+03  0.12500563028E+03 0.  0.
         23    2    1    2    0    0 -0.74473417337E+02  0.11301050661E+03  0.35211640935E+03  0.38850911201E+03  0.92928466502E+02 0.  0.
          5    1    3    3  502    0  0.47774837557E+02  0.16759162131E+02  0.98554625230E+02  0.11089819103E+03  0.47000000000E+01 0. -1.
         -5    1    4    4    0  503  0.41569979932E+01  0.75502107344E+02  0.14076526354E+03  0.15985868217E+03  0.47000000000E+01 0.  1.
          5    1    4    4  503    0 -0.78630415330E+02  0.37508399270E+02  0.21135114580E+03  0.22865042983E+03  0.47000000000E+01 0. -1.
         -5    1    3    3    0  502  0.26698579780E+02 -0.12976966874E+03  0.32425545497E+03  0.35030939349E+03  0.47000000000E+01 0. -1.
<mgrwt>
<rscale>  0 0.17900415E+03</rscale>
<asrwt>0</asrwt>
<pdfrwt beam="1">  1        2 0.12497254E+00 0.18423917E+03</pdfrwt>
<pdfrwt beam="2">  1       -2 0.57530934E-02 0.18423917E+03</pdfrwt>
<totfact> 0.54002718E+03</totfact>
</mgrwt>
</event>
<event>
 8    1  0.3629925E-004  0.1583988E+03  0.7546771E-02  0.1198447E+00
         -2   -1    0    0    0  501 -0.00000000000E+00  0.00000000000E+00  0.54800689029E+02  0.54800689029E+02  0.00000000000E+00 0.  1.
          2   -1    0    0  501    0  0.00000000000E+00 -0.00000000000E+00 -0.39850548983E+03  0.39850548983E+03  0.00000000000E+00 0. -1.
         25    2    1    2    0    0 -0.73331049660E+02 -0.63937585843E+02 -0.22356183973E+03  0.27398920061E+03  0.12499891256E+03 0.  0.
         23    2    1    2    0    0  0.73331049660E+02  0.63937585843E+02 -0.12014296108E+03  0.17931697825E+03  0.90855874137E+02 0.  0.
          5    1    3    3  502    0 -0.60465785994E+02 -0.87877930131E+02 -0.22202448871E+03  0.24636478131E+03  0.47000000000E+01 0. -1.
         -5    1    3    3    0  502 -0.12865263666E+02  0.23940344287E+02 -0.15373510146E+01  0.27624419305E+02  0.47000000000E+01 0. -1.
          5    1    4    4  503    0  0.65763178648E+02 -0.10660972968E+01 -0.73932504339E+02  0.99065823709E+02  0.47000000000E+01 0. -1.
         -5    1    4    4    0  503  0.75678710118E+01  0.65003683140E+02 -0.46210456736E+02  0.80251154541E+02  0.47000000000E+01 0.  1.
<mgrwt>
<rscale>  0 0.15166057E+03</rscale>
<asrwt>0</asrwt>
<pdfrwt beam="1">  1        2 0.61308538E-01 0.15839882E+03</pdfrwt>
<pdfrwt beam="2">  1       -2 0.84308751E-02 0.15839882E+03</pdfrwt>
<totfact> 0.67354481E+03</totfact>
</mgrwt>
</event>
<event>
 8    1  0.3629925E-004  0.1881326E+03  0.7546771E-02  0.1165268E+00
         -2   -1    0    0    0  501 -0.00000000000E+00  0.00000000000E+00  0.50878627698E+02  0.50878627698E+02  0.00000000000E+00 0.  1.
          2   -1    0    0  501    0  0.00000000000E+00 -0.00000000000E+00 -0.62490012494E+03  0.62490012494E+03  0.00000000000E+00 0. -1.
         25    2    1    2    0    0 -0.42023377227E+02  0.13416340912E+03 -0.27439387598E+03  0.33269487157E+03  0.12501237465E+03 0.  0.
         23    2    1    2    0    0  0.42023377227E+02 -0.13416340912E+03 -0.29962762126E+03  0.34308388106E+03  0.90355151715E+02 0.  0.
          5    1    4    4  502    0  0.38048224800E+02 -0.89727274958E+02 -0.27523855907E+03  0.29202226915E+03  0.47000000000E+01 0. -1.
         -5    1    4    4    0  502  0.39751524271E+01 -0.44436134165E+02 -0.24389062190E+02  0.51061611910E+02  0.47000000000E+01 0.  1.
          5    1    3    3  503    0 -0.21334193958E+02  0.12453536731E+03 -0.11283282955E+03  0.16946251198E+03  0.47000000000E+01 0.  1.
         -5    1    3    3    0  503 -0.20689183268E+02  0.96280418085E+01 -0.16156104643E+03  0.16323235959E+03  0.47000000000E+01 0.  1.
<mgrwt>
<rscale>  0 0.18264450E+03</rscale>
<asrwt>0</asrwt>
<pdfrwt beam="1">  1        2 0.96138478E-01 0.18813261E+03</pdfrwt>
<pdfrwt beam="2">  1       -2 0.78274814E-02 0.18813261E+03</pdfrwt>
<totfact> 0.46243729E+03</totfact>
</mgrwt>
</event>
<event>
 8    1  0.3629925E-004  0.1578084E+03  0.7546771E-02  0.1199115E+00
          2   -1    0    0  501    0  0.00000000000E+00  0.00000000000E+00  0.13477264968E+03  0.13477264968E+03  0.00000000000E+00 0. -1.
         -2   -1    0    0    0  501 -0.00000000000E+00 -0.00000000000E+00 -0.20226130157E+03  0.20226130157E+03  0.00000000000E+00 0.  1.
         25    2    1    2    0    0  0.69033960556E+02  0.67186905382E+02 -0.11590705666E+03  0.19580077123E+03  0.12499491295E+03 0.  0.
         23    2    1    2    0    0 -0.69033960556E+02 -0.67186905382E+02  0.48418404766E+02  0.14123318002E+03  0.91228840035E+02 0.  0.
          5    1    3    3  502    0 -0.26306403467E+02  0.47897878892E+02 -0.18047176987E+02  0.57741010234E+02  0.47000000000E+01 0. -1.
         -5    1    3    3    0  502  0.95340364023E+02  0.19289026490E+02 -0.97859879678E+02  0.13805976099E+03  0.47000000000E+01 0. -1.
          5    1    4    4  503    0 -0.26071200645E+02  0.91430529199E+01  0.45536795463E+02  0.53469548911E+02  0.47000000000E+01 0. -1.
         -5    1    4    4    0  503 -0.42962759912E+02 -0.76329958301E+02  0.28816093032E+01  0.87763631110E+02  0.47000000000E+01 0.  1.
<mgrwt>
<rscale>  0 0.15111039E+03</rscale>
<asrwt>0</asrwt>
<pdfrwt beam="1">  1        2 0.20734254E-01 0.15780842E+03</pdfrwt>
<pdfrwt beam="2">  1       -2 0.31117123E-01 0.15780842E+03</pdfrwt>
<totfact> 0.24814586E+03</totfact>
</mgrwt>
</event>
<event>
 8    1  0.3629925E-004  0.1459939E+03  0.7546771E-02  0.1215283E+00
          2   -1    0    0  501    0  0.00000000000E+00  0.00000000000E+00  0.46076876705E+03  0.46076876705E+03  0.00000000000E+00 0. -1.
         -2   -1    0    0    0  501 -0.00000000000E+00 -0.00000000000E+00 -0.39514992830E+02  0.39514992830E+02  0.00000000000E+00 0.  1.
         25    2    1    2    0    0 -0.22662639910E+02  0.71947073037E+02  0.28136038810E+03  0.31698245358E+03  0.12499692525E+03 0.  0.
         23    2    1    2    0    0  0.22662639910E+02 -0.71947073037E+02  0.13989338613E+03  0.18330130630E+03  0.91319400154E+02 0.  0.
          5    1    4    4  502    0 -0.27818776998E+02 -0.11709782660E+02  0.75983916422E+02  0.81894132381E+02  0.47000000000E+01 0. -1.
         -5    1    4    4    0  502  0.50481416908E+02 -0.60237290378E+02  0.63909469704E+02  0.10140717392E+03  0.47000000000E+01 0.  1.
          5    1    3    3  503    0  0.28154741421E+02 -0.23304517000E+02  0.55750349662E+02  0.66827999107E+02  0.47000000000E+01 0.  1.
         -5    1    3    3    0  503 -0.50817381331E+02  0.95251590038E+02  0.22561003844E+03  0.25015445447E+03  0.47000000000E+01 0.  1.
<mgrwt>
<rscale>  0 0.13855752E+03</rscale>
<asrwt>0</asrwt>
<pdfrwt beam="1">  1        2 0.70887499E-01 0.14599386E+03</pdfrwt>
<pdfrwt beam="2">  1       -2 0.60792300E-02 0.14599386E+03</pdfrwt>
<totfact> 0.94701378E+03</totfact>
</mgrwt>
</event>
<event>
 8    1  0.3629925E-004  0.1591307E+03  0.7546771E-02  0.1197502E+00
         -1   -1    0    0    0  501 -0.00000000000E+00  0.00000000000E+00  0.24575681718E+03  0.24575681718E+03  0.00000000000E+00 0.  1.
          1   -1    0    0  501    0  0.00000000000E+00 -0.00000000000E+00 -0.93212441869E+02  0.93212441869E+02  0.00000000000E+00 0. -1.
         25    2    1    2    0    0  0.54009774467E+02  0.82379763720E+02  0.40304307513E+02  0.16415548262E+03  0.12497641402E+03 0.  0.
         23    2    1    2    0    0 -0.54009774467E+02 -0.82379763720E+02  0.11224006780E+03  0.17481377643E+03  0.90876522829E+02 0.  0.
          5    1    4    4  502    0 -0.34144350428E+02 -0.91451946536E+02  0.52297853471E+02  0.11084426313E+03  0.47000000000E+01 0. -1.
         -5    1    3    3    0  503  0.67564881492E+02 -0.74015992146E+01  0.19825235879E+02  0.70957218517E+02  0.47000000000E+01 0.  1.
          5    1    3    3  503    0 -0.13555107026E+02  0.89781362935E+02  0.20479071634E+02  0.93198264103E+02  0.47000000000E+01 0.  1.
         -5    1    4    4    0  502 -0.19865424039E+02  0.90721828159E+01  0.59942214324E+02  0.63969513296E+02  0.47000000000E+01 0.  1.
<mgrwt>
<rscale>  0 0.15244386E+03</rscale>
<asrwt>0</asrwt>
<pdfrwt beam="1">  1        1 0.14340376E-01 0.15913072E+03</pdfrwt>
<pdfrwt beam="2">  1       -1 0.37808741E-01 0.15913072E+03</pdfrwt>
<totfact> 0.26321114E+03</totfact>
</mgrwt>
</event>
<event>
 8    1  0.3629925E-004  0.1717467E+03  0.7546771E-02  0.1181539E+00
         -3   -1    0    0    0  501 -0.00000000000E+00  0.00000000000E+00  0.48146564451E+03  0.48146564451E+03  0.00000000000E+00 0.  1.
          3   -1    0    0  501    0  0.00000000000E+00 -0.00000000000E+00 -0.15888113940E+03  0.15888113940E+03  0.00000000000E+00 0. -1.
         25    2    1    2    0    0 -0.21705349488E+01 -0.11775977489E+03 -0.94845926437E+02  0.19619549624E+03  0.12499938872E+03 0.  0.
         23    2    1    2    0    0  0.21705349488E+01  0.11775977489E+03  0.41743043154E+03  0.44415128767E+03  0.95656287593E+02 0.  0.
          5    1    4    4  502    0  0.21716206012E+02  0.10347220206E+02  0.19015067001E+02  0.31021304656E+02  0.47000000000E+01 0. -1.
         -5    1    3    3    0  503  0.47761437835E+02 -0.42837368299E+02  0.13630807510E+01  0.64343943429E+02  0.47000000000E+01 0. -1.
          5    1    3    3  503    0 -0.49931972784E+02 -0.74922406593E+02 -0.96209007188E+02  0.13185155282E+03  0.47000000000E+01 0. -1.
         -5    1    4    4    0  502 -0.19545671063E+02  0.10741255469E+03  0.39841536454E+03  0.41312998301E+03  0.47000000000E+01 0.  1.
<mgrwt>
<rscale>  0 0.16650782E+03</rscale>
<asrwt>0</asrwt>
<pdfrwt beam="1">  1        3 0.24443252E-01 0.17174668E+03</pdfrwt>
<pdfrwt beam="2">  1       -3 0.74071637E-01 0.17174668E+03</pdfrwt>
<totfact> 0.66512908E+01</totfact>
</mgrwt>
</event>
<event>
 8    1  0.3629925E-004  0.1798106E+03  0.7546771E-02  0.1174215E+00
         -2   -1    0    0    0  501 -0.00000000000E+00  0.00000000000E+00  0.13122933350E+03  0.13122933350E+03  0.00000000000E+00 0.  1.
          2   -1    0    0  501    0  0.00000000000E+00 -0.00000000000E+00 -0.21547938171E+03  0.21547938171E+03  0.00000000000E+00 0. -1.
         25    2    1    2    0    0 -0.10967057632E+03 -0.68397491719E+02 -0.54796291462E+02  0.18797470513E+03  0.12500401604E+03 0.  0.
         23    2    1    2    0    0  0.10967057632E+03  0.68397491719E+02 -0.29453756745E+02  0.15873401009E+03  0.87310423129E+02 0.  0.
          5    1    3    3  502    0 -0.13946738264E+02 -0.74726392455E+02  0.23755832221E+01  0.76198941156E+02  0.47000000000E+01 0. -1.
         -5    1    3    3    0  502 -0.95723838059E+02  0.63289007358E+01 -0.57171874685E+02  0.11177576398E+03  0.47000000000E+01 0. -1.
          5    1    4    4  503    0  0.10835017192E+03  0.47393615540E+02 -0.50429432270E+02  0.12865120360E+03  0.47000000000E+01 0. -1.
         -5    1    4    4    0  503  0.13204044053E+01  0.21003876180E+02  0.20975675525E+02  0.30082806486E+02  0.47000000000E+01 0.  1.
<mgrwt>
<rscale>  0 0.17353095E+03</rscale>
<asrwt>0</asrwt>
<pdfrwt beam="1">  1        2 0.33150674E-01 0.17981061E+03</pdfrwt>
<pdfrwt beam="2">  1       -2 0.20189128E-01 0.17981061E+03</pdfrwt>
<totfact> 0.31771418E+03</totfact>
</mgrwt>
</event>
<event>
 8    1  0.3629925E-004  0.1289333E+03  0.7546771E-02  0.1242622E+00
         -1   -1    0    0    0  501 -0.00000000000E+00  0.00000000000E+00  0.22452644178E+03  0.22452644178E+03  0.00000000000E+00 0.  1.
          1   -1    0    0  501    0  0.00000000000E+00 -0.00000000000E+00 -0.57182297831E+02  0.57182297831E+02  0.00000000000E+00 0. -1.
         25    2    1    2    0    0 -0.29567968093E+02 -0.11020618199E+02  0.96271022415E+02  0.16090963884E+03  0.12501233280E+03 0.  0.
         23    2    1    2    0    0  0.29567968093E+02  0.11020618199E+02  0.71073121536E+02  0.12079910078E+03  0.92440875054E+02 0.  0.
          5    1    4    4  502    0  0.53370462789E+02 -0.20707065584E+02  0.37247202841E+02  0.68458987598E+02  0.47000000000E+01 0. -1.
         -5    1    4    4    0  502 -0.23802494696E+02  0.31727683782E+02  0.33825918695E+02  0.52340113178E+02  0.47000000000E+01 0.  1.
          5    1    3    3  503    0  0.35529513078E+02 -0.41123018858E+02  0.57448981021E+02  0.79220732134E+02  0.47000000000E+01 0. -1.
         -5    1    3    3    0  503 -0.65097481171E+02  0.30102400659E+02  0.38822041394E+02  0.81688906703E+02  0.47000000000E+01 0. -1.
<mgrwt>
<rscale>  0 0.12028828E+03</rscale>
<asrwt>0</asrwt>
<pdfrwt beam="1">  1        1 0.87972767E-02 0.12893332E+03</pdfrwt>
<pdfrwt beam="2">  1       -1 0.34542529E-01 0.12893332E+03</pdfrwt>
<totfact> 0.57896177E+03</totfact>
</mgrwt>
</event>
<event>
 8    1  0.3629925E-004  0.1339371E+03  0.7546771E-02  0.1234215E+00
         -1   -1    0    0    0  501 -0.00000000000E+00  0.00000000000E+00  0.28999357390E+02  0.28999357390E+02  0.00000000000E+00 0.  1.
          1   -1    0    0  501    0  0.00000000000E+00 -0.00000000000E+00 -0.48625451231E+03  0.48625451231E+03  0.00000000000E+00 0. -1.
         25    2    1    2    0    0 -0.16529043798E+02 -0.45181035570E+02 -0.26720394068E+03  0.29889309283E+03  0.12499839904E+03 0.  0.
         23    2    1    2    0    0  0.16529043798E+02  0.45181035570E+02 -0.19005121424E+03  0.21636077687E+03  0.91531341463E+02 0.  0.
          5    1    3    3  502    0 -0.80059041487E+01 -0.88710333305E+02 -0.18443271178E+03  0.20486857473E+03  0.47000000000E+01 0. -1.
         -5    1    3    3    0  502 -0.85231396493E+01  0.43529297735E+02 -0.82771228900E+02  0.94024518102E+02  0.47000000000E+01 0. -1.
          5    1    4    4  503    0 -0.35297947612E+02  0.22121260301E+02 -0.11329764460E+03  0.12080455925E+03  0.47000000000E+01 0. -1.
         -5    1    4    4    0  503  0.51826991410E+02  0.23059775269E+02 -0.76753569638E+02  0.95556217622E+02  0.47000000000E+01 0.  1.
<mgrwt>
<rscale>  0 0.12554823E+03</rscale>
<asrwt>0</asrwt>
<pdfrwt beam="1">  1        1 0.74808383E-01 0.13393706E+03</pdfrwt>
<pdfrwt beam="2">  1       -1 0.44614398E-02 0.13393706E+03</pdfrwt>
<totfact> 0.93221317E+03</totfact>
</mgrwt>
</event>
<event>
 8    1  0.3629925E-004  0.1767536E+03  0.7546771E-02  0.1177004E+00
         -1   -1    0    0    0  501 -0.00000000000E+00  0.00000000000E+00  0.51484234324E+02  0.51484234324E+02  0.00000000000E+00 0.  1.
          1   -1    0    0  501    0  0.00000000000E+00 -0.00000000000E+00 -0.55520742595E+03  0.55520742595E+03  0.00000000000E+00 0. -1.
         25    2    1    2    0    0 -0.97279094818E+02 -0.78432480202E+02 -0.33057141131E+03  0.37485904977E+03  0.12500789165E+03 0.  0.
         23    2    1    2    0    0  0.97279094818E+02  0.78432480202E+02 -0.17315178032E+03  0.23183261051E+03  0.90277040437E+02 0.  0.
          5    1    3    3  502    0 -0.19950746107E+02  0.31730364634E+01 -0.20580499335E+03  0.20684749387E+03  0.47000000000E+01 0. -1.
         -5    1    4    4    0  503  0.78530134992E+02  0.92785589483E+02 -0.10909609754E+03  0.16340194679E+03  0.47000000000E+01 0.  1.
          5    1    4    4  503    0  0.18748959826E+02 -0.14353109281E+02 -0.64055682779E+02  0.68430663718E+02  0.47000000000E+01 0. -1.
         -5    1    3    3    0  502 -0.77328348711E+02 -0.81605516666E+02 -0.12476641796E+03  0.16801155590E+03  0.47000000000E+01 0. -1.
<mgrwt>
<rscale>  0 0.17081189E+03</rscale>
<asrwt>0</asrwt>
<pdfrwt beam="1">  1        1 0.85416524E-01 0.17675364E+03</pdfrwt>
<pdfrwt beam="2">  1       -1 0.79206517E-02 0.17675364E+03</pdfrwt>
<totfact> 0.33664053E+03</totfact>
</mgrwt>
</event>
<event>
 8    1  0.3629925E-004  0.1514030E+03  0.7546771E-02  0.1207768E+00
         -1   -1    0    0    0  501 -0.00000000000E+00  0.00000000000E+00  0.21757603774E+02  0.21757603774E+02  0.00000000000E+00 0.  1.
          1   -1    0    0  501    0  0.00000000000E+00 -0.00000000000E+00 -0.98266777629E+03  0.98266777629E+03  0.00000000000E+00 0. -1.
         25    2    1    2    0    0 -0.23189702465E+02  0.82212885687E+02 -0.68711163536E+03  0.70359452708E+03  0.12500455281E+03 0.  0.
         23    2    1    2    0    0  0.23189702465E+02 -0.82212885687E+02 -0.27379853716E+03  0.30083085298E+03  0.90757050872E+02 0.  0.
          5    1    4    4  502    0  0.18290490758E+01 -0.32203942448E+02 -0.22581545002E+03  0.22815597033E+03  0.47000000000E+01 0. -1.
         -5    1    3    3    0  503 -0.49617146555E+02 -0.34697046941E+01 -0.39071935608E+03  0.39390050177E+03  0.47000000000E+01 0. -1.
          5    1    3    3  503    0  0.26427444090E+02  0.85682590381E+02 -0.29639227928E+03  0.30969402531E+03  0.47000000000E+01 0. -1.
         -5    1    4    4    0  502  0.21360653390E+02 -0.50008943239E+02 -0.47983087136E+02  0.72674882650E+02  0.47000000000E+01 0.  1.
<mgrwt>
<rscale>  0 0.14421475E+03</rscale>
<asrwt>0</asrwt>
<pdfrwt beam="1">  1        1 0.15117962E+00 0.15140297E+03</pdfrwt>
<pdfrwt beam="2">  1       -1 0.33473244E-02 0.15140297E+03</pdfrwt>
<totfact> 0.51759109E+03</totfact>
</mgrwt>
</event>
<event>
 8    1  0.3629925E-004  0.2751219E+03  0.7546771E-02  0.1100812E+00
          2   -1    0    0  501    0  0.00000000000E+00  0.00000000000E+00  0.38946828451E+03  0.38946828451E+03  0.00000000000E+00 0. -1.
         -2   -1    0    0    0  501 -0.00000000000E+00 -0.00000000000E+00 -0.18688411078E+03  0.18688411078E+03  0.00000000000E+00 0.  1.
         25    2    1    2    0    0  0.22844121158E+03 -0.88777810788E+02  0.61055912474E+02  0.28181535076E+03  0.12500072255E+03 0.  0.
         23    2    1    2    0    0 -0.22844121158E+03  0.88777810788E+02  0.14152826126E+03  0.29453704453E+03  0.81577785144E+02 0.  0.
          5    1    3    3  502    0  0.72320138421E+02 -0.14838113943E+02 -0.37436233768E+02  0.82909189149E+02  0.47000000000E+01 0. -1.
         -5    1    3    3    0  502  0.15612107316E+03 -0.73939696845E+02  0.98492146242E+02  0.19890616161E+03  0.47000000000E+01 0. -1.
          5    1    4    4  503    0 -0.81421883820E+02  0.19635679128E+02  0.92268035200E+02  0.12470189806E+03  0.47000000000E+01 0. -1.
         -5    1    4    4    0  503 -0.14701932776E+03  0.69142131659E+02  0.49260226056E+02  0.16983514647E+03  0.47000000000E+01 0.  1.
<mgrwt>
<rscale>  0 0.27081791E+03</rscale>
<asrwt>0</asrwt>
<pdfrwt beam="1">  1        2 0.59918197E-01 0.27512191E+03</pdfrwt>
<pdfrwt beam="2">  1       -2 0.28751402E-01 0.27512191E+03</pdfrwt>
<totfact> 0.91046068E+02</totfact>
</mgrwt>
</event>
<event>
 8    1  0.3629925E-004  0.1362817E+03  0.7546771E-02  0.1230187E+00
         -1   -1    0    0    0  501 -0.00000000000E+00  0.00000000000E+00  0.62203574609E+03  0.62203574609E+03  0.00000000000E+00 0.  1.
          1   -1    0    0  501    0  0.00000000000E+00 -0.00000000000E+00 -0.27362407103E+02  0.27362407103E+02  0.00000000000E+00 0. -1.
         25    2    1    2    0    0  0.36807186250E+02 -0.39931251716E+02  0.21103270299E+03  0.25121204697E+03  0.12499366780E+03 0.  0.
         23    2    1    2    0    0 -0.36807186250E+02  0.39931251716E+02  0.38364063600E+03  0.39818610622E+03  0.91775616438E+02 0.  0.
          5    1    4    4  502    0 -0.48612356909E+02 -0.13747916238E+02  0.16052017008E+03  0.16834779905E+03  0.47000000000E+01 0. -1.
         -5    1    3    3    0  503 -0.32454849435E+02 -0.12489706636E+01  0.88770449918E+01  0.33996604350E+02  0.47000000000E+01 0. -1.
          5    1    3    3  503    0  0.69262035684E+02 -0.38682281053E+02  0.20215565799E+03  0.21721544262E+03  0.47000000000E+01 0. -1.
         -5    1    4    4    0  502  0.11805170659E+02  0.53679167955E+02  0.22312046593E+03  0.22983830717E+03  0.47000000000E+01 0.  1.
<mgrwt>
<rscale>  0 0.12817633E+03</rscale>
<asrwt>0</asrwt>
<pdfrwt beam="1">  1        1 0.42096016E-02 0.13628166E+03</pdfrwt>
<pdfrwt beam="2">  1       -1 0.95697796E-01 0.13628166E+03</pdfrwt>
<totfact> 0.22789878E+03</totfact>
</mgrwt>
</event>
<event>
 8    1  0.3629925E-004  0.1948950E+03  0.7546771E-02  0.1158671E+00
          2   -1    0    0  501    0  0.00000000000E+00  0.00000000000E+00  0.70487901830E+03  0.70487901830E+03  0.00000000000E+00 0. -1.
         -2   -1    0    0    0  501 -0.00000000000E+00 -0.00000000000E+00 -0.52771279136E+02  0.52771279136E+02  0.00000000000E+00 0.  1.
         25    2    1    2    0    0  0.14790762306E+03 -0.21982803954E+02  0.23534565127E+03  0.30556773074E+03  0.12499661545E+03 0.  0.
         23    2    1    2    0    0 -0.14790762306E+03  0.21982803954E+02  0.41676208790E+03  0.45208256669E+03  0.91258427392E+02 0.  0.
          5    1    4    4  502    0 -0.71029016016E+02  0.48790287645E+02  0.27845155141E+03  0.29151838667E+03  0.47000000000E+01 0. -1.
         -5    1    3    3    0  503  0.11274318219E+03  0.70484541537E+01  0.67728629693E+02  0.13179515589E+03  0.47000000000E+01 0. -1.
          5    1    3    3  503    0  0.35164440865E+02 -0.29031258108E+02  0.16761702157E+03  0.17377257485E+03  0.47000000000E+01 0. -1.
         -5    1    4    4    0  502 -0.76878607042E+02 -0.26807483691E+02  0.13831053649E+03  0.16056418003E+03  0.47000000000E+01 0.  1.
<mgrwt>
<rscale>  0 0.18976741E+03</rscale>
<asrwt>0</asrwt>
<pdfrwt beam="1">  1        2 0.10844292E+00 0.19489500E+03</pdfrwt>
<pdfrwt beam="2">  1       -2 0.81186588E-02 0.19489500E+03</pdfrwt>
<totfact> 0.37925827E+03</totfact>
</mgrwt>
</event>
<event>
 8    1  0.3629925E-004  0.1356174E+03  0.7546771E-02  0.1229898E+00
         -1   -1    0    0    0  501 -0.00000000000E+00  0.00000000000E+00  0.97320634817E+02  0.97320634817E+02  0.00000000000E+00 0.  1.
          1   -1    0    0  501    0  0.00000000000E+00 -0.00000000000E+00 -0.22482134649E+03  0.22482134649E+03  0.00000000000E+00 0. -1.
         25    2    1    2    0    0  0.96513393901E+01 -0.51715267503E+02 -0.15883906517E+03  0.20885860618E+03  0.12499780600E+03 0.  0.
         23    2    1    2    0    0 -0.96513393901E+01  0.51715267503E+02  0.31338353498E+02  0.11328337513E+03  0.95306943272E+02 0.  0.
          5    1    4    4  502    0 -0.19023623928E+02 -0.24662002659E+02  0.12740593304E+02  0.33978307201E+02  0.47000000000E+01 0. -1.
         -5    1    3    3    0  503 -0.96806457652E+01  0.39519096791E+02 -0.35805430418E+02  0.54402139305E+02  0.47000000000E+01 0. -1.
          5    1    3    3  503    0  0.19331985155E+02 -0.91234364294E+02 -0.12303363476E+03  0.15445646688E+03  0.47000000000E+01 0. -1.
         -5    1    4    4    0  502  0.93722845382E+01  0.76377270162E+02  0.18597760194E+02  0.79305067928E+02  0.47000000000E+01 0.  1.
<mgrwt>
<rscale>  0 0.12836777E+03</rscale>
<asrwt>0</asrwt>
<pdfrwt beam="1">  1        1 0.34587899E-01 0.13561736E+03</pdfrwt>
<pdfrwt beam="2">  1       -1 0.14972406E-01 0.13561736E+03</pdfrwt>
<totfact> 0.39192160E+03</totfact>
</mgrwt>
</event>
<event>
 8    1  0.3629925E-004  0.1460941E+03  0.7546771E-02  0.1215169E+00
          1   -1    0    0  501    0  0.00000000000E+00  0.00000000000E+00  0.31891123841E+03  0.31891123841E+03  0.00000000000E+00 0. -1.
         -1   -1    0    0    0  501 -0.00000000000E+00 -0.00000000000E+00 -0.54898914944E+02  0.54898914944E+02  0.00000000000E+00 0.  1.
         25    2    1    2    0    0  0.56615876074E+02  0.50097397668E+02  0.14949527486E+03  0.20902708827E+03  0.12501351826E+03 0.  0.
         23    2    1    2    0    0 -0.56615876074E+02 -0.50097397668E+02  0.11451704860E+03  0.16478306508E+03  0.91237039847E+02 0.  0.
          5    1    4    4  502    0 -0.76613842077E+02 -0.16120330700E+02  0.81904463745E+02  0.11340183879E+03  0.47000000000E+01 0. -1.
         -5    1    4    4    0  502  0.19997966004E+02 -0.33977066967E+02  0.32612584859E+02  0.51381226291E+02  0.47000000000E+01 0.  1.
          5    1    3    3  503    0 -0.38485046320E+02  0.13221208596E+02  0.63318121551E+02  0.75413352026E+02  0.47000000000E+01 0.  1.
         -5    1    3    3    0  503  0.95100922394E+02  0.36876189072E+02  0.86177153307E+02  0.13361373624E+03  0.47000000000E+01 0.  1.
<mgrwt>
<rscale>  0 0.13864133E+03</rscale>
<asrwt>0</asrwt>
<pdfrwt beam="1">  1        1 0.49063266E-01 0.14609410E+03</pdfrwt>
<pdfrwt beam="2">  1       -1 0.84459871E-02 0.14609410E+03</pdfrwt>
<totfact> 0.61611413E+03</totfact>
</mgrwt>
</event>
<event>
 8    1  0.3629925E-004  0.1252671E+03  0.7546771E-02  0.1249645E+00
          2   -1    0    0  501    0  0.00000000000E+00  0.00000000000E+00  0.43818198029E+03  0.43818198029E+03  0.00000000000E+00 0. -1.
         -2   -1    0    0    0  501 -0.00000000000E+00 -0.00000000000E+00 -0.27154610166E+02  0.27154610166E+02  0.00000000000E+00 0.  1.
         25    2    1    2    0    0  0.73206448343E+01  0.36040241211E+01  0.25047939753E+03  0.28005673273E+03  0.12500105651E+03 0.  0.
         23    2    1    2    0    0 -0.73206448343E+01 -0.36040241211E+01  0.16054797260E+03  0.18527985773E+03  0.92121622570E+02 0.  0.
          5    1    3    3  502    0  0.40705398386E+02  0.68727380185E+01  0.24145431628E+03  0.24500294047E+03  0.47000000000E+01 0. -1.
         -5    1    4    4    0  503 -0.21429023236E+02  0.39816833736E+02  0.65495117325E+02  0.79726304813E+02  0.47000000000E+01 0.  1.
          5    1    4    4  503    0  0.14108378402E+02 -0.43420857858E+02  0.95052855275E+02  0.10555355292E+03  0.47000000000E+01 0. -1.
         -5    1    3    3    0  502 -0.33384753552E+02 -0.32687138975E+01  0.90250812447E+01  0.35053792259E+02  0.47000000000E+01 0. -1.
<mgrwt>
<rscale>  0 0.11611609E+03</rscale>
<asrwt>0</asrwt>
<pdfrwt beam="1">  1        2 0.67412607E-01 0.12526709E+03</pdfrwt>
<pdfrwt beam="2">  1       -2 0.41776327E-02 0.12526709E+03</pdfrwt>
<totfact> 0.17362363E+04</totfact>
</mgrwt>
</event>
<event>
 8    1  0.3629925E-004  0.1294227E+03  0.7546771E-02  0.1241412E+00
         -1   -1    0    0    0  501 -0.00000000000E+00  0.00000000000E+00  0.22351461771E+02  0.22351461771E+02  0.00000000000E+00 0.  1.
          1   -1    0    0  501    0  0.00000000000E+00 -0.00000000000E+00 -0.76364600084E+03  0.76364600084E+03  0.00000000000E+00 0. -1.
         25    2    1    2    0    0  0.26747028422E+02  0.20220993624E+02 -0.59801389356E+03  0.61185852682E+03  0.12500379131E+03 0.  0.
         23    2    1    2    0    0 -0.26747028422E+02 -0.20220993624E+02 -0.14328064550E+03  0.17413893578E+03  0.93116773286E+02 0.  0.
          5    1    3    3  502    0  0.74519672194E+02  0.10777082373E+02 -0.44076983180E+03  0.44717945131E+03  0.47000000000E+01 0. -1.
         -5    1    4    4    0  503 -0.38333875682E+02 -0.38026354897E+02 -0.36928885757E+02  0.65584466871E+02  0.47000000000E+01 0.  1.
          5    1    4    4  503    0  0.11586847260E+02  0.17805361273E+02 -0.10635175975E+03  0.10855446891E+03  0.47000000000E+01 0. -1.
         -5    1    3    3    0  502 -0.47772643773E+02  0.94439112509E+01 -0.15724406176E+03  0.16467907551E+03  0.47000000000E+01 0. -1.
<mgrwt>
<rscale>  0 0.12102737E+03</rscale>
<asrwt>0</asrwt>
<pdfrwt beam="1">  1        1 0.11748398E+00 0.12942272E+03</pdfrwt>
<pdfrwt beam="2">  1       -1 0.34386871E-02 0.12942272E+03</pdfrwt>
<totfact> 0.73345959E+03</totfact>
</mgrwt>
</event>
<event>
 8    1  0.3629925E-004  0.1461928E+03  0.7546771E-02  0.1214696E+00
         -4   -1    0    0    0  501 -0.00000000000E+00  0.00000000000E+00  0.31526806495E+03  0.31526806495E+03  0.00000000000E+00 0.  1.
          4   -1    0    0  501    0  0.00000000000E+00 -0.00000000000E+00 -0.89797683300E+02  0.89797683300E+02  0.00000000000E+00 0. -1.
         25    2    1    2    0    0 -0.39522095240E+02 -0.64701685389E+02  0.24375842151E+03  0.28423668505E+03  0.12499608382E+03 0.  0.
         23    2    1    2    0    0  0.39522095240E+02  0.64701685389E+02 -0.18288039858E+02  0.12082906320E+03  0.92287084724E+02 0.  0.
          5    1    3    3  502    0 -0.36012664813E+02 -0.93091137129E+02  0.11542218982E+03  0.15266710104E+03  0.47000000000E+01 0. -1.
         -5    1    4    4    0  503  0.53093571384E+02  0.80691709183E+02 -0.81049936805E+01  0.97045660263E+02  0.47000000000E+01 0.  1.
          5    1    4    4  503    0 -0.13571476145E+02 -0.15990023794E+02 -0.10183046177E+02  0.23783402934E+02  0.47000000000E+01 0. -1.
         -5    1    3    3    0  502 -0.35094304273E+01  0.28389451741E+02  0.12833623169E+03  0.13156958401E+03  0.47000000000E+01 0. -1.
<mgrwt>
<rscale>  0 0.13898860E+03</rscale>
<asrwt>0</asrwt>
<pdfrwt beam="1">  1        4 0.13815028E-01 0.14619277E+03</pdfrwt>
<pdfrwt beam="2">  1       -4 0.48502779E-01 0.14619277E+03</pdfrwt>
<totfact> 0.30323851E+02</totfact>
</mgrwt>
</event>
<event>
 8    1  0.3629925E-004  0.1282810E+03  0.7546771E-02  0.1244331E+00
          1   -1    0    0  501    0  0.00000000000E+00  0.00000000000E+00  0.12921546829E+03  0.12921546829E+03  0.00000000000E+00 0. -1.
         -1   -1    0    0    0  501 -0.00000000000E+00 -0.00000000000E+00 -0.10399983312E+03  0.10399983312E+03  0.00000000000E+00 0.  1.
         25    2    1    2    0    0  0.28652320639E+02  0.34103536069E+01  0.43926663813E+02  0.13559337719E+03  0.12499370446E+03 0.  0.
         23    2    1    2    0    0 -0.28652320639E+02 -0.34103536069E+01 -0.18711028641E+02  0.97621924207E+02  0.91363841335E+02 0.  0.
          5    1    4    4  502    0 -0.45392325274E+02 -0.28519749487E+02  0.11095813420E+02  0.54945849525E+02  0.47000000000E+01 0. -1.
         -5    1    3    3    0  503  0.70352225950E+02  0.58346594275E+01  0.57768806152E+02  0.91338950679E+02  0.47000000000E+01 0. -1.
          5    1    3    3  503    0 -0.41699905312E+02 -0.24243058206E+01 -0.13842142339E+02  0.44254426516E+02  0.47000000000E+01 0. -1.
         -5    1    4    4    0  502  0.16740004635E+02  0.25109395880E+02 -0.29806842061E+02  0.42676074682E+02  0.47000000000E+01 0.  1.
<mgrwt>
<rscale>  0 0.11925503E+03</rscale>
<asrwt>0</asrwt>
<pdfrwt beam="1">  1        1 0.19879303E-01 0.12828099E+03</pdfrwt>
<pdfrwt beam="2">  1       -1 0.15999974E-01 0.12828099E+03</pdfrwt>
<totfact> 0.70386758E+03</totfact>
</mgrwt>
</event>
<event>
 8    1  0.3629925E-004  0.1508413E+03  0.7546771E-02  0.1209937E+00
          1   -1    0    0  501    0  0.00000000000E+00  0.00000000000E+00  0.10919856576E+04  0.10919856576E+04  0.00000000000E+00 0. -1.
         -1   -1    0    0    0  501 -0.00000000000E+00 -0.00000000000E+00 -0.17392598293E+02  0.17392598293E+02  0.00000000000E+00 0.  1.
         25    2    1    2    0    0 -0.34284400674E+02 -0.77144293679E+02  0.49695468429E+03  0.51934289933E+03  0.12500570654E+03 0.  0.
         23    2    1    2    0    0  0.34284400674E+02  0.77144293679E+02  0.57763837503E+03  0.59003535658E+03  0.85726119291E+02 0.  0.
          5    1    3    3  502    0 -0.54051654554E+02  0.12011984075E+02  0.13441194383E+03  0.14544596855E+03  0.47000000000E+01 0. -1.
         -5    1    4    4    0  503 -0.15119198445E+02  0.32486325508E+02  0.78107495730E+02  0.86062897905E+02  0.47000000000E+01 0.  1.
          5    1    4    4  503    0  0.49403599119E+02  0.44657968172E+02  0.49953087930E+03  0.50397245867E+03  0.47000000000E+01 0. -1.
         -5    1    3    3    0  502  0.19767253881E+02 -0.89156277754E+02  0.36254274046E+03  0.37389693078E+03  0.47000000000E+01 0. -1.
<mgrwt>
<rscale>  0 0.14255085E+03</rscale>
<asrwt>0</asrwt>
<pdfrwt beam="1">  1        1 0.16799774E+00 0.15084127E+03</pdfrwt>
<pdfrwt beam="2">  1       -1 0.26757852E-02 0.15084127E+03</pdfrwt>
<totfact> 0.59807148E+03</totfact>
</mgrwt>
</event>
<event>
 8    1  0.3629925E-004  0.1344553E+03  0.7546771E-02  0.1233759E+00
          2   -1    0    0  501    0  0.00000000000E+00  0.00000000000E+00  0.68220724012E+03  0.68220724012E+03  0.00000000000E+00 0.  1.
         -2   -1    0    0    0  501 -0.00000000000E+00 -0.00000000000E+00 -0.20853884796E+02  0.20853884796E+02  0.00000000000E+00 0. -1.
         25    2    1    2    0    0 -0.14482686494E+02 -0.47359825255E+02  0.40446509532E+03  0.42622793525E+03  0.12500215279E+03 0.  0.
         23    2    1    2    0    0  0.14482686494E+02  0.47359825255E+02  0.25688826000E+03  0.27683318966E+03  0.90511521452E+02 0.  0.
          5    1    3    3  502    0 -0.47121408405E+02  0.24578656346E+02  0.19965270461E+03  0.20665872819E+03  0.47000000000E+01 0. -1.
         -5    1    4    4    0  503 -0.76037149560E+01  0.69631858905E+02  0.19574332719E+03  0.20795180306E+03  0.47000000000E+01 0.  1.
          5    1    4    4  503    0  0.22086401450E+02 -0.22272033650E+02  0.61144932807E+02  0.68881386600E+02  0.47000000000E+01 0. -1.
         -5    1    3    3    0  502  0.32638721911E+02 -0.71938481601E+02  0.20481239071E+03  0.21956920707E+03  0.47000000000E+01 0. -1.
<mgrwt>
<rscale>  0 0.12584239E+03</rscale>
<asrwt>0</asrwt>
<pdfrwt beam="1">  1        2 0.10495494E+00 0.13445534E+03</pdfrwt>
<pdfrwt beam="2">  1       -2 0.32082905E-02 0.13445534E+03</pdfrwt>
<totfact> 0.15733394E+04</totfact>
</mgrwt>
</event>
<event>
 8    1  0.3629925E-004  0.1330936E+03  0.7546771E-02  0.1236109E+00
          1   -1    0    0  501    0  0.00000000000E+00  0.00000000000E+00  0.10230960613E+03  0.10230960613E+03  0.00000000000E+00 0. -1.
         -1   -1    0    0    0  501 -0.00000000000E+00 -0.00000000000E+00 -0.15904176202E+03  0.15904176202E+03  0.00000000000E+00 0.  1.
         25    2    1    2    0    0 -0.45344691385E+02 -0.57284237109E+01 -0.82710219803E+02  0.15670001532E+03  0.12499983386E+03 0.  0.
         23    2    1    2    0    0  0.45344691385E+02  0.57284237109E+01  0.25978063914E+02  0.10465135284E+03  0.90488065353E+02 0.  0.
          5    1    3    3  502    0 -0.51321760690E+02  0.23365144480E+02 -0.10499470801E+03  0.11927209149E+03  0.47000000000E+01 0.  1.
         -5    1    4    4    0  503  0.33263105534E+02 -0.33657746474E+02 -0.11316822613E+02  0.48881883776E+02  0.47000000000E+01 0.  1.
          5    1    4    4  503    0  0.12081585852E+02  0.39386170185E+02  0.37294886527E+02  0.55769469063E+02  0.47000000000E+01 0. -1.
         -5    1    3    3    0  502  0.59770693046E+01 -0.29093568191E+02  0.22284488210E+02  0.37427923831E+02  0.47000000000E+01 0.  1.
<mgrwt>
<rscale>  0 0.12433732E+03</rscale>
<asrwt>0</asrwt>
<pdfrwt beam="1">  1        1 0.15739939E-01 0.13309363E+03</pdfrwt>
<pdfrwt beam="2">  1       -1 0.24467963E-01 0.13309363E+03</pdfrwt>
<totfact> 0.48148084E+03</totfact>
</mgrwt>
</event>
<event>
 8    1  0.3629925E-004  0.1407900E+03  0.7546771E-02  0.1222526E+00
          1   -1    0    0  501    0  0.00000000000E+00  0.00000000000E+00  0.16602708832E+03  0.16602708832E+03  0.00000000000E+00 0. -1.
         -1   -1    0    0    0  501 -0.00000000000E+00 -0.00000000000E+00 -0.98733662331E+02  0.98733662331E+02  0.00000000000E+00 0.  1.
         25    2    1    2    0    0  0.17951464162E+02  0.62261303668E+02  0.21338872166E+02  0.14239798093E+03  0.12499244980E+03 0.  0.
         23    2    1    2    0    0 -0.17951464162E+02 -0.62261303668E+02  0.45954553821E+02  0.12236276972E+03  0.93070410960E+02 0.  0.
          5    1    3    3  502    0  0.51041443251E+02 -0.14319805322E+02 -0.80463148442E+01  0.53824891418E+02  0.47000000000E+01 0.  1.
         -5    1    3    3    0  502 -0.33089979089E+02  0.76581108989E+02  0.29385187010E+02  0.88573089512E+02  0.47000000000E+01 0.  1.
          5    1    4    4  503    0 -0.28072751968E+02 -0.18536720087E+02  0.65032939245E+02  0.73369357237E+02  0.47000000000E+01 0. -1.
         -5    1    4    4    0  503  0.10121287806E+02 -0.43724583581E+02 -0.19078385424E+02  0.48993412481E+02  0.47000000000E+01 0.  1.
<mgrwt>
<rscale>  0 0.13337904E+03</rscale>
<asrwt>0</asrwt>
<pdfrwt beam="1">  1        1 0.25542629E-01 0.14079005E+03</pdfrwt>
<pdfrwt beam="2">  1       -1 0.15189794E-01 0.14079005E+03</pdfrwt>
<totfact> 0.56015038E+03</totfact>
</mgrwt>
</event>
<event>
 8    1  0.3629925E-004  0.1470748E+03  0.7546771E-02  0.1211793E+00
          2   -1    0    0  501    0  0.00000000000E+00  0.00000000000E+00  0.86667086297E+03  0.86667086297E+03  0.00000000000E+00 0. -1.
         -2   -1    0    0    0  501 -0.00000000000E+00 -0.00000000000E+00 -0.26298806528E+02  0.26298806528E+02  0.00000000000E+00 0.  1.
         25    2    1    2    0    0  0.23953128406E+02  0.73702857099E+02  0.64196721727E+03  0.65859920573E+03  0.12500056894E+03 0.  0.
         23    2    1    2    0    0 -0.23953128406E+02 -0.73702857099E+02  0.19840483917E+03  0.23437046377E+03  0.97771010909E+02 0.  0.
          5    1    3    3  502    0 -0.37676859399E+02 -0.12403032221E+02  0.21448261604E+03  0.21817026270E+03  0.47000000000E+01 0.  1.
         -5    1    3    3    0  502  0.61629987805E+02  0.86105889320E+02  0.42748460123E+03  0.44042894303E+03  0.47000000000E+01 0.  1.
          5    1    4    4  503    0 -0.21148656245E+02  0.16075745525E+02  0.87569267135E+02  0.91630572418E+02  0.47000000000E+01 0. -1.
         -5    1    4    4    0  503 -0.28044721608E+01 -0.89778602625E+02  0.11083557204E+03  0.14273989135E+03  0.47000000000E+01 0.  1.
<mgrwt>
<rscale>  0 0.14114728E+03</rscale>
<asrwt>0</asrwt>
<pdfrwt beam="1">  1        2 0.13333396E+00 0.14707483E+03</pdfrwt>
<pdfrwt beam="2">  1       -2 0.40459709E-02 0.14707483E+03</pdfrwt>
<totfact> 0.83620169E+03</totfact>
</mgrwt>
</event>
<event>
 8    1  0.3629925E-004  0.1503688E+03  0.7546771E-02  0.1209402E+00
         -1   -1    0    0    0  501 -0.00000000000E+00  0.00000000000E+00  0.25302439400E+02  0.25302439400E+02  0.00000000000E+00 0.  1.
          1   -1    0    0  501    0  0.00000000000E+00 -0.00000000000E+00 -0.87048575246E+03  0.87048575246E+03  0.00000000000E+00 0. -1.
         25    2    1    2    0    0 -0.23654459529E+02 -0.80165861441E+02 -0.63292533809E+03  0.65054229215E+03  0.12499876594E+03 0.  0.
         23    2    1    2    0    0  0.23654459529E+02  0.80165861441E+02 -0.21225797497E+03  0.24524589971E+03  0.90033352648E+02 0.  0.
          5    1    4    4  502    0 -0.83651327433E+01  0.57674623118E+02 -0.19245411635E+03  0.20113929128E+03  0.47000000000E+01 0. -1.
         -5    1    4    4    0  502  0.32019592273E+02  0.22491238324E+02 -0.19803858622E+02  0.44106608427E+02  0.47000000000E+01 0.  1.
          5    1    3    3  503    0 -0.74909140909E+02 -0.52061113252E+02 -0.36251802092E+03  0.37384909308E+03  0.47000000000E+01 0. -1.
         -5    1    3    3    0  503  0.51254681380E+02 -0.28104748189E+02 -0.27040731717E+03  0.27669319907E+03  0.47000000000E+01 0. -1.
<mgrwt>
<rscale>  0 0.14295921E+03</rscale>
<asrwt>0</asrwt>
<pdfrwt beam="1">  1        1 0.13392088E+00 0.15036885E+03</pdfrwt>
<pdfrwt beam="2">  1       -1 0.38926831E-02 0.15036885E+03</pdfrwt>
<totfact> 0.50473893E+03</totfact>
</mgrwt>
</event>
<event>
 8    1  0.3629925E-004  0.1697465E+03  0.7546771E-02  0.1184756E+00
          3   -1    0    0  501    0  0.00000000000E+00  0.00000000000E+00  0.26586608824E+03  0.26586608824E+03  0.00000000000E+00 0. -1.
         -3   -1    0    0    0  501 -0.00000000000E+00 -0.00000000000E+00 -0.94317005150E+02  0.94317005150E+02  0.00000000000E+00 0.  1.
         25    2    1    2    0    0 -0.11324247108E+03 -0.19128271851E+02  0.10411444735E+03  0.19913235831E+03  0.12499651970E+03 0.  0.
         23    2    1    2    0    0  0.11324247108E+03  0.19128271851E+02  0.67434635732E+02  0.16105073508E+03  0.90554741078E+02 0.  0.
          5    1    3    3  502    0 -0.54338752351E+02  0.42206867484E+02  0.60257149862E+01  0.69228021140E+02  0.47000000000E+01 0. -1.
         -5    1    3    3    0  502 -0.58903718731E+02 -0.61335139336E+02  0.98088732367E+02  0.12990433717E+03  0.47000000000E+01 0. -1.
          5    1    4    4  503    0  0.14458155567E+02  0.39384387903E+02  0.53910992014E+01  0.42559631383E+02  0.47000000000E+01 0. -1.
         -5    1    4    4    0  503  0.98784315515E+02 -0.20256116052E+02  0.62043536531E+02  0.11849110369E+03  0.47000000000E+01 0.  1.
<mgrwt>
<rscale>  0 0.16354104E+03</rscale>
<asrwt>0</asrwt>
<pdfrwt beam="1">  1        3 0.40902475E-01 0.16974651E+03</pdfrwt>
<pdfrwt beam="2">  1       -3 0.14510309E-01 0.16974651E+03</pdfrwt>
<totfact> 0.55890246E+02</totfact>
</mgrwt>
</event>
<event>
 8    1  0.3629925E-004  0.3841121E+03  0.7546771E-02  0.1050325E+00
         -1   -1    0    0    0  501 -0.00000000000E+00  0.00000000000E+00  0.11338099783E+03  0.11338099783E+03  0.00000000000E+00 0.  1.
          1   -1    0    0  501    0  0.00000000000E+00 -0.00000000000E+00 -0.12973025939E+04  0.12973025939E+04  0.00000000000E+00 0. -1.
         25    2    1    2    0    0 -0.33869442308E+03 -0.13115965279E+03 -0.70455405491E+03  0.80245780986E+03  0.12500141431E+03 0.  0.
         23    2    1    2    0    0  0.33869442308E+03  0.13115965279E+03 -0.47936754115E+03  0.60822578186E+03  0.90711606020E+02 0.  0.
          5    1    3    3  502    0 -0.13804750227E+03 -0.13304221332E+02 -0.17009379188E+03  0.21951788817E+03  0.47000000000E+01 0. -1.
         -5    1    3    3    0  502 -0.20064692081E+03 -0.11785543146E+03 -0.53446026303E+03  0.58293992170E+03  0.47000000000E+01 0. -1.
          5    1    4    4  503    0  0.30142036866E+03  0.14430767252E+03 -0.43600809764E+03  0.54936699410E+03  0.47000000000E+01 0. -1.
         -5    1    4    4    0  503  0.37274054418E+02 -0.13148019735E+02 -0.43359443507E+02  0.58858787763E+02  0.47000000000E+01 0.  1.
<mgrwt>
<rscale>  0 0.38165051E+03</rscale>
<asrwt>0</asrwt>
<pdfrwt beam="1">  1        1 0.19958502E+00 0.38411212E+03</pdfrwt>
<pdfrwt beam="2">  1       -1 0.17443230E-01 0.38411212E+03</pdfrwt>
<totfact> 0.24465245E+02</totfact>
</mgrwt>
</event>
<event>
 8    1  0.3629925E-004  0.1335655E+03  0.7546771E-02  0.1234320E+00
         -1   -1    0    0    0  501 -0.00000000000E+00  0.00000000000E+00  0.10305480273E+03  0.10305480273E+03  0.00000000000E+00 0. -1.
          1   -1    0    0  501    0  0.00000000000E+00 -0.00000000000E+00 -0.20069670001E+03  0.20069670001E+03  0.00000000000E+00 0.  1.
         25    2    1    2    0    0 -0.46906905522E+02 -0.39149399334E+01 -0.13809394424E+03  0.19211893563E+03  0.12499665375E+03 0.  0.
         23    2    1    2    0    0  0.46906905522E+02  0.39149399334E+01  0.40452046965E+02  0.11163256710E+03  0.92789425014E+02 0.  0.
          5    1    3    3  502    0 -0.42394109797E+02 -0.29936998087E+02 -0.15285970308E+03  0.16149818335E+03  0.47000000000E+01 0. -1.
         -5    1    4    4    0  503  0.42360479799E+02 -0.31534098782E+02 -0.54173105861E+01  0.53293966720E+02  0.47000000000E+01 0.  1.
          5    1    4    4  503    0  0.45464257232E+01  0.35449038715E+02  0.45869357551E+02  0.58338600385E+02  0.47000000000E+01 0. -1.
         -5    1    3    3    0  502 -0.45127957248E+01  0.26022058154E+02  0.14765758837E+02  0.30620752274E+02  0.47000000000E+01 0. -1.
<mgrwt>
<rscale>  0 0.12548060E+03</rscale>
<asrwt>0</asrwt>
<pdfrwt beam="1">  1        1 0.30876415E-01 0.13356552E+03</pdfrwt>
<pdfrwt beam="2">  1       -1 0.15854585E-01 0.13356552E+03</pdfrwt>
<totfact> 0.41204928E+03</totfact>
</mgrwt>
</event>
<event>
 8    1  0.3629925E-004  0.1255770E+03  0.7546771E-02  0.1250190E+00
          3   -1    0    0  501    0  0.00000000000E+00  0.00000000000E+00  0.37327632607E+03  0.37327632607E+03  0.00000000000E+00 0. -1.
         -3   -1    0    0    0  501 -0.00000000000E+00 -0.00000000000E+00 -0.34048057813E+02  0.34048057813E+02  0.00000000000E+00 0.  1.
         25    2    1    2    0    0  0.57283748249E+01 -0.10570161812E+02  0.13816207550E+03  0.18670386048E+03  0.12500011925E+03 0.  0.
         23    2    1    2    0    0 -0.57283748249E+01  0.10570161812E+02  0.20106619276E+03  0.22062052340E+03  0.90006993498E+02 0.  0.
          5    1    4    4  502    0 -0.34034405828E+02 -0.10884032815E+02  0.16814649302E+03  0.17196550836E+03  0.47000000000E+01 0. -1.
         -5    1    4    4    0  502  0.28306031003E+02  0.21454194627E+02  0.32919699736E+02  0.48655015044E+02  0.47000000000E+01 0.  1.
          5    1    3    3  503    0 -0.22657309187E+02  0.27595374793E+02  0.13396827028E+03  0.13872435190E+03  0.47000000000E+01 0.  1.
         -5    1    3    3    0  503  0.28385684012E+02 -0.38165536604E+02  0.41938052239E+01  0.47979508578E+02  0.47000000000E+01 0.  1.
<mgrwt>
<rscale>  0 0.11580081E+03</rscale>
<asrwt>0</asrwt>
<pdfrwt beam="1">  1        3 0.57427124E-01 0.12557696E+03</pdfrwt>
<pdfrwt beam="2">  1       -3 0.52381630E-02 0.12557696E+03</pdfrwt>
<totfact> 0.14485641E+03</totfact>
</mgrwt>
</event>
<event>
 8    1  0.3629925E-004  0.1391165E+03  0.7546771E-02  0.1226260E+00
          1   -1    0    0  501    0  0.00000000000E+00  0.00000000000E+00  0.59877330382E+03  0.59877330382E+03  0.00000000000E+00 0. -1.
         -1   -1    0    0    0  501 -0.00000000000E+00 -0.00000000000E+00 -0.25682454350E+02  0.25682454350E+02  0.00000000000E+00 0.  1.
         25    2    1    2    0    0 -0.52032633852E+02  0.31989315551E+02  0.31078058947E+03  0.34049666244E+03  0.12499076385E+03 0.  0.
         23    2    1    2    0    0  0.52032633852E+02 -0.31989315551E+02  0.26231025999E+03  0.28395909572E+03  0.89974353289E+02 0.  0.
          5    1    4    4  502    0  0.73698049607E+02 -0.41123398448E+02  0.19610896635E+03  0.21354941606E+03  0.47000000000E+01 0. -1.
         -5    1    3    3    0  503 -0.45023793150E+02 -0.17632264650E+02  0.27370177059E+03  0.27797983368E+03  0.47000000000E+01 0.  1.
          5    1    3    3  503    0 -0.70088407016E+01  0.49621580201E+02  0.37078818881E+02  0.62516828768E+02  0.47000000000E+01 0.  1.
         -5    1    4    4    0  502 -0.21665415755E+02  0.91340828967E+01  0.66201293645E+02  0.70409679664E+02  0.47000000000E+01 0.  1.
<mgrwt>
<rscale>  0 0.13080947E+03</rscale>
<asrwt>0</asrwt>
<pdfrwt beam="1">  1        1 0.92118960E-01 0.13911651E+03</pdfrwt>
<pdfrwt beam="2">  1       -1 0.39511473E-02 0.13911651E+03</pdfrwt>
<totfact> 0.84767856E+03</totfact>
</mgrwt>
</event>
<event>
 8    1  0.3629925E-004  0.1331658E+03  0.7546771E-02  0.1235201E+00
         -1   -1    0    0    0  501 -0.00000000000E+00  0.00000000000E+00  0.29902774925E+03  0.29902774925E+03  0.00000000000E+00 0.  1.
          1   -1    0    0  501    0  0.00000000000E+00 -0.00000000000E+00 -0.12603184360E+03  0.12603184360E+03  0.00000000000E+00 0. -1.
         25    2    1    2    0    0 -0.44633031333E+02 -0.10716915981E+02  0.25871374347E+03  0.29097409248E+03  0.12500464654E+03 0.  0.
         23    2    1    2    0    0  0.44633031333E+02  0.10716915981E+02 -0.85717837818E+02  0.13408550037E+03  0.92327752687E+02 0.  0.
          5    1    4    4  502    0  0.70667414247E+02 -0.58509759317E+01 -0.51465990705E+02  0.87743692394E+02  0.47000000000E+01 0. -1.
         -5    1    4    4    0  502 -0.26034382914E+02  0.16567891913E+02 -0.34251847113E+02  0.46341807980E+02  0.47000000000E+01 0.  1.
          5    1    3    3  503    0  0.21890812251E+02  0.40863649006E+02  0.11894630489E+03  0.12774724623E+03  0.47000000000E+01 0.  1.
         -5    1    3    3    0  503 -0.66523843584E+02 -0.51580564987E+02  0.13976743858E+03  0.16322684625E+03  0.47000000000E+01 0.  1.
<mgrwt>
<rscale>  0 0.12491601E+03</rscale>
<asrwt>0</asrwt>
<pdfrwt beam="1">  1        1 0.19389514E-01 0.13316577E+03</pdfrwt>
<pdfrwt beam="2">  1       -1 0.46004269E-01 0.13316577E+03</pdfrwt>
<totfact> 0.12531252E+03</totfact>
</mgrwt>
</event>
<event>
 8    1  0.3629925E-004  0.1278253E+03  0.7546771E-02  0.1245567E+00
         -2   -1    0    0    0  501 -0.00000000000E+00  0.00000000000E+00  0.13264774624E+02  0.13264774624E+02  0.00000000000E+00 0.  1.
          2   -1    0    0  501    0  0.00000000000E+00 -0.00000000000E+00 -0.11147110122E+04  0.11147110122E+04  0.00000000000E+00 0. -1.
         25    2    1    2    0    0 -0.90693988248E+01  0.25052305164E+02 -0.39313090134E+03  0.41338989294E+03  0.12501770278E+03 0.  0.
         23    2    1    2    0    0  0.90693988248E+01 -0.25052305164E+02 -0.70831533624E+03  0.71458589389E+03  0.90622912121E+02 0.  0.
          5    1    4    4  502    0 -0.18851870958E+02  0.27909297000E+02 -0.28836299314E+03  0.29036120215E+03  0.47000000000E+01 0. -1.
         -5    1    3    3    0  503  0.35851770548E+01  0.75434595840E+02 -0.23275622753E+03  0.24474636503E+03  0.47000000000E+01 0. -1.
          5    1    3    3  503    0 -0.12654575880E+02 -0.50382290676E+02 -0.16037467381E+03  0.16864352791E+03  0.47000000000E+01 0. -1.
         -5    1    4    4    0  502  0.27921269783E+02 -0.52961602164E+02 -0.41995234310E+03  0.42422469174E+03  0.47000000000E+01 0.  1.
<mgrwt>
<rscale>  0 0.11851481E+03</rscale>
<asrwt>0</asrwt>
<pdfrwt beam="1">  1        2 0.17149401E+00 0.12782526E+03</pdfrwt>
<pdfrwt beam="2">  1       -2 0.20407345E-02 0.12782526E+03</pdfrwt>
<totfact> 0.16062708E+04</totfact>
</mgrwt>
</event>
<event>
 8    1  0.3629925E-004  0.1456598E+03  0.7546771E-02  0.1216269E+00
          1   -1    0    0  501    0  0.00000000000E+00  0.00000000000E+00  0.40327348180E+02  0.40327348180E+02  0.00000000000E+00 0. -1.
         -1   -1    0    0    0  501 -0.00000000000E+00 -0.00000000000E+00 -0.44479254707E+03  0.44479254707E+03  0.00000000000E+00 0.  1.
         25    2    1    2    0    0  0.48496374204E+02  0.56921602710E+02 -0.27176015441E+03  0.30833480372E+03  0.12499920997E+03 0.  0.
         23    2    1    2    0    0 -0.48496374204E+02 -0.56921602710E+02 -0.13270504448E+03  0.17678509153E+03  0.89723868569E+02 0.  0.
          5    1    3    3  502    0  0.46592246107E+02 -0.31685015008E+02 -0.11657850116E+03  0.12956625528E+03  0.47000000000E+01 0.  1.
         -5    1    3    3    0  502  0.19041280972E+01  0.88606617717E+02 -0.15518165325E+03  0.17876854844E+03  0.47000000000E+01 0.  1.
          5    1    4    4  503    0  0.22095343348E+02  0.21846536118E+01 -0.40337967825E+02  0.46284106963E+02  0.47000000000E+01 0.  1.
         -5    1    4    4    0  503 -0.70591717552E+02 -0.59106256321E+02 -0.92367076650E+02  0.13050098456E+03  0.47000000000E+01 0. -1.
<mgrwt>
<rscale>  0 0.13783701E+03</rscale>
<asrwt>0</asrwt>
<pdfrwt beam="1">  1        1 0.62042074E-02 0.14565977E+03</pdfrwt>
<pdfrwt beam="2">  1       -1 0.68429623E-01 0.14565977E+03</pdfrwt>
<totfact> 0.26839140E+03</totfact>
</mgrwt>
</event>
<event>
 8    1  0.3629925E-004  0.2617867E+03  0.7546771E-02  0.1108302E+00
         -1   -1    0    0    0  501 -0.00000000000E+00  0.00000000000E+00  0.72604483780E+03  0.72604483780E+03  0.00000000000E+00 0.  1.
          1   -1    0    0  501    0  0.00000000000E+00 -0.00000000000E+00 -0.11139758842E+03  0.11139758842E+03  0.00000000000E+00 0. -1.
         25    2    1    2    0    0  0.21250120859E+03  0.88029292796E+02  0.12761781066E+03  0.29123634053E+03  0.12500552151E+03 0.  0.
         23    2    1    2    0    0 -0.21250120859E+03 -0.88029292796E+02  0.48702943873E+03  0.54620608569E+03  0.90760640247E+02 0.  0.
          5    1    3    3  502    0  0.21120789036E+03  0.45543820767E+02  0.12181386650E+03  0.24808006899E+03  0.47000000000E+01 0. -1.
         -5    1    3    3    0  502  0.12933182314E+01  0.42485472029E+02  0.58039441594E+01  0.43156271542E+02  0.47000000000E+01 0. -1.
          5    1    4    4  503    0 -0.55476503764E+02 -0.63388149222E+02  0.12516099405E+03  0.15094059879E+03  0.47000000000E+01 0. -1.
         -5    1    4    4    0  503 -0.15702470483E+03 -0.24641143573E+02  0.36186844468E+03  0.39526548690E+03  0.47000000000E+01 0.  1.
<mgrwt>
<rscale>  0 0.25808006E+03</rscale>
<asrwt>0</asrwt>
<pdfrwt beam="1">  1        1 0.17138091E-01 0.26178675E+03</pdfrwt>
<pdfrwt beam="2">  1       -1 0.11169920E+00 0.26178675E+03</pdfrwt>
<totfact> 0.24574216E+02</totfact>
</mgrwt>
</event>
<event>
 8    1  0.3629925E-004  0.1255815E+03  0.7546771E-02  0.1248394E+00
         -3   -1    0    0    0  501 -0.00000000000E+00  0.00000000000E+00  0.86802727147E+02  0.86802727147E+02  0.00000000000E+00 0.  1.
          3   -1    0    0  501    0  0.00000000000E+00 -0.00000000000E+00 -0.14220011328E+03  0.14220011328E+03  0.00000000000E+00 0. -1.
         25    2    1    2    0    0 -0.26794485685E+01  0.11852726035E+02 -0.48543437630E+02  0.13463717480E+03  0.12499214752E+03 0.  0.
         23    2    1    2    0    0  0.26794485685E+01 -0.11852726035E+02 -0.68539485052E+01  0.94365665626E+02  0.93328643406E+02 0.  0.
          5    1    3    3  502    0  0.54727497146E+02  0.31722962938E+02 -0.34109504100E+02  0.72020785829E+02  0.47000000000E+01 0. -1.
         -5    1    3    3    0  502 -0.57406945715E+02 -0.19870236903E+02 -0.14433933530E+02  0.62616388973E+02  0.47000000000E+01 0. -1.
          5    1    4    4  503    0  0.32751092106E+02  0.10277118077E+02 -0.33548943890E+02  0.48227324477E+02  0.47000000000E+01 0. -1.
         -5    1    4    4    0  503 -0.30071643537E+02 -0.22129844112E+02  0.26694995385E+02  0.46138341149E+02  0.47000000000E+01 0.  1.
<mgrwt>
<rscale>  0 0.11684510E+03</rscale>
<asrwt>0</asrwt>
<pdfrwt beam="1">  1        3 0.21876940E-01 0.12558146E+03</pdfrwt>
<pdfrwt beam="2">  1       -3 0.13354266E-01 0.12558146E+03</pdfrwt>
<totfact> 0.19592693E+03</totfact>
</mgrwt>
</event>
<event>
 8    1  0.3629925E-004  0.1790687E+03  0.7546771E-02  0.1174132E+00
          2   -1    0    0  501    0  0.00000000000E+00  0.00000000000E+00  0.11057430837E+04  0.11057430837E+04  0.00000000000E+00 0. -1.
         -2   -1    0    0    0  501 -0.00000000000E+00 -0.00000000000E+00 -0.25787288248E+02  0.25787288248E+02  0.00000000000E+00 0.  1.
         25    2    1    2    0    0  0.12806118203E+03  0.64460941853E+01  0.60187415097E+03  0.62794751613E+03  0.12499748376E+03 0.  0.
         23    2    1    2    0    0 -0.12806118203E+03 -0.64460941853E+01  0.47808164453E+03  0.50358285585E+03  0.92695282532E+02 0.  0.
          5    1    3    3  502    0  0.13951868468E+03  0.30778912515E+02  0.41143890451E+03  0.43556499742E+03  0.47000000000E+01 0.  1.
         -5    1    4    4    0  503 -0.24045423844E+02 -0.26638193952E+02  0.45236592566E+02  0.57932849850E+02  0.47000000000E+01 0.  1.
          5    1    4    4  503    0 -0.10401575818E+03  0.20192099766E+02  0.43284505196E+03  0.44565000600E+03  0.47000000000E+01 0. -1.
         -5    1    3    3    0  502 -0.11457502655E+02 -0.24332818329E+02  0.19043524646E+03  0.19238251872E+03  0.47000000000E+01 0.  1.
<mgrwt>
<rscale>  0 0.17361218E+03</rscale>
<asrwt>0</asrwt>
<pdfrwt beam="1">  1        2 0.17011428E+00 0.17906867E+03</pdfrwt>
<pdfrwt beam="2">  1       -2 0.39672760E-02 0.17906867E+03</pdfrwt>
<totfact> 0.62140428E+03</totfact>
</mgrwt>
</event>
<event>
 8    1  0.3629925E-004  0.1272152E+03  0.7546771E-02  0.1245261E+00
          1   -1    0    0  501    0  0.00000000000E+00  0.00000000000E+00  0.85059309281E+03  0.85059309281E+03  0.00000000000E+00 0. -1.
         -1   -1    0    0    0  501 -0.00000000000E+00 -0.00000000000E+00 -0.14840846970E+02  0.14840846970E+02  0.00000000000E+00 0.  1.
         25    2    1    2    0    0 -0.22998373961E+02  0.55316736213E+01  0.43295831114E+03  0.45126113620E+03  0.12499675692E+03 0.  0.
         23    2    1    2    0    0  0.22998373961E+02 -0.55316736213E+01  0.40279393470E+03  0.41417280358E+03  0.93469956545E+02 0.  0.
          5    1    4    4  502    0  0.46488399141E+02 -0.30205476830E+02  0.31514316533E+03  0.32001694758E+03  0.47000000000E+01 0. -1.
         -5    1    3    3    0  503  0.61962261968E+01  0.59880661903E+02  0.27642257288E+03  0.28294101097E+03  0.47000000000E+01 0. -1.
          5    1    3    3  503    0 -0.29194600158E+02 -0.54348988282E+02  0.15653573826E+03  0.16832012523E+03  0.47000000000E+01 0. -1.
         -5    1    4    4    0  502 -0.23490025180E+02  0.24673803208E+02  0.87650769373E+02  0.94155856002E+02  0.47000000000E+01 0.  1.
<mgrwt>
<rscale>  0 0.11869769E+03</rscale>
<asrwt>0</asrwt>
<pdfrwt beam="1">  1        1 0.13086044E+00 0.12721523E+03</pdfrwt>
<pdfrwt beam="2">  1       -1 0.22832079E-02 0.12721523E+03</pdfrwt>
<totfact> 0.11282859E+04</totfact>
</mgrwt>
</event>
<event>
 8    1  0.3629925E-004  0.1432766E+03  0.7546771E-02  0.1218005E+00
          1   -1    0    0  501    0  0.00000000000E+00  0.00000000000E+00  0.45638291655E+03  0.45638291655E+03  0.00000000000E+00 0. -1.
         -1   -1    0    0    0  501 -0.00000000000E+00 -0.00000000000E+00 -0.43782897425E+02  0.43782897425E+02  0.00000000000E+00 0.  1.
         25    2    1    2    0    0  0.44407821475E+02 -0.54140891261E+02  0.31763626388E+03  0.34845513101E+03  0.12499956591E+03 0.  0.
         23    2    1    2    0    0 -0.44407821475E+02  0.54140891261E+02  0.94963755243E+02  0.15171068297E+03  0.95366271827E+02 0.  0.
          5    1    4    4  502    0 -0.22259241884E+02  0.25313091416E+02  0.10766498505E+03  0.11291618773E+03  0.47000000000E+01 0. -1.
         -5    1    3    3    0  503 -0.41036418148E+02 -0.37952838761E+02  0.13057023543E+03  0.14210940139E+03  0.47000000000E+01 0. -1.
          5    1    3    3  503    0  0.85444239623E+02 -0.16188052500E+02  0.18706602846E+03  0.20634572962E+03  0.47000000000E+01 0. -1.
         -5    1    4    4    0  502 -0.22148579591E+02  0.28827799845E+02 -0.12701229809E+02  0.38794495234E+02  0.47000000000E+01 0.  1.
<mgrwt>
<rscale>  0 0.13658083E+03</rscale>
<asrwt>0</asrwt>
<pdfrwt beam="1">  1        1 0.70212753E-01 0.14327659E+03</pdfrwt>
<pdfrwt beam="2">  1       -1 0.67358307E-02 0.14327659E+03</pdfrwt>
<totfact> 0.55091350E+03</totfact>
</mgrwt>
</event>
<event>
 8    1  0.3629925E-004  0.1654808E+03  0.7546771E-02  0.1189867E+00
          1   -1    0    0  501    0  0.00000000000E+00  0.00000000000E+00  0.11017056730E+04  0.11017056730E+04  0.00000000000E+00 0. -1.
         -1   -1    0    0    0  501 -0.00000000000E+00 -0.00000000000E+00 -0.25742578645E+02  0.25742578645E+02  0.00000000000E+00 0.  1.
         25    2    1    2    0    0  0.93975810140E+02 -0.54107510554E+02  0.34021819682E+03  0.37832832696E+03  0.12499930378E+03 0.  0.
         23    2    1    2    0    0 -0.93975810140E+02  0.54107510554E+02  0.73574489758E+03  0.74911992473E+03  0.90005731583E+02 0.  0.
          5    1    4    4  502    0 -0.96230662878E+02  0.18595699907E+02  0.62629619896E+03  0.63393624235E+03  0.47000000000E+01 0. -1.
         -5    1    4    4    0  502  0.22548527376E+01  0.35511810647E+02  0.10944869862E+03  0.11518368238E+03  0.47000000000E+01 0.  1.
          5    1    3    3  503    0  0.91579187903E+02 -0.10184241722E+02  0.10849911094E+03  0.14242406226E+03  0.47000000000E+01 0. -1.
         -5    1    3    3    0  503  0.23966222369E+01 -0.43923268832E+02  0.23171908588E+03  0.23590426470E+03  0.47000000000E+01 0. -1.
<mgrwt>
<rscale>  0 0.15896754E+03</rscale>
<asrwt>0</asrwt>
<pdfrwt beam="1">  1        1 0.16949314E+00 0.16548082E+03</pdfrwt>
<pdfrwt beam="2">  1       -1 0.39603976E-02 0.16548082E+03</pdfrwt>
<totfact> 0.33237610E+03</totfact>
</mgrwt>
</event>
<event>
 8    1  0.3629925E-004  0.1754524E+03  0.7546771E-02  0.1178210E+00
         -2   -1    0    0    0  501 -0.00000000000E+00  0.00000000000E+00  0.20208064795E+03  0.20208064795E+03  0.00000000000E+00 0.  1.
          2   -1    0    0  501    0  0.00000000000E+00 -0.00000000000E+00 -0.13383207605E+03  0.13383207605E+03  0.00000000000E+00 0. -1.
         25    2    1    2    0    0 -0.10654939420E+03 -0.61688156384E+02  0.39924637549E+02  0.17993756814E+03  0.12500139881E+03 0.  0.
         23    2    1    2    0    0  0.10654939420E+03  0.61688156384E+02  0.28323934350E+02  0.15597515586E+03  0.91475690460E+02 0.  0.
          5    1    3    3  502    0  0.19235831236E+02 -0.42031578058E+02  0.11039585257E+00  0.46462597265E+02  0.47000000000E+01 0. -1.
         -5    1    3    3    0  502 -0.12578522543E+03 -0.19656578326E+02  0.39814241696E+02  0.13347497088E+03  0.47000000000E+01 0. -1.
          5    1    4    4  503    0  0.11430237345E+03  0.31338859943E+02  0.91886236016E+01  0.11896922931E+03  0.47000000000E+01 0. -1.
         -5    1    4    4    0  503 -0.77529792561E+01  0.30349296441E+02  0.19135310748E+02  0.37005926542E+02  0.47000000000E+01 0.  1.
<mgrwt>
<rscale>  0 0.16965359E+03</rscale>
<asrwt>0</asrwt>
<pdfrwt beam="1">  1        2 0.20589550E-01 0.17545242E+03</pdfrwt>
<pdfrwt beam="2">  1       -2 0.31089330E-01 0.17545242E+03</pdfrwt>
<totfact> 0.25170223E+03</totfact>
</mgrwt>
</event>
<event>
 8    1  0.3629925E-004  0.2018011E+03  0.7546771E-02  0.1152524E+00
          2   -1    0    0  501    0  0.00000000000E+00  0.00000000000E+00  0.63840955266E+03  0.63840955266E+03  0.00000000000E+00 0.  1.
         -2   -1    0    0    0  501 -0.00000000000E+00 -0.00000000000E+00 -0.60832085946E+02  0.60832085946E+02  0.00000000000E+00 0. -1.
         25    2    1    2    0    0 -0.27954806643E+02  0.15593144340E+03  0.22436972023E+03  0.30177052769E+03  0.12501037467E+03 0.  0.
         23    2    1    2    0    0  0.27954806643E+02 -0.15593144340E+03  0.35320774648E+03  0.39747111091E+03  0.90174750222E+02 0.  0.
          5    1    4    4  502    0  0.52449159646E+02 -0.53385876174E+02  0.12011678687E+03  0.14160190186E+03  0.47000000000E+01 0. -1.
         -5    1    3    3    0  503 -0.33287884155E+01  0.98935856000E+02  0.39480217624E+02  0.10667784221E+03  0.47000000000E+01 0.  1.
          5    1    3    3  503    0 -0.24626018228E+02  0.56995587396E+02  0.18488950260E+03  0.19509268549E+03  0.47000000000E+01 0.  1.
         -5    1    4    4    0  502 -0.24494353003E+02 -0.10254556722E+03  0.23309095961E+03  0.25586920905E+03  0.47000000000E+01 0.  1.
<mgrwt>
<rscale>  0 0.19673424E+03</rscale>
<asrwt>0</asrwt>
<pdfrwt beam="1">  1        2 0.98216850E-01 0.20180109E+03</pdfrwt>
<pdfrwt beam="2">  1       -2 0.93587829E-02 0.20180109E+03</pdfrwt>
<totfact> 0.34180643E+03</totfact>
</mgrwt>
</event>
<event>
 8    1  0.3629925E-004  0.1610876E+03  0.7546771E-02  0.1195018E+00
         -1   -1    0    0    0  501 -0.00000000000E+00  0.00000000000E+00  0.47490397128E+02  0.47490397128E+02  0.00000000000E+00 0.  1.
          1   -1    0    0  501    0  0.00000000000E+00 -0.00000000000E+00 -0.49250954678E+03  0.49250954678E+03  0.00000000000E+00 0. -1.
         25    2    1    2    0    0  0.74268687315E+02  0.69340197549E+02 -0.30253221316E+03  0.34274617504E+03  0.12500119837E+03 0.  0.
         23    2    1    2    0    0 -0.74268687315E+02 -0.69340197549E+02 -0.14248693650E+03  0.19725376888E+03  0.91008908085E+02 0.  0.
          5    1    3    3  502    0  0.40777322445E+02  0.93814462037E+02 -0.13136489438E+03  0.16656160659E+03  0.47000000000E+01 0. -1.
         -5    1    4    4    0  503 -0.67714800166E+02 -0.15111637616E+02 -0.11852990504E+03  0.13742301169E+03  0.47000000000E+01 0.  1.
          5    1    4    4  503    0 -0.65538871496E+01 -0.54228559932E+02 -0.23957031460E+02  0.59830757186E+02  0.47000000000E+01 0. -1.
         -5    1    3    3    0  502  0.33491364871E+02 -0.24474264488E+02 -0.17116731877E+03  0.17618456845E+03  0.47000000000E+01 0. -1.
<mgrwt>
<rscale>  0 0.15452710E+03</rscale>
<asrwt>0</asrwt>
<pdfrwt beam="1">  1        1 0.75770701E-01 0.16108756E+03</pdfrwt>
<pdfrwt beam="2">  1       -1 0.73062148E-02 0.16108756E+03</pdfrwt>
<totfact> 0.44428995E+03</totfact>
</mgrwt>
</event>
<event>
 8    1  0.3629925E-004  0.1306736E+03  0.7546771E-02  0.1240592E+00
         -1   -1    0    0    0  501 -0.00000000000E+00  0.00000000000E+00  0.21126263466E+02  0.21126263466E+02  0.00000000000E+00 0.  1.
          1   -1    0    0  501    0  0.00000000000E+00 -0.00000000000E+00 -0.63131095100E+03  0.63131095100E+03  0.00000000000E+00 0. -1.
         25    2    1    2    0    0 -0.32355057893E+02 -0.20100052500E+02 -0.39578864717E+03  0.41680239739E+03  0.12499889345E+03 0.  0.
         23    2    1    2    0    0  0.32355057893E+02  0.20100052500E+02 -0.21439604037E+03  0.23563481708E+03  0.90040229962E+02 0.  0.
          5    1    3    3  502    0  0.43543847954E+02 -0.30327743478E+02 -0.14178293629E+03  0.15146065410E+03  0.47000000000E+01 0. -1.
         -5    1    3    3    0  502 -0.75898905847E+02  0.10227690978E+02 -0.25400571088E+03  0.26534174329E+03  0.47000000000E+01 0. -1.
          5    1    4    4  503    0  0.48870548822E+00 -0.28714212911E+02 -0.12826417945E+03  0.13152389359E+03  0.47000000000E+01 0. -1.
         -5    1    4    4    0  503  0.31866352405E+02  0.48814265411E+02 -0.86131860917E+02  0.10411092348E+03  0.47000000000E+01 0.  1.
<mgrwt>
<rscale>  0 0.12153107E+03</rscale>
<asrwt>0</asrwt>
<pdfrwt beam="1">  1        1 0.97124737E-01 0.13067358E+03</pdfrwt>
<pdfrwt beam="2">  1       -1 0.32501952E-02 0.13067358E+03</pdfrwt>
<totfact> 0.10448675E+04</totfact>
</mgrwt>
</event>
<event>
 8    1  0.3629925E-004  0.1352080E+03  0.7546771E-02  0.1232296E+00
          2   -1    0    0  501    0  0.00000000000E+00  0.00000000000E+00  0.28175581760E+03  0.28175581760E+03  0.00000000000E+00 0. -1.
         -2   -1    0    0    0  501 -0.00000000000E+00 -0.00000000000E+00 -0.64062714342E+02  0.64062714342E+02  0.00000000000E+00 0.  1.
         25    2    1    2    0    0 -0.30723841862E+02  0.41370625974E+02  0.19746996135E+03  0.23932316202E+03  0.12500282833E+03 0.  0.
         23    2    1    2    0    0  0.30723841862E+02 -0.41370625974E+02  0.20223141909E+02  0.10649536992E+03  0.90976948696E+02 0.  0.
          5    1    4    4  502    0  0.23192350152E+02  0.17803270259E+02  0.34005781166E+02  0.45092401691E+02  0.47000000000E+01 0. -1.
         -5    1    4    4    0  502  0.75314917097E+01 -0.59173896233E+02 -0.13782639257E+02  0.61402968232E+02  0.47000000000E+01 0.  1.
          5    1    3    3  503    0 -0.76617807601E+02  0.44022984130E+02  0.13933876519E+03  0.16506269433E+03  0.47000000000E+01 0. -1.
         -5    1    3    3    0  503  0.45893965739E+02 -0.26523581556E+01  0.58131196153E+02  0.74260467688E+02  0.47000000000E+01 0. -1.
<mgrwt>
<rscale>  0 0.12679162E+03</rscale>
<asrwt>0</asrwt>
<pdfrwt beam="1">  1        2 0.43347048E-01 0.13520795E+03</pdfrwt>
<pdfrwt beam="2">  1       -2 0.98558024E-02 0.13520795E+03</pdfrwt>
<totfact> 0.75568721E+03</totfact>
</mgrwt>
</event>
<event>
 8    1  0.3629925E-004  0.1955115E+03  0.7546771E-02  0.1158530E+00
          3   -1    0    0  501    0  0.00000000000E+00  0.00000000000E+00  0.29956588160E+02  0.29956588160E+02  0.00000000000E+00 0. -1.
         -3   -1    0    0    0  501 -0.00000000000E+00 -0.00000000000E+00 -0.11480787532E+04  0.11480787532E+04  0.00000000000E+00 0.  1.
         25    2    1    2    0    0  0.20109689035E+02  0.14897914165E+03 -0.64023940502E+03  0.66942606256E+03  0.12500229301E+03 0.  0.
         23    2    1    2    0    0 -0.20109689035E+02 -0.14897914165E+03 -0.47788275998E+03  0.50860927876E+03  0.87819598689E+02 0.  0.
          5    1    4    4  502    0 -0.14132671843E+02 -0.21239108397E+02 -0.18830868604E+02  0.32055011329E+02  0.47000000000E+01 0. -1.
         -5    1    4    4    0  502 -0.59770171923E+01 -0.12774003325E+03 -0.45905189137E+03  0.47655426743E+03  0.47000000000E+01 0.  1.
          5    1    3    3  503    0 -0.15805745031E+02  0.15608414264E+03 -0.54923107242E+03  0.57121707089E+03  0.47000000000E+01 0. -1.
         -5    1    3    3    0  503  0.35915434066E+02 -0.71050009939E+01 -0.91008332599E+02  0.98208991674E+02  0.47000000000E+01 0. -1.
<mgrwt>
<rscale>  0 0.18992413E+03</rscale>
<asrwt>0</asrwt>
<pdfrwt beam="1">  1        3 0.46087065E-02 0.19551153E+03</pdfrwt>
<pdfrwt beam="2">  1       -3 0.17662748E+00 0.19551153E+03</pdfrwt>
<totfact> 0.14211861E+02</totfact>
</mgrwt>
</event>
<event>
 8    1  0.3629925E-004  0.1255978E+03  0.7546771E-02  0.1249848E+00
          1   -1    0    0  501    0  0.00000000000E+00  0.00000000000E+00  0.10524856025E+04  0.10524856025E+04  0.00000000000E+00 0. -1.
         -1   -1    0    0    0  501 -0.00000000000E+00 -0.00000000000E+00 -0.11529252205E+02  0.11529252205E+02  0.00000000000E+00 0.  1.
         25    2    1    2    0    0  0.11319746590E+01 -0.12406501547E+02  0.50903571871E+03  0.52430159925E+03  0.12497840375E+03 0.  0.
         23    2    1    2    0    0 -0.11319746590E+01  0.12406501547E+02  0.53192063159E+03  0.53971325546E+03  0.90529758434E+02 0.  0.
          5    1    3    3  502    0 -0.51103512093E+01 -0.55325016766E+02  0.11443285700E+03  0.12729470504E+03  0.47000000000E+01 0.  1.
         -5    1    3    3    0  502  0.62423258683E+01  0.42918515219E+02  0.39460286171E+03  0.39700689422E+03  0.47000000000E+01 0.  1.
          5    1    4    4  503    0 -0.35955512486E+02  0.28726022649E+02  0.38502299418E+03  0.38779218571E+03  0.47000000000E+01 0. -1.
         -5    1    4    4    0  503  0.34823537827E+02 -0.16319521102E+02  0.14689763741E+03  0.15192106974E+03  0.47000000000E+01 0.  1.
<mgrwt>
<rscale>  0 0.11599860E+03</rscale>
<asrwt>0</asrwt>
<pdfrwt beam="1">  1        1 0.16192079E+00 0.12559779E+03</pdfrwt>
<pdfrwt beam="2">  1       -1 0.17737319E-02 0.12559779E+03</pdfrwt>
<totfact> 0.11454313E+04</totfact>
</mgrwt>
</event>
<event>
 8    1  0.3629925E-004  0.2732763E+03  0.7546771E-02  0.1101424E+00
          1   -1    0    0  501    0  0.00000000000E+00  0.00000000000E+00  0.63011243984E+03  0.63011243984E+03  0.00000000000E+00 0. -1.
         -1   -1    0    0    0  501 -0.00000000000E+00 -0.00000000000E+00 -0.17623487753E+03  0.17623487753E+03  0.00000000000E+00 0.  1.
         25    2    1    2    0    0  0.21654533493E+03  0.11029235336E+03 -0.11524581670E+02  0.27351923802E+03  0.12499468906E+03 0.  0.
         23    2    1    2    0    0 -0.21654533493E+03 -0.11029235336E+03  0.46540214397E+03  0.53282807935E+03  0.90831278987E+02 0.  0.
          5    1    4    4  502    0 -0.13138723092E+03 -0.68740771323E+02  0.36837319390E+03  0.39712567038E+03  0.47000000000E+01 0. -1.
         -5    1    3    3    0  503  0.17520250866E+03  0.72094956454E+02 -0.60315169320E+02  0.19888089762E+03  0.47000000000E+01 0. -1.
          5    1    3    3  503    0  0.41342826270E+02  0.38197396904E+02  0.48790587650E+02  0.74638340398E+02  0.47000000000E+01 0. -1.
         -5    1    4    4    0  502 -0.85158104017E+02 -0.41551582035E+02  0.97028950075E+02  0.13570240898E+03  0.47000000000E+01 0.  1.
<mgrwt>
<rscale>  0 0.26974831E+03</rscale>
<asrwt>0</asrwt>
<pdfrwt beam="1">  1        1 0.96940374E-01 0.27327634E+03</pdfrwt>
<pdfrwt beam="2">  1       -1 0.27113058E-01 0.27327634E+03</pdfrwt>
<totfact> 0.40116586E+02</totfact>
</mgrwt>
</event>
<event>
 8    1  0.3629925E-004  0.1936531E+03  0.7546771E-02  0.1160365E+00
          2   -1    0    0  501    0  0.00000000000E+00  0.00000000000E+00  0.96552699078E+03  0.96552699078E+03  0.00000000000E+00 0. -1.
         -2   -1    0    0    0  501 -0.00000000000E+00 -0.00000000000E+00 -0.37301156800E+02  0.37301156800E+02  0.00000000000E+00 0.  1.
         25    2    1    2    0    0  0.11948954893E+02  0.14742194841E+03  0.35416806085E+03  0.40365398844E+03  0.12500207462E+03 0.  0.
         23    2    1    2    0    0 -0.11948954893E+02 -0.14742194841E+03  0.57405777313E+03  0.59917415915E+03  0.87128283001E+02 0.  0.
          5    1    3    3  502    0  0.27070405466E+02  0.90211318778E+02  0.32324692819E+03  0.33672177755E+03  0.47000000000E+01 0. -1.
         -5    1    3    3    0  502 -0.15121450573E+02  0.57210629629E+02  0.30921132659E+02  0.66932210892E+02  0.47000000000E+01 0. -1.
          5    1    4    4  503    0 -0.45164663364E+02 -0.57800197457E+02  0.30059322192E+03  0.30944964810E+03  0.47000000000E+01 0. -1.
         -5    1    4    4    0  503  0.33215708471E+02 -0.89621750950E+02  0.27346455121E+03  0.28972451105E+03  0.47000000000E+01 0.  1.
<mgrwt>
<rscale>  0 0.18790398E+03</rscale>
<asrwt>0</asrwt>
<pdfrwt beam="1">  1        2 0.14854260E+00 0.19365311E+03</pdfrwt>
<pdfrwt beam="2">  1       -2 0.57386402E-02 0.19365311E+03</pdfrwt>
<totfact> 0.43251732E+03</totfact>
</mgrwt>
</event>
<event>
 8    1  0.3629925E-004  0.1541173E+03  0.7546771E-02  0.1204008E+00
         -2   -1    0    0    0  501 -0.00000000000E+00  0.00000000000E+00  0.45563813983E+02  0.45563813983E+02  0.00000000000E+00 0. -1.
          2   -1    0    0  501    0  0.00000000000E+00 -0.00000000000E+00 -0.44808522836E+03  0.44808522836E+03  0.00000000000E+00 0.  1.
         25    2    1    2    0    0  0.32248030940E+02  0.84193828885E+02 -0.18076556181E+03  0.23754650946E+03  0.12499447787E+03 0.  0.
         23    2    1    2    0    0 -0.32248030940E+02 -0.84193828885E+02 -0.22175585256E+03  0.25610253288E+03  0.91018200814E+02 0.  0.
          5    1    4    4  502    0  0.27907941395E+02 -0.29706711089E+02 -0.41487846057E+02  0.58349577951E+02  0.47000000000E+01 0. -1.
         -5    1    3    3    0  503 -0.30390305678E+02  0.46073073205E+02 -0.16823048601E+02  0.57891309520E+02  0.47000000000E+01 0.  1.
          5    1    3    3  503    0  0.62638336618E+02  0.38120755680E+02 -0.16394251321E+03  0.17965519994E+03  0.47000000000E+01 0.  1.
         -5    1    4    4    0  502 -0.60155972335E+02 -0.54487117796E+02 -0.18026800650E+03  0.19775295493E+03  0.47000000000E+01 0.  1.
<mgrwt>
<rscale>  0 0.14715893E+03</rscale>
<asrwt>0</asrwt>
<pdfrwt beam="1">  1        2 0.68936192E-01 0.15411734E+03</pdfrwt>
<pdfrwt beam="2">  1       -2 0.70098173E-02 0.15411734E+03</pdfrwt>
<totfact> 0.78803407E+03</totfact>
</mgrwt>
</event>
<event>
 8    1  0.3629925E-004  0.1256492E+03  0.7546771E-02  0.1249079E+00
         -2   -1    0    0    0  501 -0.00000000000E+00  0.00000000000E+00  0.21193207252E+03  0.21193207252E+03  0.00000000000E+00 0.  1.
          2   -1    0    0  501    0  0.00000000000E+00 -0.00000000000E+00 -0.56761245442E+02  0.56761245442E+02  0.00000000000E+00 0. -1.
         25    2    1    2    0    0  0.55689517999E+01  0.11445606117E+02  0.76366384012E+02  0.14703583145E+03  0.12500278396E+03 0.  0.
         23    2    1    2    0    0 -0.55689517999E+01 -0.11445606117E+02  0.78804443062E+02  0.12165748651E+03  0.91806256074E+02 0.  0.
          5    1    3    3  502    0  0.35758376863E+02 -0.46266734235E+02  0.24209725352E+02  0.63462374792E+02  0.47000000000E+01 0. -1.
         -5    1    3    3    0  502 -0.30189425064E+02  0.57712340352E+02  0.52156658660E+02  0.83573456654E+02  0.47000000000E+01 0. -1.
          5    1    4    4  503    0 -0.45256500051E+02  0.56114094915E+00  0.20375148494E+02  0.49856818513E+02  0.47000000000E+01 0. -1.
         -5    1    4    4    0  503  0.39687548251E+02 -0.12006747066E+02  0.58429294568E+02  0.71800667998E+02  0.47000000000E+01 0.  1.
<mgrwt>
<rscale>  0 0.11644515E+03</rscale>
<asrwt>0</asrwt>
<pdfrwt beam="1">  1        2 0.87324994E-02 0.12564916E+03</pdfrwt>
<pdfrwt beam="2">  1       -2 0.32604934E-01 0.12564916E+03</pdfrwt>
<totfact> 0.62727975E+03</totfact>
</mgrwt>
</event>
<event>
 8    1  0.3629925E-004  0.1287140E+03  0.7546771E-02  0.1242088E+00
         -2   -1    0    0    0  501 -0.00000000000E+00  0.00000000000E+00  0.11618589847E+02  0.11618589847E+02  0.00000000000E+00 0.  1.
          2   -1    0    0  501    0  0.00000000000E+00 -0.00000000000E+00 -0.13682634774E+04  0.13682634774E+04  0.00000000000E+00 0. -1.
         25    2    1    2    0    0  0.30455913714E+02 -0.38550861146E+01 -0.45702109566E+03  0.47480056228E+03  0.12499947076E+03 0.  0.
         23    2    1    2    0    0 -0.30455913714E+02  0.38550861146E+01 -0.89962379186E+03  0.90508150494E+03  0.94377642096E+02 0.  0.
          5    1    4    4  502    0 -0.45905457825E+02 -0.34487374995E+02 -0.51102950059E+03  0.51426640038E+03  0.47000000000E+01 0. -1.
         -5    1    3    3    0  503  0.50858885515E+02  0.26521182881E+02 -0.41462434484E+03  0.41859937496E+03  0.47000000000E+01 0.  1.
          5    1    3    3  503    0 -0.20402971802E+02 -0.30376268996E+02 -0.42396750816E+02  0.56201187321E+02  0.47000000000E+01 0.  1.
         -5    1    4    4    0  502  0.15449544112E+02  0.38342461109E+02 -0.38859429128E+03  0.39081510456E+03  0.47000000000E+01 0.  1.
<mgrwt>
<rscale>  0 0.12061365E+03</rscale>
<asrwt>0</asrwt>
<pdfrwt beam="1">  1        2 0.21050194E+00 0.12871399E+03</pdfrwt>
<pdfrwt beam="2">  1       -2 0.17874765E-02 0.12871399E+03</pdfrwt>
<totfact> 0.14148568E+04</totfact>
</mgrwt>
</event>
<event>
 8    1  0.3629925E-004  0.1415782E+03  0.7546771E-02  0.1221752E+00
         -1   -1    0    0    0  501 -0.00000000000E+00  0.00000000000E+00  0.94705084529E+02  0.94705084529E+02  0.00000000000E+00 0.  1.
          1   -1    0    0  501    0  0.00000000000E+00 -0.00000000000E+00 -0.17289109776E+03  0.17289109776E+03  0.00000000000E+00 0. -1.
         25    2    1    2    0    0  0.50259326694E+02  0.43515639037E+02 -0.55121153264E+02  0.15192998304E+03  0.12499906980E+03 0.  0.
         23    2    1    2    0    0 -0.50259326694E+02 -0.43515639037E+02 -0.23064859968E+02  0.11566619925E+03  0.91799080182E+02 0.  0.
          5    1    3    3  502    0 -0.48802036637E+01 -0.27777202310E+02 -0.54651128665E+02  0.61678401571E+02  0.47000000000E+01 0. -1.
         -5    1    4    4    0  503 -0.17997097519E+02  0.11592266924E+02  0.26720100201E+02  0.34559078783E+02  0.47000000000E+01 0.  1.
          5    1    4    4  503    0 -0.32262229174E+02 -0.55107905961E+02 -0.49784960170E+02  0.81107120463E+02  0.47000000000E+01 0. -1.
         -5    1    3    3    0  502  0.55139530357E+02  0.71292841346E+02 -0.47002459932E+00  0.90251581473E+02  0.47000000000E+01 0. -1.
<mgrwt>
<rscale>  0 0.13392020E+03</rscale>
<asrwt>0</asrwt>
<pdfrwt beam="1">  1        1 0.26598631E-01 0.14157817E+03</pdfrwt>
<pdfrwt beam="2">  1       -1 0.14570013E-01 0.14157817E+03</pdfrwt>
<totfact> 0.56853339E+03</totfact>
</mgrwt>
</event>
<event>
 8    1  0.3629925E-004  0.1415478E+03  0.7546771E-02  0.1221286E+00
         -2   -1    0    0    0  501 -0.00000000000E+00  0.00000000000E+00  0.16599021654E+02  0.16599021654E+02  0.00000000000E+00 0. -1.
          2   -1    0    0  501    0  0.00000000000E+00 -0.00000000000E+00 -0.99029321425E+03  0.99029321425E+03  0.00000000000E+00 0.  1.
         25    2    1    2    0    0  0.63309136613E+02  0.20113155325E+02 -0.56401996023E+03  0.58151034758E+03  0.12499273179E+03 0.  0.
         23    2    1    2    0    0 -0.63309136613E+02 -0.20113155325E+02 -0.40967423237E+03  0.42538188833E+03  0.93296240333E+02 0.  0.
          5    1    3    3  502    0  0.10119233094E+03  0.85974020634E+01 -0.40812525455E+03  0.42059733305E+03  0.47000000000E+01 0.  1.
         -5    1    3    3    0  502 -0.37883194325E+02  0.11515753262E+02 -0.15589470568E+03  0.16091301453E+03  0.47000000000E+01 0.  1.
          5    1    4    4  503    0 -0.21283487250E+02 -0.21196668815E+02 -0.27879789154E+02  0.41251160488E+02  0.47000000000E+01 0. -1.
         -5    1    4    4    0  503 -0.42025649363E+02  0.10835134900E+01 -0.38179444321E+03  0.38413072784E+03  0.47000000000E+01 0.  1.
<mgrwt>
<rscale>  0 0.13424732E+03</rscale>
<asrwt>0</asrwt>
<pdfrwt beam="1">  1        2 0.15235283E+00 0.14154776E+03</pdfrwt>
<pdfrwt beam="2">  1       -2 0.25536952E-02 0.14154776E+03</pdfrwt>
<totfact> 0.13784415E+04</totfact>
</mgrwt>
</event>
<event>
 8    1  0.3629925E-004  0.1369049E+03  0.7546771E-02  0.1229395E+00
         -1   -1    0    0    0  501 -0.00000000000E+00  0.00000000000E+00  0.68157468496E+02  0.68157468496E+02  0.00000000000E+00 0.  1.
          1   -1    0    0  501    0  0.00000000000E+00 -0.00000000000E+00 -0.37833301745E+03  0.37833301745E+03  0.00000000000E+00 0. -1.
         25    2    1    2    0    0  0.42721488364E+02 -0.35944787030E+02 -0.31074109728E+03  0.33956291533E+03  0.12500316256E+03 0.  0.
         23    2    1    2    0    0 -0.42721488364E+02  0.35944787030E+02  0.56554832221E+00  0.10692757061E+03  0.91192281635E+02 0.  0.
          5    1    3    3  502    0  0.70213657770E+02  0.20461320216E+02 -0.15003521405E+03  0.16697688109E+03  0.47000000000E+01 0. -1.
         -5    1    3    3    0  502 -0.27492169406E+02 -0.56406107246E+02 -0.16070588323E+03  0.17258603425E+03  0.47000000000E+01 0. -1.
          5    1    4    4  503    0 -0.23832174024E+02  0.26298554091E+02 -0.44372447429E+02  0.57013950546E+02  0.47000000000E+01 0. -1.
         -5    1    4    4    0  503 -0.18889314341E+02  0.96462329384E+01  0.44937995751E+02  0.49913620068E+02  0.47000000000E+01 0.  1.
<mgrwt>
<rscale>  0 0.12870194E+03</rscale>
<asrwt>0</asrwt>
<pdfrwt beam="1">  1        1 0.58205080E-01 0.13690487E+03</pdfrwt>
<pdfrwt beam="2">  1       -1 0.10485764E-01 0.13690487E+03</pdfrwt>
<totfact> 0.35681112E+03</totfact>
</mgrwt>
</event>
<event>
 8    1  0.3629925E-004  0.1530217E+03  0.7546771E-02  0.1203586E+00
         -1   -1    0    0    0  501 -0.00000000000E+00  0.00000000000E+00  0.65507983148E+03  0.65507983148E+03  0.00000000000E+00 0.  1.
          1   -1    0    0  501    0  0.00000000000E+00 -0.00000000000E+00 -0.46291305448E+02  0.46291305448E+02  0.00000000000E+00 0. -1.
         25    2    1    2    0    0  0.82045602484E+02 -0.32558997705E+02  0.52042945009E+03  0.54245963852E+03  0.12499631065E+03 0.  0.
         23    2    1    2    0    0 -0.82045602484E+02  0.32558997705E+02  0.88359075938E+02  0.15891149841E+03  0.98254612148E+02 0.  0.
          5    1    3    3  502    0  0.46283744523E+02  0.30532071650E+02  0.89087664116E+02  0.10503853723E+03  0.47000000000E+01 0.  1.
         -5    1    4    4    0  503 -0.83971220823E+02 -0.57565874705E+01  0.85633989667E+02  0.12016478025E+03  0.47000000000E+01 0.  1.
          5    1    4    4  503    0  0.19256183384E+01  0.38315585175E+02  0.27250862716E+01  0.38746718164E+02  0.47000000000E+01 0. -1.
         -5    1    3    3    0  502  0.35761857961E+02 -0.63091069354E+02  0.43134178598E+03  0.43742110128E+03  0.47000000000E+01 0.  1.
<mgrwt>
<rscale>  0 0.14749434E+03</rscale>
<asrwt>0</asrwt>
<pdfrwt beam="1">  1        1 0.71217398E-02 0.15302172E+03</pdfrwt>
<pdfrwt beam="2">  1       -1 0.10078151E+00 0.15302172E+03</pdfrwt>
<totfact> 0.99748711E+02</totfact>
</mgrwt>
</event>
<event>
 8    1  0.3629925E-004  0.1790125E+03  0.7546771E-02  0.1174939E+00
          2   -1    0    0  501    0  0.00000000000E+00  0.00000000000E+00  0.10087100642E+04  0.10087100642E+04  0.00000000000E+00 0. -1.
         -2   -1    0    0    0  501 -0.00000000000E+00 -0.00000000000E+00 -0.35313857098E+02  0.35313857098E+02  0.00000000000E+00 0.  1.
         25    2    1    2    0    0 -0.11777343719E+03  0.50492649661E+02  0.75496445167E+03  0.77589740674E+03  0.12500148934E+03 0.  0.
         23    2    1    2    0    0  0.11777343719E+03 -0.50492649661E+02  0.21843175542E+03  0.26812651453E+03  0.88086922100E+02 0.  0.
          5    1    3    3  502    0 -0.14090300209E+03  0.53902960140E+02  0.58009045197E+03  0.59940487783E+03  0.47000000000E+01 0.  1.
         -5    1    3    3    0  502  0.23129564904E+02 -0.34103104789E+01  0.17487399970E+03  0.17649252891E+03  0.47000000000E+01 0.  1.
          5    1    4    4  503    0  0.98053819933E+02 -0.15142888722E+01  0.11006413073E+03  0.14748914383E+03  0.47000000000E+01 0. -1.
         -5    1    4    4    0  503  0.19719617252E+02 -0.48978360789E+02  0.10836762468E+03  0.12063737070E+03  0.47000000000E+01 0.  1.
<mgrwt>
<rscale>  0 0.17281966E+03</rscale>
<asrwt>0</asrwt>
<pdfrwt beam="1">  1        2 0.15518614E+00 0.17901246E+03</pdfrwt>
<pdfrwt beam="2">  1       -2 0.54329019E-02 0.17901246E+03</pdfrwt>
<totfact> 0.44144319E+03</totfact>
</mgrwt>
</event>
<event>
 8    1  0.3629925E-004  0.1699795E+03  0.7546771E-02  0.1184244E+00
          1   -1    0    0  501    0  0.00000000000E+00  0.00000000000E+00  0.74292966622E+02  0.74292966622E+02  0.00000000000E+00 0. -1.
         -1   -1    0    0    0  501 -0.00000000000E+00 -0.00000000000E+00 -0.35635367723E+03  0.35635367723E+03  0.00000000000E+00 0.  1.
         25    2    1    2    0    0 -0.13018997020E+01 -0.11517538161E+03 -0.10293129228E+03  0.19871554489E+03  0.12500381346E+03 0.  0.
         23    2    1    2    0    0  0.13018997020E+01  0.11517538161E+03 -0.17912941833E+03  0.23193109896E+03  0.91856533150E+02 0.  0.
          5    1    4    4  502    0  0.17099736729E+02  0.71459266882E+02 -0.37162213931E+02  0.82473922932E+02  0.47000000000E+01 0. -1.
         -5    1    3    3    0  503 -0.22565089998E+02 -0.13094965850E+03 -0.10806649047E+03  0.17134016666E+03  0.47000000000E+01 0.  1.
          5    1    3    3  503    0  0.21263190296E+02  0.15774276890E+02  0.51351981934E+01  0.27375378234E+02  0.47000000000E+01 0.  1.
         -5    1    4    4    0  502 -0.15797837027E+02  0.43716114728E+02 -0.14196720440E+03  0.14945717603E+03  0.47000000000E+01 0.  1.
<mgrwt>
<rscale>  0 0.16400856E+03</rscale>
<asrwt>0</asrwt>
<pdfrwt beam="1">  1        1 0.11429687E-01 0.16997946E+03</pdfrwt>
<pdfrwt beam="2">  1       -1 0.54823642E-01 0.16997946E+03</pdfrwt>
<totfact> 0.18191814E+03</totfact>
</mgrwt>
</event>
<event>
 8    1  0.3629925E-004  0.1382514E+03  0.7546771E-02  0.1226176E+00
          1   -1    0    0  501    0  0.00000000000E+00  0.00000000000E+00  0.96647601292E+03  0.96647601292E+03  0.00000000000E+00 0. -1.
         -1   -1    0    0    0  501 -0.00000000000E+00 -0.00000000000E+00 -0.16174916253E+02  0.16174916253E+02  0.00000000000E+00 0.  1.
         25    2    1    2    0    0  0.39996010673E+02 -0.43477421371E+02  0.48734826744E+03  0.50657849600E+03  0.12499388704E+03 0.  0.
         23    2    1    2    0    0 -0.39996010673E+02  0.43477421371E+02  0.46295282923E+03  0.47607243318E+03  0.93966337046E+02 0.  0.
          5    1    3    3  502    0  0.83538490425E+02 -0.16103549718E+02  0.33708858884E+03  0.34769068211E+03  0.47000000000E+01 0. -1.
         -5    1    3    3    0  502 -0.43542479753E+02 -0.27373871653E+02  0.15025967859E+03  0.15888781389E+03  0.47000000000E+01 0. -1.
          5    1    4    4  503    0 -0.68612161067E+02  0.15217980937E+02  0.28600208691E+03  0.29454795757E+03  0.47000000000E+01 0. -1.
         -5    1    4    4    0  503  0.28616150394E+02  0.28259440433E+02  0.17695074232E+03  0.18152447561E+03  0.47000000000E+01 0.  1.
<mgrwt>
<rscale>  0 0.13086600E+03</rscale>
<asrwt>0</asrwt>
<pdfrwt beam="1">  1        1 0.14868857E+00 0.13825136E+03</pdfrwt>
<pdfrwt beam="2">  1       -1 0.24884494E-02 0.13825136E+03</pdfrwt>
<totfact> 0.81627481E+03</totfact>
</mgrwt>
</event>
<event>
 8    1  0.3629925E-004  0.1303195E+03  0.7546771E-02  0.1240910E+00
          1   -1    0    0  501    0  0.00000000000E+00  0.00000000000E+00  0.16472510049E+03  0.16472510049E+03  0.00000000000E+00 0. -1.
         -1   -1    0    0    0  501 -0.00000000000E+00 -0.00000000000E+00 -0.10282010066E+03  0.10282010066E+03  0.00000000000E+00 0.  1.
         25    2    1    2    0    0 -0.35594564957E+02 -0.96227073919E+01 -0.29463704011E+02  0.13360867903E+03  0.12499439870E+03 0.  0.
         23    2    1    2    0    0  0.35594564957E+02  0.96227073919E+01  0.91368703842E+02  0.13393652212E+03  0.90725863807E+02 0.  0.
          5    1    4    4  502    0  0.44549391820E+02 -0.31197118674E+02  0.62195719705E+02  0.82754492777E+02  0.47000000000E+01 0. -1.
         -5    1    3    3    0  503 -0.78312007522E+02 -0.24015680512E+02 -0.32354049829E+02  0.88195226474E+02  0.47000000000E+01 0. -1.
          5    1    3    3  503    0  0.42717442564E+02  0.14392973121E+02  0.28903458174E+01  0.45413452560E+02  0.47000000000E+01 0. -1.
         -5    1    4    4    0  502 -0.89548268625E+01  0.40819826066E+02  0.29172984137E+02  0.51182029342E+02  0.47000000000E+01 0.  1.
<mgrwt>
<rscale>  0 0.12133570E+03</rscale>
<asrwt>0</asrwt>
<pdfrwt beam="1">  1        1 0.25342323E-01 0.13031949E+03</pdfrwt>
<pdfrwt beam="2">  1       -1 0.15818477E-01 0.13031949E+03</pdfrwt>
<totfact> 0.52821961E+03</totfact>
</mgrwt>
</event>
<event>
 8    1  0.3629925E-004  0.1474243E+03  0.7546771E-02  0.1212575E+00
          1   -1    0    0  501    0  0.00000000000E+00  0.00000000000E+00  0.15834305099E+03  0.15834305099E+03  0.00000000000E+00 0. -1.
         -1   -1    0    0    0  501 -0.00000000000E+00 -0.00000000000E+00 -0.11607872677E+03  0.11607872677E+03  0.00000000000E+00 0.  1.
         25    2    1    2    0    0 -0.33336542067E+02  0.70698377034E+02  0.70047873327E+01  0.14759057337E+03  0.12499729897E+03 0.  0.
         23    2    1    2    0    0  0.33336542067E+02 -0.70698377034E+02  0.35259536893E+02  0.12683120440E+03  0.93452308237E+02 0.  0.
          5    1    3    3  502    0  0.16633908113E+02 -0.30061890813E+02 -0.14264685187E+01  0.34706324939E+02  0.47000000000E+01 0. -1.
         -5    1    4    4    0  503  0.63993822773E+02 -0.49461618830E+02  0.37290435158E+02  0.89187037425E+02  0.47000000000E+01 0.  1.
          5    1    4    4  503    0 -0.30657280706E+02 -0.21236758204E+02 -0.20308982652E+01  0.37644166972E+02  0.47000000000E+01 0. -1.
         -5    1    3    3    0  502 -0.49970450180E+02  0.10076026785E+03  0.84312558515E+01  0.11288424843E+03  0.47000000000E+01 0. -1.
<mgrwt>
<rscale>  0 0.14056158E+03</rscale>
<asrwt>0</asrwt>
<pdfrwt beam="1">  1        1 0.24360469E-01 0.14742425E+03</pdfrwt>
<pdfrwt beam="2">  1       -1 0.17858266E-01 0.14742425E+03</pdfrwt>
<totfact> 0.46160351E+03</totfact>
</mgrwt>
</event>
<event>
 8    1  0.3629925E-004  0.1304526E+03  0.7546771E-02  0.1241702E+00
         -2   -1    0    0    0  501 -0.00000000000E+00  0.00000000000E+00  0.23597942672E+02  0.23597942672E+02  0.00000000000E+00 0.  1.
          2   -1    0    0  501    0  0.00000000000E+00 -0.00000000000E+00 -0.54422109496E+03  0.54422109496E+03  0.00000000000E+00 0. -1.
         25    2    1    2    0    0  0.90276875441E+01  0.36222550092E+02 -0.29064038732E+03  0.31857451345E+03  0.12499725438E+03 0.  0.
         23    2    1    2    0    0 -0.90276875441E+01 -0.36222550092E+02 -0.22998276496E+03  0.24924452418E+03  0.88527896018E+02 0.  0.
          5    1    3    3  502    0  0.36725367572E+02  0.62429376943E+02 -0.96945560018E+02  0.12110619859E+03  0.47000000000E+01 0.  1.
         -5    1    3    3    0  502 -0.27697680028E+02 -0.26206826851E+02 -0.19369482730E+03  0.19746831487E+03  0.47000000000E+01 0.  1.
          5    1    4    4  503    0 -0.24543801069E+02  0.14424624267E+01 -0.19110750895E+03  0.19273984758E+03  0.47000000000E+01 0. -1.
         -5    1    4    4    0  503  0.15516113525E+02 -0.37665012519E+02 -0.38875256019E+02  0.56504676598E+02  0.47000000000E+01 0.  1.
<mgrwt>
<rscale>  0 0.12084934E+03</rscale>
<asrwt>0</asrwt>
<pdfrwt beam="1">  1        2 0.83726310E-01 0.13045262E+03</pdfrwt>
<pdfrwt beam="2">  1       -2 0.36304532E-02 0.13045262E+03</pdfrwt>
<totfact> 0.16930283E+04</totfact>
</mgrwt>
</event>
<event>
 8    1  0.3629925E-004  0.2063882E+03  0.7546771E-02  0.1147558E+00
          2   -1    0    0  501    0  0.00000000000E+00  0.00000000000E+00  0.19443962764E+04  0.19443962764E+04  0.00000000000E+00 0. -1.
         -2   -1    0    0    0  501 -0.00000000000E+00 -0.00000000000E+00 -0.20378537950E+02  0.20378537950E+02  0.00000000000E+00 0.  1.
         25    2    1    2    0    0 -0.11863568820E+03 -0.11355324648E+03  0.98152340143E+03  0.10029876732E+04  0.12500927482E+03 0.  0.
         23    2    1    2    0    0  0.11863568820E+03  0.11355324648E+03  0.94249433698E+03  0.96178714108E+03  0.98844135938E+02 0.  0.
          5    1    3    3  502    0 -0.59207287013E+02  0.50221631023E+01  0.15859663410E+03  0.16942758720E+03  0.47000000000E+01 0.  1.
         -5    1    3    3    0  502 -0.59428401187E+02 -0.11857540958E+03  0.82292676733E+03  0.83356008603E+03  0.47000000000E+01 0.  1.
          5    1    4    4  503    0  0.12309038366E+03  0.83590307599E+02  0.87610408984E+03  0.88866138000E+03  0.47000000000E+01 0. -1.
         -5    1    4    4    0  503 -0.44546954622E+01  0.29962938879E+02  0.66390247140E+02  0.73125761078E+02  0.47000000000E+01 0.  1.
<mgrwt>
<rscale>  0 0.20260700E+03</rscale>
<asrwt>0</asrwt>
<pdfrwt beam="1">  1        2 0.29913774E+00 0.20638819E+03</pdfrwt>
<pdfrwt beam="2">  1       -2 0.31351612E-02 0.20638819E+03</pdfrwt>
<totfact> 0.31525873E+03</totfact>
</mgrwt>
</event>
<event>
 8    1  0.3629925E-004  0.1634713E+03  0.7546771E-02  0.1191849E+00
         -1   -1    0    0    0  501 -0.00000000000E+00  0.00000000000E+00  0.18869446508E+03  0.18869446508E+03  0.00000000000E+00 0.  1.
          1   -1    0    0  501    0  0.00000000000E+00 -0.00000000000E+00 -0.24271171030E+03  0.24271171030E+03  0.00000000000E+00 0. -1.
         25    2    1    2    0    0 -0.99234859497E+02 -0.35361462147E+02 -0.17997502386E+03  0.24313345112E+03  0.12499950198E+03 0.  0.
         23    2    1    2    0    0  0.99234859497E+02  0.35361462147E+02  0.12595777865E+03  0.18827272426E+03  0.92104648917E+02 0.  0.
          5    1    4    4  502    0  0.99302213045E+02  0.57560944609E+02  0.11673524527E+03  0.16377850698E+03  0.47000000000E+01 0. -1.
         -5    1    4    4    0  502 -0.67353547719E-01 -0.22199482461E+02  0.92225333739E+01  0.24494217274E+02  0.47000000000E+01 0.  1.
          5    1    3    3  503    0 -0.57705590492E+02  0.36093928979E+02 -0.12896079662E+03  0.14589614096E+03  0.47000000000E+01 0.  1.
         -5    1    3    3    0  503 -0.41529269005E+02 -0.71455391127E+02 -0.51014227244E+02  0.97237310157E+02  0.47000000000E+01 0.  1.
<mgrwt>
<rscale>  0 0.15723934E+03</rscale>
<asrwt>0</asrwt>
<pdfrwt beam="1">  1        1 0.37340263E-01 0.16347130E+03</pdfrwt>
<pdfrwt beam="2">  1       -1 0.29029918E-01 0.16347130E+03</pdfrwt>
<totfact> 0.12290268E+03</totfact>
</mgrwt>
</event>
<event>
 8    1  0.3629925E-004  0.1354874E+03  0.7546771E-02  0.1231960E+00
         -1   -1    0    0    0  501 -0.00000000000E+00  0.00000000000E+00  0.15387680007E+03  0.15387680007E+03  0.00000000000E+00 0.  1.
          1   -1    0    0  501    0  0.00000000000E+00 -0.00000000000E+00 -0.13957673645E+03  0.13957673645E+03  0.00000000000E+00 0. -1.
         25    2    1    2    0    0 -0.52240505075E+02 -0.16573599410E+01  0.91443097762E+02  0.16345845488E+03  0.12500003653E+03 0.  0.
         23    2    1    2    0    0  0.52240505075E+02  0.16573599410E+01 -0.77143034136E+02  0.12999508164E+03  0.90641360992E+02 0.  0.
          5    1    4    4  502    0  0.42230577256E+02  0.34206481486E+02 -0.11283661730E+02  0.55703824402E+02  0.47000000000E+01 0. -1.
         -5    1    4    4    0  502  0.10009927819E+02 -0.32549121545E+02 -0.65859372406E+02  0.74291257238E+02  0.47000000000E+01 0.  1.
          5    1    3    3  503    0 -0.39615610269E+02 -0.56838035848E+02  0.20152309968E+02  0.72306047417E+02  0.47000000000E+01 0. -1.
         -5    1    3    3    0  503 -0.12624894806E+02  0.55180675907E+02  0.71290787794E+02  0.91152407465E+02  0.47000000000E+01 0. -1.
<mgrwt>
<rscale>  0 0.12701041E+03</rscale>
<asrwt>0</asrwt>
<pdfrwt beam="1">  1        1 0.21473344E-01 0.13548737E+03</pdfrwt>
<pdfrwt beam="2">  1       -1 0.23673354E-01 0.13548737E+03</pdfrwt>
<totfact> 0.34207801E+03</totfact>
</mgrwt>
</event>
<event>
 8    1  0.3629925E-004  0.1524572E+03  0.7546771E-02  0.1207334E+00
         -1   -1    0    0    0  501 -0.00000000000E+00  0.00000000000E+00  0.15364223648E+03  0.15364223648E+03  0.00000000000E+00 0.  1.
          1   -1    0    0  501    0  0.00000000000E+00 -0.00000000000E+00 -0.17211458754E+03  0.17211458754E+03  0.00000000000E+00 0. -1.
         25    2    1    2    0    0  0.78109531642E+02  0.38970816548E+02  0.76142098162E+02  0.17041365104E+03  0.12499347932E+03 0.  0.
         23    2    1    2    0    0 -0.78109531642E+02 -0.38970816548E+02 -0.94614449224E+02  0.15534317297E+03  0.86947017838E+02 0.  0.
          5    1    3    3  502    0  0.63405371391E+02 -0.13715005394E+02 -0.12418159860E+02  0.66216638306E+02  0.47000000000E+01 0. -1.
         -5    1    3    3    0  502  0.14704160251E+02  0.52685821942E+02  0.88560258023E+02  0.10419701274E+03  0.47000000000E+01 0. -1.
          5    1    4    4  503    0 -0.73302118753E+01 -0.30594488375E+02 -0.74700356559E+02  0.81191058591E+02  0.47000000000E+01 0. -1.
         -5    1    4    4    0  503 -0.70779319767E+02 -0.83763281733E+01 -0.19914092664E+02  0.74152114379E+02  0.47000000000E+01 0.  1.
<mgrwt>
<rscale>  0 0.14455013E+03</rscale>
<asrwt>0</asrwt>
<pdfrwt beam="1">  1        1 0.26479167E-01 0.15245719E+03</pdfrwt>
<pdfrwt beam="2">  1       -1 0.23637267E-01 0.15245719E+03</pdfrwt>
<totfact> 0.26479775E+03</totfact>
</mgrwt>
</event>
<event>
 8    1  0.3629925E-004  0.1363502E+03  0.7546771E-02  0.1231435E+00
         -2   -1    0    0    0  501 -0.00000000000E+00  0.00000000000E+00  0.45259396981E+02  0.45259396981E+02  0.00000000000E+00 0.  1.
          2   -1    0    0  501    0  0.00000000000E+00 -0.00000000000E+00 -0.32429143200E+03  0.32429143200E+03  0.00000000000E+00 0. -1.
         25    2    1    2    0    0  0.37284752034E+02 -0.39663487494E+02 -0.13363054412E+03  0.19091487498E+03  0.12501208819E+03 0.  0.
         23    2    1    2    0    0 -0.37284752034E+02  0.39663487494E+02 -0.14540149090E+03  0.17863595400E+03  0.88350809447E+02 0.  0.
          5    1    4    4  502    0  0.69496293838E+01  0.22903233291E+02 -0.12422389803E+03  0.12659590154E+03  0.47000000000E+01 0. -1.
         -5    1    4    4    0  502 -0.44234381418E+02  0.16760254204E+02 -0.21177592870E+02  0.52040052461E+02  0.47000000000E+01 0.  1.
          5    1    3    3  503    0  0.66496905353E+01 -0.46267463152E+02  0.63377337547E+01  0.47404149606E+02  0.47000000000E+01 0.  1.
         -5    1    3    3    0  503  0.30635061499E+02  0.66039756574E+01 -0.13996827787E+03  0.14351072538E+03  0.47000000000E+01 0.  1.
<mgrwt>
<rscale>  0 0.12735463E+03</rscale>
<asrwt>0</asrwt>
<pdfrwt beam="1">  1        2 0.49890988E-01 0.13635016E+03</pdfrwt>
<pdfrwt beam="2">  1       -2 0.69629844E-02 0.13635016E+03</pdfrwt>
<totfact> 0.11158220E+04</totfact>
</mgrwt>
</event>
<event>
 8    1  0.3629925E-004  0.1268328E+03  0.7546771E-02  0.1247368E+00
          3   -1    0    0  501    0  0.00000000000E+00  0.00000000000E+00  0.72582967266E+02  0.72582967266E+02  0.00000000000E+00 0. -1.
         -3   -1    0    0    0  501 -0.00000000000E+00 -0.00000000000E+00 -0.16763897029E+03  0.16763897029E+03  0.00000000000E+00 0.  1.
         25    2    1    2    0    0  0.21153763397E+02  0.35689273489E+01 -0.46555496841E+02  0.13510730012E+03  0.12500539713E+03 0.  0.
         23    2    1    2    0    0 -0.21153763397E+02 -0.35689273489E+01 -0.48500506185E+02  0.10511463744E+03  0.90755545036E+02 0.  0.
          5    1    4    4  502    0 -0.40929781469E+02 -0.36142139328E+02 -0.30312232447E+02  0.62629247817E+02  0.47000000000E+01 0. -1.
         -5    1    4    4    0  502  0.19776018072E+02  0.32573211979E+02 -0.18188273739E+02  0.42485389618E+02  0.47000000000E+01 0.  1.
          5    1    3    3  503    0 -0.27663230490E+01  0.51787333127E+02  0.14028632017E+02  0.53930259890E+02  0.47000000000E+01 0.  1.
         -5    1    3    3    0  503  0.23920086446E+02 -0.48218405778E+02 -0.60584128858E+02  0.81177040232E+02  0.47000000000E+01 0.  1.
<mgrwt>
<rscale>  0 0.11744746E+03</rscale>
<asrwt>0</asrwt>
<pdfrwt beam="1">  1        3 0.11166611E-01 0.12683284E+03</pdfrwt>
<pdfrwt beam="2">  1       -3 0.25790610E-01 0.12683284E+03</pdfrwt>
<totfact> 0.19722567E+03</totfact>
</mgrwt>
</event>
<event>
 8    1  0.3629925E-004  0.2046697E+03  0.7546771E-02  0.1149735E+00
          2   -1    0    0  501    0  0.00000000000E+00  0.00000000000E+00  0.22041772078E+03  0.22041772078E+03  0.00000000000E+00 0. -1.
         -2   -1    0    0    0  501 -0.00000000000E+00 -0.00000000000E+00 -0.18422920631E+03  0.18422920631E+03  0.00000000000E+00 0.  1.
         25    2    1    2    0    0 -0.60902539369E+01  0.16194775056E+03 -0.29507629652E+02  0.20678585771E+03  0.12500210252E+03 0.  0.
         23    2    1    2    0    0  0.60902539369E+01 -0.16194775056E+03  0.65696144130E+02  0.19786106938E+03  0.92568106377E+02 0.  0.
          5    1    4    4  502    0 -0.37622647625E+02 -0.90637958895E+02  0.13536887978E+02  0.99176814544E+02  0.47000000000E+01 0. -1.
         -5    1    4    4    0  502  0.43712901562E+02 -0.71309791669E+02  0.52159256152E+02  0.98684254839E+02  0.47000000000E+01 0.  1.
          5    1    3    3  503    0  0.53440820272E+02  0.36322697756E+02 -0.97876841824E+00  0.64794348760E+02  0.47000000000E+01 0. -1.
         -5    1    3    3    0  503 -0.59531074209E+02  0.12562505281E+03 -0.28528861234E+02  0.14199150895E+03  0.47000000000E+01 0. -1.
<mgrwt>
<rscale>  0 0.20000418E+03</rscale>
<asrwt>0</asrwt>
<pdfrwt beam="1">  1        2 0.33910419E-01 0.20466971E+03</pdfrwt>
<pdfrwt beam="2">  1       -2 0.28342955E-01 0.20466971E+03</pdfrwt>
<totfact> 0.17209282E+03</totfact>
</mgrwt>
</event>
<event>
 8    1  0.3629925E-004  0.1535900E+03  0.7546771E-02  0.1204465E+00
         -2   -1    0    0    0  501 -0.00000000000E+00  0.00000000000E+00  0.20630311617E+02  0.20630311617E+02  0.00000000000E+00 0.  1.
          2   -1    0    0  501    0  0.00000000000E+00 -0.00000000000E+00 -0.96266038735E+03  0.96266038735E+03  0.00000000000E+00 0. -1.
         25    2    1    2    0    0  0.87776248359E+02  0.16108838556E+02 -0.52608025671E+03  0.54804225418E+03  0.12500284562E+03 0.  0.
         23    2    1    2    0    0 -0.87776248359E+02 -0.16108838556E+02 -0.41594981903E+03  0.43524844479E+03  0.91993436110E+02 0.  0.
          5    1    3    3  502    0  0.31366201285E+02  0.69052859450E+02 -0.25079761269E+03  0.26205661318E+03  0.47000000000E+01 0. -1.
         -5    1    3    3    0  502  0.56410047073E+02 -0.52944020894E+02 -0.27528264403E+03  0.28598564100E+03  0.47000000000E+01 0. -1.
          5    1    4    4  503    0 -0.66754214662E+02 -0.49625061954E+02 -0.33245693481E+03  0.34273674365E+03  0.47000000000E+01 0. -1.
         -5    1    4    4    0  503 -0.21022033697E+02  0.33516223398E+02 -0.83492884219E+02  0.92511701135E+02  0.47000000000E+01 0.  1.
<mgrwt>
<rscale>  0 0.14679686E+03</rscale>
<asrwt>0</asrwt>
<pdfrwt beam="1">  1        2 0.14810159E+00 0.15358996E+03</pdfrwt>
<pdfrwt beam="2">  1       -2 0.31738942E-02 0.15358996E+03</pdfrwt>
<totfact> 0.10456850E+04</totfact>
</mgrwt>
</event>
<event>
 8    1  0.3629925E-004  0.1294809E+03  0.7546771E-02  0.1244887E+00
         -2   -1    0    0    0  501 -0.00000000000E+00  0.00000000000E+00  0.11720548734E+02  0.11720548734E+02  0.00000000000E+00 0. -1.
          2   -1    0    0  501    0  0.00000000000E+00 -0.00000000000E+00 -0.10798103750E+04  0.10798103750E+04  0.00000000000E+00 0.  1.
         25    2    1    2    0    0  0.13490819929E+02 -0.30944866926E+02 -0.71430490088E+03  0.72594544976E+03  0.12500287039E+03 0.  0.
         23    2    1    2    0    0 -0.13490819929E+02  0.30944866926E+02 -0.35378492543E+03  0.36558547401E+03  0.85728515294E+02 0.  0.
          5    1    4    4  502    0  0.11081066885E+02 -0.25594833811E+02 -0.78413831294E+02  0.83358889744E+02  0.47000000000E+01 0. -1.
         -5    1    3    3    0  503 -0.34027129604E+02 -0.51325559115E+02 -0.20771189181E+03  0.21669905069E+03  0.47000000000E+01 0.  1.
          5    1    3    3  503    0  0.47517949533E+02  0.20380692189E+02 -0.50659300906E+03  0.50924639908E+03  0.47000000000E+01 0.  1.
         -5    1    4    4    0  502 -0.24571886814E+02  0.56539700737E+02 -0.27537109414E+03  0.28222658427E+03  0.47000000000E+01 0.  1.
<mgrwt>
<rscale>  0 0.11892171E+03</rscale>
<asrwt>0</asrwt>
<pdfrwt beam="1">  1        2 0.16612469E+00 0.12948090E+03</pdfrwt>
<pdfrwt beam="2">  1       -2 0.18031612E-02 0.12948090E+03</pdfrwt>
<totfact> 0.20137263E+04</totfact>
</mgrwt>
</event>
<event>
 8    1  0.3629925E-004  0.1710405E+03  0.7546771E-02  0.1182856E+00
          1   -1    0    0  501    0  0.00000000000E+00  0.00000000000E+00  0.72364586084E+03  0.72364586084E+03  0.00000000000E+00 0.  1.
         -1   -1    0    0    0  501 -0.00000000000E+00 -0.00000000000E+00 -0.39215741426E+02  0.39215741426E+02  0.00000000000E+00 0. -1.
         25    2    1    2    0    0 -0.54353845569E+02 -0.10331851434E+03  0.24491457603E+03  0.29872731319E+03  0.12500320859E+03 0.  0.
         23    2    1    2    0    0  0.54353845569E+02  0.10331851434E+03  0.43951554338E+03  0.46413428907E+03  0.92831403574E+02 0.  0.
          5    1    4    4  502    0  0.38229389182E+02  0.50804775189E+02  0.89981388446E+02  0.11027851852E+03  0.47000000000E+01 0. -1.
         -5    1    4    4    0  502  0.16124456386E+02  0.52513739148E+02  0.34953415493E+03  0.35385577056E+03  0.47000000000E+01 0.  1.
          5    1    3    3  503    0 -0.22229171800E+01 -0.85831868791E+02  0.22360638301E+03  0.23957035622E+03  0.47000000000E+01 0. -1.
         -5    1    3    3    0  503 -0.52130928389E+02 -0.17486645547E+02  0.21308193026E+02  0.59156956963E+02  0.47000000000E+01 0. -1.
<mgrwt>
<rscale>  0 0.16528465E+03</rscale>
<asrwt>0</asrwt>
<pdfrwt beam="1">  1        1 0.11133012E+00 0.17104052E+03</pdfrwt>
<pdfrwt beam="2">  1       -1 0.60331915E-02 0.17104052E+03</pdfrwt>
<totfact> 0.34997966E+03</totfact>
</mgrwt>
</event>
<event>
 8    1  0.3629925E-004  0.1251643E+03  0.7546771E-02  0.1250249E+00
         -3   -1    0    0    0  501 -0.00000000000E+00  0.00000000000E+00  0.57415516686E+02  0.57415516686E+02  0.00000000000E+00 0.  1.
          3   -1    0    0  501    0  0.00000000000E+00 -0.00000000000E+00 -0.20481857346E+03  0.20481857346E+03  0.00000000000E+00 0. -1.
         25    2    1    2    0    0 -0.34446030614E+01  0.58921668325E+01 -0.80756615388E+02  0.14895549816E+03  0.12497810442E+03 0.  0.
         23    2    1    2    0    0  0.34446030614E+01 -0.58921668325E+01 -0.66646441382E+02  0.11327859198E+03  0.91343901446E+02 0.  0.
          5    1    3    3  502    0  0.18509369932E+02 -0.97473288032E+01  0.28872900279E+02  0.35963058332E+02  0.47000000000E+01 0. -1.
         -5    1    4    4    0  503 -0.19510558601E+02 -0.34699741942E+02 -0.37784329551E+01  0.40262892884E+02  0.47000000000E+01 0.  1.
          5    1    4    4  503    0  0.22955161662E+02  0.28807575110E+02 -0.62868008427E+02  0.73015699094E+02  0.47000000000E+01 0. -1.
         -5    1    3    3    0  502 -0.21953972993E+02  0.15639495636E+02 -0.10962951567E+03  0.11299243983E+03  0.47000000000E+01 0. -1.
<mgrwt>
<rscale>  0 0.11576641E+03</rscale>
<asrwt>0</asrwt>
<pdfrwt beam="1">  1        3 0.31510550E-01 0.12516433E+03</pdfrwt>
<pdfrwt beam="2">  1       -3 0.88331564E-02 0.12516433E+03</pdfrwt>
<totfact> 0.20060508E+03</totfact>
</mgrwt>
</event>
<event>
 8    1  0.3629925E-004  0.1503784E+03  0.7546771E-02  0.1209151E+00
         -1   -1    0    0    0  501 -0.00000000000E+00  0.00000000000E+00  0.55119145235E+02  0.55119145235E+02  0.00000000000E+00 0.  1.
          1   -1    0    0  501    0  0.00000000000E+00 -0.00000000000E+00 -0.34909220648E+03  0.34909220648E+03  0.00000000000E+00 0. -1.
         25    2    1    2    0    0  0.50590161189E+01  0.83440183973E+02 -0.12891662477E+03  0.19807362152E+03  0.12500322178E+03 0.  0.
         23    2    1    2    0    0 -0.50590161189E+01 -0.83440183973E+02 -0.16505643648E+03  0.20613773019E+03  0.90891576296E+02 0.  0.
          5    1    4    4  502    0 -0.33045078261E+02 -0.64045566254E+02 -0.15389471762E+03  0.16999848783E+03  0.47000000000E+01 0. -1.
         -5    1    4    4    0  502  0.27986062142E+02 -0.19394617719E+02 -0.11161718859E+02  0.36139242363E+02  0.47000000000E+01 0.  1.
          5    1    3    3  503    0 -0.13072515338E+02 -0.19338210336E+02 -0.78579609536E+02  0.82107868509E+02  0.47000000000E+01 0.  1.
         -5    1    3    3    0  503  0.18131531456E+02  0.10277839431E+03 -0.50337015236E+02  0.11596575302E+03  0.47000000000E+01 0.  1.
<mgrwt>
<rscale>  0 0.14315112E+03</rscale>
<asrwt>0</asrwt>
<pdfrwt beam="1">  1        1 0.53706494E-01 0.15037840E+03</pdfrwt>
<pdfrwt beam="2">  1       -1 0.84798684E-02 0.15037840E+03</pdfrwt>
<totfact> 0.54799725E+03</totfact>
</mgrwt>
</event>
<event>
 8    1  0.3629925E-004  0.1528482E+03  0.7546771E-02  0.1202549E+00
          2   -1    0    0  501    0  0.00000000000E+00  0.00000000000E+00  0.56854438338E+03  0.56854438338E+03  0.00000000000E+00 0. -1.
         -2   -1    0    0    0  501 -0.00000000000E+00 -0.00000000000E+00 -0.38546284015E+02  0.38546284015E+02  0.00000000000E+00 0.  1.
         25    2    1    2    0    0 -0.47926077979E+02 -0.73764784344E+02  0.21146936574E+03  0.26092499333E+03  0.12499762853E+03 0.  0.
         23    2    1    2    0    0  0.47926077979E+02  0.73764784344E+02  0.31852873363E+03  0.34616567407E+03  0.10311143194E+03 0.  0.
          5    1    4    4  502    0  0.44409886924E+02  0.98440521353E+01  0.24199124368E+03  0.24627422812E+03  0.47000000000E+01 0. -1.
         -5    1    4    4    0  502  0.35161910547E+01  0.63920732209E+02  0.76537489949E+02  0.99891445947E+02  0.47000000000E+01 0.  1.
          5    1    3    3  503    0  0.33344005194E+02 -0.50514417177E+02  0.50167392405E+02  0.78755230213E+02  0.47000000000E+01 0.  1.
         -5    1    3    3    0  503 -0.81270083173E+02 -0.23250367167E+02  0.16130197333E+03  0.18216976311E+03  0.47000000000E+01 0.  1.
<mgrwt>
<rscale>  0 0.14832322E+03</rscale>
<asrwt>0</asrwt>
<pdfrwt beam="1">  1        2 0.87468361E-01 0.15284816E+03</pdfrwt>
<pdfrwt beam="2">  1       -2 0.59301979E-02 0.15284816E+03</pdfrwt>
<totfact> 0.78152081E+03</totfact>
</mgrwt>
</event>
<event>
 8    1  0.3629925E-004  0.1323590E+03  0.7546771E-02  0.1237389E+00
         -2   -1    0    0    0  501 -0.00000000000E+00  0.00000000000E+00  0.33752813219E+02  0.33752813219E+02  0.00000000000E+00 0.  1.
          2   -1    0    0  501    0  0.00000000000E+00 -0.00000000000E+00 -0.45029841398E+03  0.45029841398E+03  0.00000000000E+00 0. -1.
         25    2    1    2    0    0  0.27545139459E+02 -0.33696088273E+02 -0.15460023898E+03  0.20351938746E+03  0.12499898442E+03 0.  0.
         23    2    1    2    0    0 -0.27545139459E+02  0.33696088273E+02 -0.26194536178E+03  0.28053183974E+03  0.90490770122E+02 0.  0.
          5    1    3    3  502    0 -0.20292289799E+02  0.23014586941E+02 -0.11534840579E+03  0.11945205296E+03  0.47000000000E+01 0.  1.
         -5    1    4    4    0  503  0.17204572275E+02  0.38602385466E+02 -0.19591965842E+03  0.20048128099E+03  0.47000000000E+01 0.  1.
          5    1    4    4  503    0 -0.44749711734E+02 -0.49062971931E+01 -0.66025703360E+02  0.80050558753E+02  0.47000000000E+01 0. -1.
         -5    1    3    3    0  502  0.47837429257E+02 -0.56710675214E+02 -0.39251833188E+02  0.84067334499E+02  0.47000000000E+01 0.  1.
<mgrwt>
<rscale>  0 0.12352716E+03</rscale>
<asrwt>0</asrwt>
<pdfrwt beam="1">  1        2 0.69276676E-01 0.13235901E+03</pdfrwt>
<pdfrwt beam="2">  1       -2 0.51927407E-02 0.13235901E+03</pdfrwt>
<totfact> 0.12236078E+04</totfact>
</mgrwt>
</event>
<event>
 8    1  0.3629925E-004  0.1938846E+03  0.7546771E-02  0.1159894E+00
         -1   -1    0    0    0  501 -0.00000000000E+00  0.00000000000E+00  0.38297913966E+02  0.38297913966E+02  0.00000000000E+00 0.  1.
          1   -1    0    0  501    0  0.00000000000E+00 -0.00000000000E+00 -0.89096995441E+03  0.89096995441E+03  0.00000000000E+00 0. -1.
         25    2    1    2    0    0 -0.91322936047E+02 -0.11673114632E+03 -0.50557390911E+03  0.54147595525E+03  0.12500077346E+03 0.  0.
         23    2    1    2    0    0  0.91322936047E+02  0.11673114632E+03 -0.34709813133E+03  0.38779191313E+03  0.89103400310E+02 0.  0.
          5    1    3    3  502    0 -0.41476901158E+02 -0.25884442222E+02 -0.36828059578E+02  0.61390012633E+02  0.47000000000E+01 0. -1.
         -5    1    3    3    0  502 -0.49846034889E+02 -0.90846704093E+02 -0.46874584954E+03  0.48008594261E+03  0.47000000000E+01 0. -1.
          5    1    4    4  503    0  0.63886230196E+02  0.36891400758E+02 -0.24123291347E+03  0.25230504236E+03  0.47000000000E+01 0. -1.
         -5    1    4    4    0  503  0.27436705851E+02  0.79839745558E+02 -0.10586521787E+03  0.13548687077E+03  0.47000000000E+01 0.  1.
<mgrwt>
<rscale>  0 0.18841968E+03</rscale>
<asrwt>0</asrwt>
<pdfrwt beam="1">  1        1 0.13707230E+00 0.19388459E+03</pdfrwt>
<pdfrwt beam="2">  1       -1 0.58919868E-02 0.19388459E+03</pdfrwt>
<totfact> 0.26477890E+03</totfact>
</mgrwt>
</event>
<event>
 8    1  0.3629925E-004  0.1255578E+03  0.7546771E-02  0.1250132E+00
         -1   -1    0    0    0  501 -0.00000000000E+00  0.00000000000E+00  0.69693729750E+02  0.69693729750E+02  0.00000000000E+00 0.  1.
          1   -1    0    0  501    0  0.00000000000E+00 -0.00000000000E+00 -0.16853744178E+03  0.16853744178E+03  0.00000000000E+00 0. -1.
         25    2    1    2    0    0  0.11777006511E+02  0.81556572529E+00 -0.62920491513E+02  0.14044127561E+03  0.12500160245E+03 0.  0.
         23    2    1    2    0    0 -0.11777006511E+02 -0.81556572529E+00 -0.35923220517E+02  0.97789895917E+02  0.90183274177E+02 0.  0.
          5    1    4    4  502    0  0.75749821879E+01 -0.21056377234E+02 -0.57661093316E+02  0.62029372557E+02  0.47000000000E+01 0. -1.
         -5    1    4    4    0  502 -0.19351988699E+02  0.20240811509E+02  0.21737872799E+02  0.35760523360E+02  0.47000000000E+01 0.  1.
          5    1    3    3  503    0 -0.10973676485E+02 -0.38112090713E+02  0.20953081059E+02  0.45100716624E+02  0.47000000000E+01 0.  1.
         -5    1    3    3    0  503  0.22750682996E+02  0.38927656438E+02 -0.83873572572E+02  0.95340558990E+02  0.47000000000E+01 0.  1.
<mgrwt>
<rscale>  0 0.11583416E+03</rscale>
<asrwt>0</asrwt>
<pdfrwt beam="1">  1        1 0.25928837E-01 0.12555781E+03</pdfrwt>
<pdfrwt beam="2">  1       -1 0.10722113E-01 0.12555781E+03</pdfrwt>
<totfact> 0.93513172E+03</totfact>
</mgrwt>
</event>
<event>
 8    1  0.3629925E-004  0.1262356E+03  0.7546771E-02  0.1249419E+00
          1   -1    0    0  501    0  0.00000000000E+00  0.00000000000E+00  0.50008094350E+02  0.50008094350E+02  0.00000000000E+00 0. -1.
         -1   -1    0    0    0  501 -0.00000000000E+00 -0.00000000000E+00 -0.23590241431E+03  0.23590241431E+03  0.00000000000E+00 0.  1.
         25    2    1    2    0    0 -0.85100210170E+01  0.15430248584E+02 -0.10186626101E+03  0.16221020757E+03  0.12499961311E+03 0.  0.
         23    2    1    2    0    0  0.85100210170E+01 -0.15430248584E+02 -0.84028058952E+02  0.12370030109E+03  0.89053561245E+02 0.  0.
          5    1    4    4  502    0 -0.34969078252E+02 -0.28085391841E+01 -0.99697969609E+01  0.36772424146E+02  0.47000000000E+01 0. -1.
         -5    1    4    4    0  502  0.43479099269E+02 -0.12621709400E+02 -0.74058261991E+02  0.86927876948E+02  0.47000000000E+01 0.  1.
          5    1    3    3  503    0 -0.63077215803E+02  0.28198657931E+02 -0.47404333615E+02  0.83923538463E+02  0.47000000000E+01 0.  1.
         -5    1    3    3    0  503  0.54567194786E+02 -0.12768409346E+02 -0.54461927395E+02  0.78286669105E+02  0.47000000000E+01 0.  1.
<mgrwt>
<rscale>  0 0.11624763E+03</rscale>
<asrwt>0</asrwt>
<pdfrwt beam="1">  1        1 0.76935529E-02 0.12623556E+03</pdfrwt>
<pdfrwt beam="2">  1       -1 0.36292679E-01 0.12623556E+03</pdfrwt>
<totfact> 0.63526685E+03</totfact>
</mgrwt>
</event>
<event>
 8    1  0.3629925E-004  0.1504532E+03  0.7546771E-02  0.1209037E+00
          1   -1    0    0  501    0  0.00000000000E+00  0.00000000000E+00  0.10906236485E+04  0.10906236485E+04  0.00000000000E+00 0. -1.
         -1   -1    0    0    0  501 -0.00000000000E+00 -0.00000000000E+00 -0.21200464963E+02  0.21200464963E+02  0.00000000000E+00 0.  1.
         25    2    1    2    0    0  0.37839410740E+02 -0.74689364097E+02  0.81729088072E+03  0.83102378837E+03  0.12500332406E+03 0.  0.
         23    2    1    2    0    0 -0.37839410740E+02  0.74689364097E+02  0.25213230285E+03  0.28080032512E+03  0.90927456427E+02 0.  0.
          5    1    4    4  502    0  0.28879101692E+02  0.19781331645E+02  0.96001638753E+02  0.10229226872E+03  0.47000000000E+01 0. -1.
         -5    1    4    4    0  502 -0.66718512432E+02  0.54908032452E+02  0.15613066410E+03  0.17850805640E+03  0.47000000000E+01 0.  1.
          5    1    3    3  503    0  0.53996823492E+02  0.16332003915E+02  0.36436281548E+03  0.36873397267E+03  0.47000000000E+01 0.  1.
         -5    1    3    3    0  503 -0.16157412752E+02 -0.91021368012E+02  0.45292806524E+03  0.46228981570E+03  0.47000000000E+01 0.  1.
<mgrwt>
<rscale>  0 0.14323849E+03</rscale>
<asrwt>0</asrwt>
<pdfrwt beam="1">  1        1 0.16778821E+00 0.15045316E+03</pdfrwt>
<pdfrwt beam="2">  1       -1 0.32616108E-02 0.15045316E+03</pdfrwt>
<totfact> 0.44893958E+03</totfact>
</mgrwt>
</event>
<event>
 8    1  0.3629925E-004  0.1294220E+03  0.7546771E-02  0.1241874E+00
         -1   -1    0    0    0  501 -0.00000000000E+00  0.00000000000E+00  0.42309908107E+02  0.42309908107E+02  0.00000000000E+00 0.  1.
          1   -1    0    0  501    0  0.00000000000E+00 -0.00000000000E+00 -0.40638998654E+03  0.40638998654E+03  0.00000000000E+00 0. -1.
         25    2    1    2    0    0 -0.33500068956E+02  0.20550796423E+01 -0.31177964294E+03  0.33757458895E+03  0.12499431738E+03 0.  0.
         23    2    1    2    0    0  0.33500068956E+02 -0.20550796423E+01 -0.52300435492E+02  0.11112530570E+03  0.92125023975E+02 0.  0.
          5    1    4    4  502    0  0.29487232409E+02 -0.45178026209E+02 -0.33500539622E+02  0.63678309354E+02  0.47000000000E+01 0. -1.
         -5    1    3    3    0  503 -0.30696453007E+02 -0.21336858746E+02 -0.31127361154E+03  0.31354566655E+03  0.47000000000E+01 0.  1.
          5    1    3    3  503    0 -0.28036159489E+01  0.23391938388E+02 -0.50603140267E+00  0.24028922401E+02  0.47000000000E+01 0.  1.
         -5    1    4    4    0  502  0.40128365469E+01  0.43122946566E+02 -0.18799895870E+02  0.47446996348E+02  0.47000000000E+01 0.  1.
<mgrwt>
<rscale>  0 0.12074420E+03</rscale>
<asrwt>0</asrwt>
<pdfrwt beam="1">  1        1 0.62521538E-01 0.12942201E+03</pdfrwt>
<pdfrwt beam="2">  1       -1 0.65092164E-02 0.12942201E+03</pdfrwt>
<totfact> 0.66812648E+03</totfact>
</mgrwt>
</event>
<event>
 8    1  0.3629925E-004  0.2137541E+03  0.7546771E-02  0.1142297E+00
          1   -1    0    0  501    0  0.00000000000E+00  0.00000000000E+00  0.22557190390E+03  0.22557190390E+03  0.00000000000E+00 0. -1.
         -1   -1    0    0    0  501 -0.00000000000E+00 -0.00000000000E+00 -0.18875587855E+03  0.18875587855E+03  0.00000000000E+00 0.  1.
         25    2    1    2    0    0 -0.17326082340E+03 -0.67438290924E+01 -0.68104921700E+01  0.21386254496E+03  0.12500405265E+03 0.  0.
         23    2    1    2    0    0  0.17326082340E+03  0.67438290924E+01  0.43626517521E+02  0.20046523749E+03  0.90654543502E+02 0.  0.
          5    1    4    4  502    0  0.14053296086E+03  0.29433866198E+02  0.34495817635E+01  0.14370057475E+03  0.47000000000E+01 0. -1.
         -5    1    4    4    0  502  0.32727862532E+02 -0.22690037105E+02  0.40176935757E+02  0.56764662745E+02  0.47000000000E+01 0.  1.
          5    1    3    3  503    0 -0.53202964892E+02 -0.45730217768E+02 -0.43056269925E+02  0.82448412175E+02  0.47000000000E+01 0.  1.
         -5    1    3    3    0  503 -0.12005785850E+03  0.38986388676E+02  0.36245777755E+02  0.13141413279E+03  0.47000000000E+01 0.  1.
<mgrwt>
<rscale>  0 0.20907957E+03</rscale>
<asrwt>0</asrwt>
<pdfrwt beam="1">  1        1 0.34703370E-01 0.21375408E+03</pdfrwt>
<pdfrwt beam="2">  1       -1 0.29039366E-01 0.21375408E+03</pdfrwt>
<totfact> 0.13531469E+03</totfact>
</mgrwt>
</event>
<event>
 8    1  0.3629925E-004  0.1275606E+03  0.7546771E-02  0.1245068E+00
         -1   -1    0    0    0  501 -0.00000000000E+00  0.00000000000E+00  0.17934644368E+02  0.17934644368E+02  0.00000000000E+00 0.  1.
          1   -1    0    0  501    0  0.00000000000E+00 -0.00000000000E+00 -0.10307492137E+04  0.10307492137E+04  0.00000000000E+00 0. -1.
         25    2    1    2    0    0 -0.45990328518E+01  0.25028646451E+02 -0.85118502197E+03  0.86069022343E+03  0.12499653932E+03 0.  0.
         23    2    1    2    0    0  0.45990328518E+01 -0.25028646451E+02 -0.16162954739E+03  0.18799363466E+03  0.92573818319E+02 0.  0.
          5    1    3    3  502    0  0.21665812225E+02 -0.44378066450E+02 -0.44485007164E+03  0.44760752501E+03  0.47000000000E+01 0.  1.
         -5    1    4    4    0  503 -0.40298354177E+02 -0.10498426015E+02 -0.11087783846E+03  0.11853336813E+03  0.47000000000E+01 0.  1.
          5    1    4    4  503    0  0.44897387029E+02 -0.14530220435E+02 -0.50751708930E+02  0.69460266536E+02  0.47000000000E+01 0. -1.
         -5    1    3    3    0  502 -0.26264845077E+02  0.69406712901E+02 -0.40633495033E+03  0.41308269843E+03  0.47000000000E+01 0.  1.
<mgrwt>
<rscale>  0 0.11881305E+03</rscale>
<asrwt>0</asrwt>
<pdfrwt beam="1">  1        1 0.15857686E+00 0.12756065E+03</pdfrwt>
<pdfrwt beam="2">  1       -1 0.27591750E-02 0.12756065E+03</pdfrwt>
<totfact> 0.62809027E+03</totfact>
</mgrwt>
</event>
<event>
 8    1  0.3629925E-004  0.1458143E+03  0.7546771E-02  0.1215706E+00
          1   -1    0    0  501    0  0.00000000000E+00  0.00000000000E+00  0.63113738888E+02  0.63113738888E+02  0.00000000000E+00 0. -1.
         -1   -1    0    0    0  501 -0.00000000000E+00 -0.00000000000E+00 -0.32165836770E+03  0.32165836770E+03  0.00000000000E+00 0.  1.
         25    2    1    2    0    0 -0.35535428566E+02 -0.66145056081E+02 -0.68348766333E+02  0.16103841037E+03  0.12499552243E+03 0.  0.
         23    2    1    2    0    0  0.35535428566E+02  0.66145056081E+02 -0.19019586248E+03  0.22373369622E+03  0.90798488935E+02 0.  0.
          5    1    3    3  502    0 -0.47984205405E+02 -0.71453693813E+01  0.21058771402E+02  0.53095217533E+02  0.47000000000E+01 0. -1.
         -5    1    3    3    0  502  0.12448776839E+02 -0.58999686700E+02 -0.89407537735E+02  0.10794319283E+03  0.47000000000E+01 0. -1.
          5    1    4    4  503    0  0.21860699491E+02 -0.72954844915E+00 -0.83123857608E+00  0.22387572015E+02  0.47000000000E+01 0. -1.
         -5    1    4    4    0  503  0.13674729075E+02  0.66874604530E+02 -0.18936462391E+03  0.20134612421E+03  0.47000000000E+01 0.  1.
<mgrwt>
<rscale>  0 0.13824767E+03</rscale>
<asrwt>0</asrwt>
<pdfrwt beam="1">  1        1 0.97098060E-02 0.14581432E+03</pdfrwt>
<pdfrwt beam="2">  1       -1 0.49485902E-01 0.14581432E+03</pdfrwt>
<totfact> 0.27118967E+03</totfact>
</mgrwt>
</event>
<event>
 8    1  0.3629925E-004  0.1448557E+03  0.7546771E-02  0.1217243E+00
         -1   -1    0    0    0  501 -0.00000000000E+00  0.00000000000E+00  0.28237168597E+02  0.28237168597E+02  0.00000000000E+00 0. -1.
          1   -1    0    0  501    0  0.00000000000E+00 -0.00000000000E+00 -0.60544138810E+03  0.60544138810E+03  0.00000000000E+00 0.  1.
         25    2    1    2    0    0  0.60670340723E+02  0.40972694984E+02 -0.30475583746E+03  0.33743043341E+03  0.12499409966E+03 0.  0.
         23    2    1    2    0    0 -0.60670340723E+02 -0.40972694984E+02 -0.27244838205E+03  0.29624812329E+03  0.90416689244E+02 0.  0.
          5    1    4    4  502    0 -0.46620355538E+02  0.21523688181E+02 -0.13572822658E+03  0.14519286551E+03  0.47000000000E+01 0. -1.
         -5    1    3    3    0  503  0.42318949333E+02 -0.36251751817E+02 -0.18822438104E+03  0.19635577557E+03  0.47000000000E+01 0. -1.
          5    1    3    3  503    0  0.18351391390E+02  0.77224446801E+02 -0.11653145642E+03  0.14107465784E+03  0.47000000000E+01 0. -1.
         -5    1    4    4    0  502 -0.14049985185E+02 -0.62496383166E+02 -0.13672015546E+03  0.15105525778E+03  0.47000000000E+01 0.  1.
<mgrwt>
<rscale>  0 0.13713027E+03</rscale>
<asrwt>0</asrwt>
<pdfrwt beam="1">  1        1 0.93144822E-01 0.14485571E+03</pdfrwt>
<pdfrwt beam="2">  1       -1 0.43441801E-02 0.14485571E+03</pdfrwt>
<totfact> 0.72796211E+03</totfact>
</mgrwt>
</event>
<event>
 8    1  0.3629925E-004  0.1318710E+03  0.7546771E-02  0.1234106E+00
         -2   -1    0    0    0  501 -0.00000000000E+00  0.00000000000E+00  0.18282401843E+03  0.18282401843E+03  0.00000000000E+00 0. -1.
          2   -1    0    0  501    0  0.00000000000E+00 -0.00000000000E+00 -0.90379418749E+02  0.90379418749E+02  0.00000000000E+00 0.  1.
         25    2    1    2    0    0 -0.40401937053E+02  0.11516203550E+02  0.98274808543E+02  0.16446244177E+03  0.12500006919E+03 0.  0.
         23    2    1    2    0    0  0.40401937053E+02 -0.11516203550E+02 -0.58302088601E+01  0.10874099541E+03  0.10012828415E+03 0.  0.
          5    1    3    3  502    0  0.42049789613E+02  0.13689791515E+01  0.58571273663E+02  0.72268547854E+02  0.47000000000E+01 0.  1.
         -5    1    3    3    0  502 -0.82451726666E+02  0.10147224398E+02  0.39703534880E+02  0.92193893915E+02  0.47000000000E+01 0.  1.
          5    1    4    4  503    0  0.23223388511E+02  0.37082439710E+02  0.22831122036E+02  0.49576034958E+02  0.47000000000E+01 0. -1.
         -5    1    4    4    0  503  0.17178548542E+02 -0.48598643260E+02 -0.28661330896E+02  0.59164960453E+02  0.47000000000E+01 0.  1.
<mgrwt>
<rscale>  0 0.12561861E+03</rscale>
<asrwt>0</asrwt>
<pdfrwt beam="1">  1        2 0.13904526E-01 0.13187099E+03</pdfrwt>
<pdfrwt beam="2">  1       -2 0.28126772E-01 0.13187099E+03</pdfrwt>
<totfact> 0.46740216E+03</totfact>
</mgrwt>
</event>
<event>
 8    1  0.3629925E-004  0.2126986E+03  0.7546771E-02  0.1143076E+00
         -2   -1    0    0    0  501 -0.00000000000E+00  0.00000000000E+00  0.15341074870E+03  0.15341074870E+03  0.00000000000E+00 0.  1.
          2   -1    0    0  501    0  0.00000000000E+00 -0.00000000000E+00 -0.27930036838E+03  0.27930036838E+03  0.00000000000E+00 0. -1.
         25    2    1    2    0    0 -0.14152163142E+03  0.97908434294E+02 -0.10342569350E+03  0.23651127071E+03  0.12500509362E+03 0.  0.
         23    2    1    2    0    0  0.14152163142E+03 -0.97908434294E+02 -0.22463926179E+02  0.19619984638E+03  0.91516763894E+02 0.  0.
          5    1    4    4  502    0  0.16244429692E+02 -0.49840749541E+02 -0.32001756236E+02  0.61596949705E+02  0.47000000000E+01 0. -1.
         -5    1    3    3    0  503 -0.11426448185E+03  0.59791850336E+01 -0.72996668271E+02  0.13580399863E+03  0.47000000000E+01 0.  1.
          5    1    3    3  503    0 -0.27257149572E+02  0.91929249261E+02 -0.30429025229E+02  0.10070727208E+03  0.47000000000E+01 0.  1.
         -5    1    4    4    0  502  0.12527720173E+03 -0.48067684753E+02  0.95378300564E+01  0.13460289667E+03  0.47000000000E+01 0.  1.
<mgrwt>
<rscale>  0 0.20810467E+03</rscale>
<asrwt>0</asrwt>
<pdfrwt beam="1">  1        2 0.42969287E-01 0.21269863E+03</pdfrwt>
<pdfrwt beam="2">  1       -2 0.23601654E-01 0.21269863E+03</pdfrwt>
<totfact> 0.18451306E+03</totfact>
</mgrwt>
</event>
<event>
 8    1  0.3629925E-004  0.2244557E+03  0.7546771E-02  0.1133646E+00
         -1   -1    0    0    0  501 -0.00000000000E+00  0.00000000000E+00  0.21961661492E+02  0.21961661492E+02  0.00000000000E+00 0.  1.
          1   -1    0    0  501    0  0.00000000000E+00 -0.00000000000E+00 -0.22906229396E+04  0.22906229396E+04  0.00000000000E+00 0. -1.
         25    2    1    2    0    0 -0.17810445285E+03  0.55078689091E+02 -0.14772956516E+04  0.14942499109E+04  0.12500198456E+03 0.  0.
         23    2    1    2    0    0  0.17810445285E+03 -0.55078689091E+02 -0.79136562655E+03  0.81833469015E+03  0.93044355496E+02 0.  0.
          5    1    3    3  502    0 -0.15076339382E+03  0.72789773822E+02 -0.14033676359E+04  0.14133261349E+04  0.47000000000E+01 0. -1.
         -5    1    4    4    0  503  0.81744255508E+02 -0.53584462534E+02 -0.54563279843E+03  0.55433803645E+03  0.47000000000E+01 0.  1.
          5    1    4    4  503    0  0.96360197343E+02 -0.14942265568E+01 -0.24573282812E+03  0.26399665369E+03  0.47000000000E+01 0. -1.
         -5    1    3    3    0  502 -0.27341059033E+02 -0.17711084731E+02 -0.73928015642E+02  0.80923776037E+02  0.47000000000E+01 0. -1.
<mgrwt>
<rscale>  0 0.22031766E+03</rscale>
<asrwt>0</asrwt>
<pdfrwt beam="1">  1        1 0.35240358E+00 0.22445568E+03</pdfrwt>
<pdfrwt beam="2">  1       -1 0.33787166E-02 0.22445568E+03</pdfrwt>
<totfact> 0.69375688E+02</totfact>
</mgrwt>
</event>
<event>
 8    1  0.3629925E-004  0.1276104E+03  0.7546771E-02  0.1243532E+00
          2   -1    0    0  501    0  0.00000000000E+00  0.00000000000E+00  0.16338246483E+04  0.16338246483E+04  0.00000000000E+00 0. -1.
         -2   -1    0    0    0  501 -0.00000000000E+00 -0.00000000000E+00 -0.78591275718E+01  0.78591275718E+01  0.00000000000E+00 0.  1.
         25    2    1    2    0    0 -0.15506097200E+02  0.20423422430E+02  0.89070166393E+03  0.89979656608E+03  0.12500740364E+03 0.  0.
         23    2    1    2    0    0  0.15506097200E+02 -0.20423422430E+02  0.73526385682E+03  0.74188720981E+03  0.95530820719E+02 0.  0.
          5    1    4    4  502    0 -0.14250644169E+02 -0.51206018499E+02  0.48704002545E+03  0.48995429744E+03  0.47000000000E+01 0. -1.
         -5    1    4    4    0  502  0.29756741369E+02  0.30782596069E+02  0.24822383137E+03  0.25193291237E+03  0.47000000000E+01 0.  1.
          5    1    3    3  503    0 -0.55889362355E+02  0.42532503830E+02  0.70127039517E+03  0.70479421950E+03  0.47000000000E+01 0. -1.
         -5    1    3    3    0  503  0.40383265155E+02 -0.22109081400E+02  0.18943126876E+03  0.19500234657E+03  0.47000000000E+01 0. -1.
<mgrwt>
<rscale>  0 0.11973671E+03</rscale>
<asrwt>0</asrwt>
<pdfrwt beam="1">  1        2 0.25135737E+00 0.12761037E+03</pdfrwt>
<pdfrwt beam="2">  1       -2 0.12090978E-02 0.12761037E+03</pdfrwt>
<totfact> 0.18061088E+04</totfact>
</mgrwt>
</event>
<event>
 8    1  0.3629925E-004  0.1326854E+03  0.7546771E-02  0.1236209E+00
         -1   -1    0    0    0  501 -0.00000000000E+00  0.00000000000E+00  0.43941197131E+02  0.43941197131E+02  0.00000000000E+00 0.  1.
          1   -1    0    0  501    0  0.00000000000E+00 -0.00000000000E+00 -0.38503668857E+03  0.38503668857E+03  0.00000000000E+00 0. -1.
         25    2    1    2    0    0  0.41865330800E+02 -0.15153113691E+02 -0.28036576044E+03  0.31017797753E+03  0.12499238112E+03 0.  0.
         23    2    1    2    0    0 -0.41865330800E+02  0.15153113691E+02 -0.60729731002E+02  0.11879990817E+03  0.91885772441E+02 0.  0.
          5    1    4    4  502    0 -0.30265051055E+02 -0.37091475244E+02 -0.33080353771E+02  0.58379368417E+02  0.47000000000E+01 0. -1.
         -5    1    4    4    0  502 -0.11600279745E+02  0.52244588936E+02 -0.27649377230E+02  0.60420539757E+02  0.47000000000E+01 0.  1.
          5    1    3    3  503    0  0.34697264211E+02 -0.38221217621E+02 -0.28082079774E+03  0.28556465478E+03  0.47000000000E+01 0. -1.
         -5    1    3    3    0  503  0.71680665897E+01  0.23068103930E+02  0.45503729824E+00  0.24613322744E+02  0.47000000000E+01 0. -1.
<mgrwt>
<rscale>  0 0.12427350E+03</rscale>
<asrwt>0</asrwt>
<pdfrwt beam="1">  1        1 0.59236412E-01 0.13268541E+03</pdfrwt>
<pdfrwt beam="2">  1       -1 0.67601843E-02 0.13268541E+03</pdfrwt>
<totfact> 0.67683958E+03</totfact>
</mgrwt>
</event>
<event>
 8    1  0.3629925E-004  0.1258862E+03  0.7546771E-02  0.1250097E+00
          1   -1    0    0  501    0  0.00000000000E+00  0.00000000000E+00  0.90216280545E+02  0.90216280545E+02  0.00000000000E+00 0. -1.
         -1   -1    0    0    0  501 -0.00000000000E+00 -0.00000000000E+00 -0.13276996852E+03  0.13276996852E+03  0.00000000000E+00 0.  1.
         25    2    1    2    0    0  0.13847957727E+02  0.54702215631E+01 -0.74766003008E+01  0.12610807520E+03  0.12500263126E+03 0.  0.
         23    2    1    2    0    0 -0.13847957727E+02 -0.54702215631E+01 -0.35077087670E+02  0.96878173860E+02  0.89069013882E+02 0.  0.
          5    1    4    4  502    0  0.19141039085E+02  0.33526822871E+02 -0.12667847888E+02  0.40902219979E+02  0.47000000000E+01 0. -1.
         -5    1    3    3    0  503  0.62054734557E+02  0.21001152805E+02  0.19524645568E+02  0.68521093720E+02  0.47000000000E+01 0.  1.
          5    1    3    3  503    0 -0.48206776830E+02 -0.15530931242E+02 -0.27001245869E+02  0.57586981481E+02  0.47000000000E+01 0.  1.
         -5    1    4    4    0  502 -0.32988996812E+02 -0.38997044434E+02 -0.22409239782E+02  0.55975953881E+02  0.47000000000E+01 0.  1.
<mgrwt>
<rscale>  0 0.11585414E+03</rscale>
<asrwt>0</asrwt>
<pdfrwt beam="1">  1        1 0.13879428E-01 0.12588625E+03</pdfrwt>
<pdfrwt beam="2">  1       -1 0.20426149E-01 0.12588625E+03</pdfrwt>
<totfact> 0.75625800E+03</totfact>
</mgrwt>
</event>
<event>
 8    1  0.3629925E-004  0.1969362E+03  0.7546771E-02  0.1156858E+00
         -2   -1    0    0    0  501 -0.00000000000E+00  0.00000000000E+00  0.24188421129E+02  0.24188421129E+02  0.00000000000E+00 0.  1.
          2   -1    0    0  501    0  0.00000000000E+00 -0.00000000000E+00 -0.18684053153E+04  0.18684053153E+04  0.00000000000E+00 0. -1.
         25    2    1    2    0    0 -0.61957853779E+02  0.13899456341E+03 -0.51057371516E+03  0.54723796108E+03  0.12500241249E+03 0.  0.
         23    2    1    2    0    0  0.61957853779E+02 -0.13899456341E+03 -0.13336431790E+04  0.13453557754E+04  0.90662941969E+02 0.  0.
          5    1    4    4  502    0  0.74070013276E+02 -0.92784474164E+02 -0.11252503807E+04  0.11315060030E+04  0.47000000000E+01 0. -1.
         -5    1    4    4    0  502 -0.12112159497E+02 -0.46210089248E+02 -0.20839279833E+03  0.21384977239E+03  0.47000000000E+01 0.  1.
          5    1    3    3  503    0  0.17167642170E+02  0.10623486616E+03 -0.23254575402E+03  0.25628147112E+03  0.47000000000E+01 0. -1.
         -5    1    3    3    0  503 -0.79125495949E+02  0.32759697252E+02 -0.27802796114E+03  0.29095648996E+03  0.47000000000E+01 0. -1.
<mgrwt>
<rscale>  0 0.19178842E+03</rscale>
<asrwt>0</asrwt>
<pdfrwt beam="1">  1        2 0.28744709E+00 0.19693620E+03</pdfrwt>
<pdfrwt beam="2">  1       -2 0.37212940E-02 0.19693620E+03</pdfrwt>
<totfact> 0.26743145E+03</totfact>
</mgrwt>
</event>
<event>
 8    1  0.3629925E-004  0.1406285E+03  0.7546771E-02  0.1224872E+00
          4   -1    0    0  501    0  0.00000000000E+00  0.00000000000E+00  0.30704292493E+03  0.30704292493E+03  0.00000000000E+00 0. -1.
         -4   -1    0    0    0  501 -0.00000000000E+00 -0.00000000000E+00 -0.55843392055E+02  0.55843392055E+02  0.00000000000E+00 0.  1.
         25    2    1    2    0    0  0.64304665987E+02 -0.40465584796E+01  0.19612786644E+03  0.24133487754E+03  0.12499967368E+03 0.  0.
         23    2    1    2    0    0 -0.64304665987E+02  0.40465584796E+01  0.55071666443E+02  0.12155143945E+03  0.87122897593E+02 0.  0.
          5    1    3    3  502    0  0.95751592965E+02  0.16356007666E+02  0.10734303442E+03  0.14484648280E+03  0.47000000000E+01 0. -1.
         -5    1    3    3    0  502 -0.31446926978E+02 -0.20402566146E+02  0.88784832019E+02  0.96488394734E+02  0.47000000000E+01 0. -1.
          5    1    4    4  503    0 -0.80776744150E+02  0.18943427267E+02  0.31624062386E+02  0.88915168301E+02  0.47000000000E+01 0. -1.
         -5    1    4    4    0  503  0.16472078163E+02 -0.14896868788E+02  0.23447604057E+02  0.32636271152E+02  0.47000000000E+01 0.  1.
<mgrwt>
<rscale>  0 0.13175655E+03</rscale>
<asrwt>0</asrwt>
<pdfrwt beam="1">  1        4 0.47237372E-01 0.14062853E+03</pdfrwt>
<pdfrwt beam="2">  1       -4 0.85912913E-02 0.14062853E+03</pdfrwt>
<totfact> 0.71191199E+02</totfact>
</mgrwt>
</event>
<event>
 8    1  0.3629925E-004  0.1273304E+03  0.7546771E-02  0.1245944E+00
         -2   -1    0    0    0  501 -0.00000000000E+00  0.00000000000E+00  0.29589653002E+02  0.29589653002E+02  0.00000000000E+00 0. -1.
          2   -1    0    0  501    0  0.00000000000E+00 -0.00000000000E+00 -0.48989016636E+03  0.48989016636E+03  0.00000000000E+00 0.  1.
         25    2    1    2    0    0  0.23949892720E+02  0.37208080300E+01 -0.15955666971E+03  0.20413567206E+03  0.12500239992E+03 0.  0.
         23    2    1    2    0    0 -0.23949892720E+02 -0.37208080300E+01 -0.30074384365E+03  0.31534414729E+03  0.91693129339E+02 0.  0.
          5    1    4    4  502    0  0.21465658957E+02 -0.33225921446E+02 -0.14564382936E+03  0.15099321641E+03  0.47000000000E+01 0. -1.
         -5    1    3    3    0  503 -0.19286096905E+02  0.55310635489E+02 -0.87662882751E+02  0.10553715433E+03  0.47000000000E+01 0.  1.
          5    1    3    3  503    0  0.43235989625E+02 -0.51589827459E+02 -0.71893786958E+02  0.98598517733E+02  0.47000000000E+01 0.  1.
         -5    1    4    4    0  502 -0.45415551677E+02  0.29505113416E+02 -0.15510001429E+03  0.16435093089E+03  0.47000000000E+01 0.  1.
<mgrwt>
<rscale>  0 0.11829047E+03</rscale>
<asrwt>0</asrwt>
<pdfrwt beam="1">  1        2 0.75367717E-01 0.12733044E+03</pdfrwt>
<pdfrwt beam="2">  1       -2 0.45522543E-02 0.12733044E+03</pdfrwt>
<totfact> 0.13558049E+04</totfact>
</mgrwt>
</event>
<event>
 8    1  0.3629925E-004  0.1841901E+03  0.7546771E-02  0.1168736E+00
         -2   -1    0    0    0  501 -0.00000000000E+00  0.00000000000E+00  0.11368866301E+03  0.11368866301E+03  0.00000000000E+00 0. -1.
          2   -1    0    0  501    0  0.00000000000E+00 -0.00000000000E+00 -0.29107512746E+03  0.29107512746E+03  0.00000000000E+00 0.  1.
         25    2    1    2    0    0  0.13507775194E+03  0.75020134663E+01 -0.35508193879E+02  0.18758152442E+03  0.12499486868E+03 0.  0.
         23    2    1    2    0    0 -0.13507775194E+03 -0.75020134663E+01 -0.14187827057E+03  0.21718226605E+03  0.93468784915E+02 0.  0.
          5    1    3    3  502    0 -0.47789578710E+01  0.35592985751E+02  0.10349231067E+02  0.37668231399E+02  0.47000000000E+01 0.  1.
         -5    1    4    4    0  503 -0.19822034642E+02 -0.31481771144E+02 -0.69325752999E+02  0.78817288716E+02  0.47000000000E+01 0.  1.
          5    1    4    4  503    0 -0.11525571730E+03  0.23979757678E+02 -0.72552517572E+02  0.13836497734E+03  0.47000000000E+01 0. -1.
         -5    1    3    3    0  502  0.13985670981E+03 -0.28090972285E+02 -0.45857424946E+02  0.14991329302E+03  0.47000000000E+01 0.  1.
<mgrwt>
<rscale>  0 0.17903912E+03</rscale>
<asrwt>0</asrwt>
<pdfrwt beam="1">  1        2 0.44780788E-01 0.18419011E+03</pdfrwt>
<pdfrwt beam="2">  1       -2 0.17490564E-01 0.18419011E+03</pdfrwt>
<totfact> 0.29329135E+03</totfact>
</mgrwt>
</event>
<event>
 8    1  0.3629925E-004  0.1433251E+03  0.7546771E-02  0.1219011E+00
          3   -1    0    0  501    0  0.00000000000E+00  0.00000000000E+00  0.39545510835E+03  0.39545510835E+03  0.00000000000E+00 0. -1.
         -3   -1    0    0    0  501 -0.00000000000E+00 -0.00000000000E+00 -0.49818369145E+02  0.49818369145E+02  0.00000000000E+00 0.  1.
         25    2    1    2    0    0 -0.86123206165E+01 -0.69592606701E+02  0.27387362056E+03  0.30910975753E+03  0.12499911673E+03 0.  0.
         23    2    1    2    0    0  0.86123206165E+01  0.69592606701E+02  0.71763118644E+02  0.13616371997E+03  0.92050586447E+02 0.  0.
          5    1    3    3  502    0  0.42868401628E+02 -0.76722995368E+02  0.13932567776E+03  0.16479639668E+03  0.47000000000E+01 0.  1.
         -5    1    3    3    0  502 -0.51480722244E+02  0.71303886666E+01  0.13454794280E+03  0.14431336084E+03  0.47000000000E+01 0.  1.
          5    1    4    4  503    0 -0.33548139581E+02  0.14265854655E+02  0.52034652750E+02  0.63707828131E+02  0.47000000000E+01 0. -1.
         -5    1    4    4    0  503  0.42160460197E+02  0.55326752045E+02  0.19728465894E+02  0.72455891841E+02  0.47000000000E+01 0.  1.
<mgrwt>
<rscale>  0 0.13586004E+03</rscale>
<asrwt>0</asrwt>
<pdfrwt beam="1">  1        3 0.60839245E-01 0.14332509E+03</pdfrwt>
<pdfrwt beam="2">  1       -3 0.76643648E-02 0.14332509E+03</pdfrwt>
<totfact> 0.71408559E+02</totfact>
</mgrwt>
</event>
<event>
 8    1  0.3629925E-004  0.1357333E+03  0.7546771E-02  0.1230520E+00
         -1   -1    0    0    0  501 -0.00000000000E+00  0.00000000000E+00  0.17687465364E+03  0.17687465364E+03  0.00000000000E+00 0.  1.
          1   -1    0    0  501    0  0.00000000000E+00 -0.00000000000E+00 -0.85251856877E+02  0.85251856877E+02  0.00000000000E+00 0. -1.
         25    2    1    2    0    0  0.58920405800E+01  0.52593037277E+02  0.70187131170E+02  0.15280626505E+03  0.12499110986E+03 0.  0.
         23    2    1    2    0    0 -0.58920405800E+01 -0.52593037277E+02  0.21435665590E+02  0.10932024546E+03  0.93223841351E+02 0.  0.
          5    1    4    4  502    0 -0.45671282054E+02 -0.11184178977E+02  0.20987968509E+02  0.51706253838E+02  0.47000000000E+01 0. -1.
         -5    1    4    4    0  502  0.39779241474E+02 -0.41408858301E+02  0.44769708077E+00  0.57613991623E+02  0.47000000000E+01 0.  1.
          5    1    3    3  503    0  0.62068839679E+02  0.96644720636E+01  0.45750727672E+02  0.77853464675E+02  0.47000000000E+01 0.  1.
         -5    1    3    3    0  503 -0.56176799099E+02  0.42928565214E+02  0.24436403497E+02  0.74952800376E+02  0.47000000000E+01 0.  1.
<mgrwt>
<rscale>  0 0.12795625E+03</rscale>
<asrwt>0</asrwt>
<pdfrwt beam="1">  1        1 0.13115670E-01 0.13573327E+03</pdfrwt>
<pdfrwt beam="2">  1       -1 0.27211485E-01 0.13573327E+03</pdfrwt>
<totfact> 0.51263645E+03</totfact>
</mgrwt>
</event>
<event>
 8    1  0.3629925E-004  0.1830761E+03  0.7546771E-02  0.1170075E+00
         -1   -1    0    0    0  501 -0.00000000000E+00  0.00000000000E+00  0.16993999651E+02  0.16993999651E+02  0.00000000000E+00 0.  1.
          1   -1    0    0  501    0  0.00000000000E+00 -0.00000000000E+00 -0.18363217221E+04  0.18363217221E+04  0.00000000000E+00 0. -1.
         25    2    1    2    0    0 -0.13215654505E+03  0.20686054379E+02 -0.11554369915E+04  0.11698510663E+04  0.12499444302E+03 0.  0.
         23    2    1    2    0    0  0.13215654505E+03 -0.20686054379E+02 -0.66389073088E+03  0.68346465537E+03  0.92085652208E+02 0.  0.
          5    1    4    4  502    0  0.26833628570E+02 -0.35977911199E+02 -0.32786789352E+03  0.33095905989E+03  0.47000000000E+01 0. -1.
         -5    1    4    4    0  502  0.10532291648E+03  0.15291856820E+02 -0.33602283736E+03  0.35250559548E+03  0.47000000000E+01 0.  1.
          5    1    3    3  503    0 -0.12893297186E+02  0.56750811427E+02 -0.37217636420E+03  0.37672832091E+03  0.47000000000E+01 0. -1.
         -5    1    3    3    0  503 -0.11926324787E+03 -0.36064757049E+02 -0.78326062733E+03  0.79312274543E+03  0.47000000000E+01 0. -1.
<mgrwt>
<rscale>  0 0.17767194E+03</rscale>
<asrwt>0</asrwt>
<pdfrwt beam="1">  1        1 0.28251087E+00 0.18307615E+03</pdfrwt>
<pdfrwt beam="2">  1       -1 0.26144630E-02 0.18307615E+03</pdfrwt>
<totfact> 0.19953156E+03</totfact>
</mgrwt>
</event>
<event>
 8    1  0.3629925E-004  0.1309508E+03  0.7546771E-02  0.1238246E+00
          2   -1    0    0  501    0  0.00000000000E+00  0.00000000000E+00  0.26317843615E+03  0.26317843615E+03  0.00000000000E+00 0. -1.
         -2   -1    0    0    0  501 -0.00000000000E+00 -0.00000000000E+00 -0.55266378808E+02  0.55266378808E+02  0.00000000000E+00 0.  1.
         25    2    1    2    0    0  0.38167563129E+02  0.82184262412E+01  0.74788265165E+02  0.15080252931E+03  0.12499525125E+03 0.  0.
         23    2    1    2    0    0 -0.38167563129E+02 -0.82184262412E+01  0.13312379218E+03  0.16764228564E+03  0.94115282965E+02 0.  0.
          5    1    3    3  502    0  0.65922663986E+02 -0.33754549118E+02  0.21283192554E+02  0.77202535570E+02  0.47000000000E+01 0.  1.
         -5    1    3    3    0  502 -0.27755100856E+02  0.41972975359E+02  0.53505072611E+02  0.73599993744E+02  0.47000000000E+01 0.  1.
          5    1    4    4  503    0 -0.56775619470E+02 -0.35123485396E+02  0.10353571995E+03  0.12328367896E+03  0.47000000000E+01 0. -1.
         -5    1    4    4    0  503  0.18608056341E+02  0.26905059154E+02  0.29588072227E+02  0.44358606685E+02  0.47000000000E+01 0.  1.
<mgrwt>
<rscale>  0 0.12298900E+03</rscale>
<asrwt>0</asrwt>
<pdfrwt beam="1">  1        2 0.40488990E-01 0.13095082E+03</pdfrwt>
<pdfrwt beam="2">  1       -2 0.85025199E-02 0.13095082E+03</pdfrwt>
<totfact> 0.10203798E+04</totfact>
</mgrwt>
</event>
<event>
 8    1  0.3629925E-004  0.1303003E+03  0.7546771E-02  0.1239235E+00
         -2   -1    0    0    0  501 -0.00000000000E+00  0.00000000000E+00  0.96642732515E+02  0.96642732515E+02  0.00000000000E+00 0.  1.
          2   -1    0    0  501    0  0.00000000000E+00 -0.00000000000E+00 -0.14691680196E+03  0.14691680196E+03  0.00000000000E+00 0. -1.
         25    2    1    2    0    0 -0.61740105419E+01 -0.36228429868E+02 -0.56458262376E+02  0.14200599413E+03  0.12501019734E+03 0.  0.
         23    2    1    2    0    0  0.61740105419E+01  0.36228429868E+02  0.61841929290E+01  0.10155354035E+03  0.94468300391E+02 0.  0.
          5    1    3    3  502    0  0.47882009723E+02 -0.51510175816E+02 -0.15082756268E+02  0.72080265014E+02  0.47000000000E+01 0. -1.
         -5    1    3    3    0  502 -0.54056020265E+02  0.15281745948E+02 -0.41375506108E+02  0.69925729112E+02  0.47000000000E+01 0. -1.
          5    1    4    4  503    0 -0.39546343686E+02  0.38295877288E+02  0.10492468004E+01  0.55260098037E+02  0.47000000000E+01 0. -1.
         -5    1    4    4    0  503  0.45720354228E+02 -0.20674474199E+01  0.51349461286E+01  0.46293442314E+02  0.47000000000E+01 0.  1.
<mgrwt>
<rscale>  0 0.12237174E+03</rscale>
<asrwt>0</asrwt>
<pdfrwt beam="1">  1        2 0.22602585E-01 0.13030030E+03</pdfrwt>
<pdfrwt beam="2">  1       -2 0.14868113E-01 0.13030030E+03</pdfrwt>
<totfact> 0.79009123E+03</totfact>
</mgrwt>
</event>
<event>
 8    1  0.3629925E-004  0.1346934E+03  0.7546771E-02  0.1232377E+00
         -1   -1    0    0    0  501 -0.00000000000E+00  0.00000000000E+00  0.55371032071E+02  0.55371032071E+02  0.00000000000E+00 0.  1.
          1   -1    0    0  501    0  0.00000000000E+00 -0.00000000000E+00 -0.26536480835E+03  0.26536480835E+03  0.00000000000E+00 0. -1.
         25    2    1    2    0    0 -0.10331439501E+02 -0.49092920231E+02 -0.96297731641E+02  0.16557647377E+03  0.12500184833E+03 0.  0.
         23    2    1    2    0    0  0.10331439501E+02  0.49092920231E+02 -0.11369604464E+03  0.15515936666E+03  0.92902018469E+02 0.  0.
          5    1    4    4  502    0  0.16389866971E+02 -0.23430301759E+02 -0.52463138380E+02  0.59933944210E+02  0.47000000000E+01 0. -1.
         -5    1    3    3    0  503 -0.63615860235E+02 -0.12094186709E+02 -0.69850677293E+02  0.95364847527E+02  0.47000000000E+01 0.  1.
          5    1    3    3  503    0  0.53284420735E+02 -0.36998733522E+02 -0.26447054348E+02  0.70211626238E+02  0.47000000000E+01 0.  1.
         -5    1    4    4    0  502 -0.60584274697E+01  0.72523221990E+02 -0.61232906259E+02  0.95225422447E+02  0.47000000000E+01 0.  1.
<mgrwt>
<rscale>  0 0.12673823E+03</rscale>
<asrwt>0</asrwt>
<pdfrwt beam="1">  1        1 0.40825355E-01 0.13469341E+03</pdfrwt>
<pdfrwt beam="2">  1       -1 0.85186203E-02 0.13469341E+03</pdfrwt>
<totfact> 0.75967505E+03</totfact>
</mgrwt>
</event>
<event>
 8    1  0.3629925E-004  0.1357433E+03  0.7546771E-02  0.1231574E+00
         -2   -1    0    0    0  501 -0.00000000000E+00  0.00000000000E+00  0.27473407247E+02  0.27473407247E+02  0.00000000000E+00 0.  1.
          2   -1    0    0  501    0  0.00000000000E+00 -0.00000000000E+00 -0.76666173256E+03  0.76666173256E+03  0.00000000000E+00 0. -1.
         25    2    1    2    0    0 -0.47897476183E+02 -0.22545128742E+02 -0.62300317693E+03  0.63761995376E+03  0.12499518355E+03 0.  0.
         23    2    1    2    0    0  0.47897476183E+02  0.22545128742E+02 -0.11618514839E+03  0.15651518605E+03  0.90529352723E+02 0.  0.
          5    1    3    3  502    0  0.34705598022E+02  0.13882161326E+02 -0.99992576819E+02  0.10685409845E+03  0.47000000000E+01 0. -1.
         -5    1    4    4    0  503  0.57258069976E+02  0.40272269128E+02 -0.47291454925E+02  0.84610365482E+02  0.47000000000E+01 0.  1.
          5    1    4    4  503    0 -0.93605937926E+01 -0.17727140386E+02 -0.68893693460E+02  0.71904820568E+02  0.47000000000E+01 0. -1.
         -5    1    3    3    0  502 -0.82603074206E+02 -0.36427290067E+02 -0.52301060011E+03  0.53076585531E+03  0.47000000000E+01 0. -1.
<mgrwt>
<rscale>  0 0.12726328E+03</rscale>
<asrwt>0</asrwt>
<pdfrwt beam="1">  1        2 0.11794796E+00 0.13574331E+03</pdfrwt>
<pdfrwt beam="2">  1       -2 0.42266780E-02 0.13574331E+03</pdfrwt>
<totfact> 0.90986902E+03</totfact>
</mgrwt>
</event>
<event>
 8    1  0.3629925E-004  0.1497003E+03  0.7546771E-02  0.1209736E+00
          3   -1    0    0  501    0  0.00000000000E+00  0.00000000000E+00  0.36447090303E+02  0.36447090303E+02  0.00000000000E+00 0. -1.
         -3   -1    0    0    0  501 -0.00000000000E+00 -0.00000000000E+00 -0.52445254655E+03  0.52445254655E+03  0.00000000000E+00 0.  1.
         25    2    1    2    0    0 -0.54204313900E+02 -0.62020883696E+02 -0.22443226924E+03  0.26977771912E+03  0.12500190637E+03 0.  0.
         23    2    1    2    0    0  0.54204313900E+02  0.62020883696E+02 -0.26357318700E+03  0.29112191773E+03  0.92176181407E+02 0.  0.
          5    1    3    3  502    0 -0.14706754191E+02 -0.48975137604E+02 -0.22198307701E+03  0.22784518692E+03  0.47000000000E+01 0.  1.
         -5    1    4    4    0  503  0.12358561337E+02  0.35021055556E+02 -0.22463209785E+03  0.22772983502E+03  0.47000000000E+01 0.  1.
          5    1    4    4  503    0  0.41845752563E+02  0.26999828140E+02 -0.38941089148E+02  0.63392082717E+02  0.47000000000E+01 0. -1.
         -5    1    3    3    0  502 -0.39497559708E+02 -0.13045746092E+02 -0.24491922308E+01  0.41932532199E+02  0.47000000000E+01 0.  1.
<mgrwt>
<rscale>  0 0.14270410E+03</rscale>
<asrwt>0</asrwt>
<pdfrwt beam="1">  1        3 0.56072453E-02 0.14970028E+03</pdfrwt>
<pdfrwt beam="2">  1       -3 0.80684999E-01 0.14970028E+03</pdfrwt>
<totfact> 0.65223285E+02</totfact>
</mgrwt>
</event>
<event>
 8    1  0.3629925E-004  0.1426249E+03  0.7546771E-02  0.1218881E+00
          1   -1    0    0  501    0  0.00000000000E+00  0.00000000000E+00  0.33117294752E+02  0.33117294752E+02  0.00000000000E+00 0. -1.
         -1   -1    0    0    0  501 -0.00000000000E+00 -0.00000000000E+00 -0.52232177742E+03  0.52232177742E+03  0.00000000000E+00 0.  1.
         25    2    1    2    0    0  0.68484955864E+02  0.48627762279E+01 -0.22823138029E+03  0.26913087964E+03  0.12501212603E+03 0.  0.
         23    2    1    2    0    0 -0.68484955864E+02 -0.48627762279E+01 -0.26097310238E+03  0.28630819253E+03  0.95663917821E+02 0.  0.
          5    1    3    3  502    0  0.55083978129E+02  0.42752252302E+02 -0.21574939532E+03  0.22678600333E+03  0.47000000000E+01 0.  1.
         -5    1    3    3    0  502  0.13400977735E+02 -0.37889476074E+02 -0.12481984969E+02  0.42344876316E+02  0.47000000000E+01 0.  1.
          5    1    4    4  503    0 -0.30559053258E+02  0.40564097600E+02 -0.72033961698E+02  0.88262582038E+02  0.47000000000E+01 0. -1.
         -5    1    4    4    0  503 -0.37925902607E+02 -0.45426873828E+02 -0.18893914068E+03  0.19804561049E+03  0.47000000000E+01 0.  1.
<mgrwt>
<rscale>  0 0.13595281E+03</rscale>
<asrwt>0</asrwt>
<pdfrwt beam="1">  1        1 0.50949687E-02 0.14262492E+03</pdfrwt>
<pdfrwt beam="2">  1       -1 0.80357193E-01 0.14262492E+03</pdfrwt>
<totfact> 0.25403426E+03</totfact>
</mgrwt>
</event>
<event>
 8    1  0.3629925E-004  0.1663193E+03  0.7546771E-02  0.1189180E+00
         -2   -1    0    0    0  501 -0.00000000000E+00  0.00000000000E+00  0.91557459582E+03  0.91557459582E+03  0.00000000000E+00 0.  1.
          2   -1    0    0  501    0  0.00000000000E+00 -0.00000000000E+00 -0.25776939620E+02  0.25776939620E+02  0.00000000000E+00 0. -1.
         25    2    1    2    0    0 -0.61260218030E+02  0.91025848575E+02  0.48113656164E+03  0.50907220446E+03  0.12499439581E+03 0.  0.
         23    2    1    2    0    0  0.61260218030E+02 -0.91025848575E+02  0.40866109456E+03  0.43227933098E+03  0.88447783264E+02 0.  0.
          5    1    4    4  502    0 -0.47866899020E+01 -0.71608172671E+02  0.21069105860E+03  0.22262851338E+03  0.47000000000E+01 0. -1.
         -5    1    4    4    0  502  0.66046907932E+02 -0.19417675904E+02  0.19797003596E+03  0.20965081761E+03  0.47000000000E+01 0.  1.
          5    1    3    3  503    0  0.28930966889E+02  0.42783806635E+01  0.18783373634E+03  0.19015495758E+03  0.47000000000E+01 0.  1.
         -5    1    3    3    0  503 -0.90191184919E+02  0.86747467911E+02  0.29330282531E+03  0.31891724688E+03  0.47000000000E+01 0.  1.
<mgrwt>
<rscale>  0 0.15957271E+03</rscale>
<asrwt>0</asrwt>
<pdfrwt beam="1">  1        2 0.39656837E-02 0.16631933E+03</pdfrwt>
<pdfrwt beam="2">  1       -2 0.14085760E+00 0.16631933E+03</pdfrwt>
<totfact> 0.78438013E+02</totfact>
</mgrwt>
</event>
<event>
 8    1  0.3629925E-004  0.1460343E+03  0.7546771E-02  0.1215457E+00
          2   -1    0    0  501    0  0.00000000000E+00  0.00000000000E+00  0.60729376156E+03  0.60729376156E+03  0.00000000000E+00 0. -1.
         -2   -1    0    0    0  501 -0.00000000000E+00 -0.00000000000E+00 -0.30643970048E+02  0.30643970048E+02  0.00000000000E+00 0.  1.
         25    2    1    2    0    0  0.17776966467E+02  0.73382924092E+02  0.39740247452E+03  0.42338485012E+03  0.12499972190E+03 0.  0.
         23    2    1    2    0    0 -0.17776966467E+02 -0.73382924092E+02  0.17924731700E+03  0.21455288149E+03  0.90566352581E+02 0.  0.
          5    1    4    4  502    0  0.15585913831E+02 -0.31551574174E+02  0.14845211248E+03  0.15263860011E+03  0.47000000000E+01 0. -1.
         -5    1    4    4    0  502 -0.33362880298E+02 -0.41831349918E+02  0.30795204515E+02  0.61914281381E+02  0.47000000000E+01 0.  1.
          5    1    3    3  503    0 -0.26269137324E+02  0.12410292361E+02  0.29380056271E+03  0.29527096637E+03  0.47000000000E+01 0.  1.
         -5    1    3    3    0  503  0.44046103791E+02  0.60972631731E+02  0.10360191180E+03  0.12811388375E+03  0.47000000000E+01 0.  1.
<mgrwt>
<rscale>  0 0.13843023E+03</rscale>
<asrwt>0</asrwt>
<pdfrwt beam="1">  1        2 0.93429801E-01 0.14603426E+03</pdfrwt>
<pdfrwt beam="2">  1       -2 0.47144574E-02 0.14603426E+03</pdfrwt>
<totfact> 0.10222878E+04</totfact>
</mgrwt>
</event>
<event>
 8    1  0.3629925E-004  0.1762854E+03  0.7546771E-02  0.1177292E+00
          2   -1    0    0  501    0  0.00000000000E+00  0.00000000000E+00  0.31593024908E+03  0.31593024908E+03  0.00000000000E+00 0. -1.
         -2   -1    0    0    0  501 -0.00000000000E+00 -0.00000000000E+00 -0.88022398713E+02  0.88022398713E+02  0.00000000000E+00 0.  1.
         25    2    1    2    0    0 -0.11210053037E+03  0.53723113116E+02  0.95070094391E+02  0.20028693336E+03  0.12499532405E+03 0.  0.
         23    2    1    2    0    0  0.11210053037E+03 -0.53723113116E+02  0.13283775597E+03  0.20366571443E+03  0.91548632049E+02 0.  0.
          5    1    4    4  502    0  0.18252943994E+02  0.15919919326E+02 -0.24923239528E+01  0.24797489277E+02  0.47000000000E+01 0. -1.
         -5    1    4    4    0  502  0.93847586377E+02 -0.69643032441E+02  0.13533007993E+03  0.17886822515E+03  0.47000000000E+01 0.  1.
          5    1    3    3  503    0 -0.76823230410E+01  0.27991923283E+02 -0.25310219384E+02  0.38797719799E+02  0.47000000000E+01 0.  1.
         -5    1    3    3    0  503 -0.10441820733E+03  0.25731189833E+02  0.12038031378E+03  0.16148921356E+03  0.47000000000E+01 0.  1.
<mgrwt>
<rscale>  0 0.17053420E+03</rscale>
<asrwt>0</asrwt>
<pdfrwt beam="1">  1        2 0.48604653E-01 0.17628537E+03</pdfrwt>
<pdfrwt beam="2">  1       -2 0.13541908E-01 0.17628537E+03</pdfrwt>
<totfact> 0.40900822E+03</totfact>
</mgrwt>
</event>
<event>
 8    1  0.3629925E-004  0.2031661E+03  0.7546771E-02  0.1151214E+00
         -2   -1    0    0    0  501 -0.00000000000E+00  0.00000000000E+00  0.14216305435E+03  0.14216305435E+03  0.00000000000E+00 0. -1.
          2   -1    0    0  501    0  0.00000000000E+00 -0.00000000000E+00 -0.29561301169E+03  0.29561301169E+03  0.00000000000E+00 0.  1.
         25    2    1    2    0    0 -0.11216521674E+03  0.11432313373E+03 -0.84957421712E+01  0.20334360975E+03  0.12500252493E+03 0.  0.
         23    2    1    2    0    0  0.11216521674E+03 -0.11432313373E+03 -0.14495421517E+03  0.23443245630E+03  0.91082585155E+02 0.  0.
          5    1    3    3  502    0  0.25157269606E+02  0.38451488390E+02 -0.30504584478E+01  0.46290392849E+02  0.47000000000E+01 0.  1.
         -5    1    3    3    0  502 -0.13732248635E+03  0.75871645341E+02 -0.54452837234E+01  0.15705321690E+03  0.47000000000E+01 0.  1.
          5    1    4    4  503    0  0.38800746944E+02 -0.29821869040E+02 -0.10425157271E+03  0.11526197226E+03  0.47000000000E+01 0. -1.
         -5    1    4    4    0  503  0.73364469799E+02 -0.84501264691E+02 -0.40702642456E+02  0.11917048404E+03  0.47000000000E+01 0.  1.
<mgrwt>
<rscale>  0 0.19826146E+03</rscale>
<asrwt>0</asrwt>
<pdfrwt beam="1">  1        2 0.45478925E-01 0.20316606E+03</pdfrwt>
<pdfrwt beam="2">  1       -2 0.21871239E-01 0.20316606E+03</pdfrwt>
<totfact> 0.19790976E+03</totfact>
</mgrwt>
</event>
<event>
 8    1  0.3629925E-004  0.1346153E+03  0.7546771E-02  0.1232629E+00
          2   -1    0    0  501    0  0.00000000000E+00  0.00000000000E+00  0.40846718775E+03  0.40846718775E+03  0.00000000000E+00 0. -1.
         -2   -1    0    0    0  501 -0.00000000000E+00 -0.00000000000E+00 -0.50134113145E+02  0.50134113145E+02  0.00000000000E+00 0.  1.
         25    2    1    2    0    0  0.32711730892E+02 -0.37792463118E+02  0.31905241812E+03  0.34628850946E+03  0.12499183440E+03 0.  0.
         23    2    1    2    0    0 -0.32711730892E+02  0.37792463118E+02  0.39280656477E+02  0.11231279143E+03  0.92589770164E+02 0.  0.
          5    1    3    3  502    0  0.67750920456E+02 -0.30699881386E+02  0.10237250534E+03  0.12662894531E+03  0.47000000000E+01 0. -1.
         -5    1    3    3    0  502 -0.35039189564E+02 -0.70925817324E+01  0.21667991278E+03  0.21965956415E+03  0.47000000000E+01 0. -1.
          5    1    4    4  503    0 -0.59574506459E+02  0.17657220113E+02  0.26014528652E+01  0.62367914820E+02  0.47000000000E+01 0. -1.
         -5    1    4    4    0  503  0.26862775567E+02  0.20135243006E+02  0.36679203612E+02  0.49944876611E+02  0.47000000000E+01 0.  1.
<mgrwt>
<rscale>  0 0.12657420E+03</rscale>
<asrwt>0</asrwt>
<pdfrwt beam="1">  1        2 0.62841104E-01 0.13461533E+03</pdfrwt>
<pdfrwt beam="2">  1       -2 0.77129407E-02 0.13461533E+03</pdfrwt>
<totfact> 0.74536809E+03</totfact>
</mgrwt>
</event>
<event>
 8    1  0.3629925E-004  0.1678243E+03  0.7546771E-02  0.1185978E+00
         -2   -1    0    0    0  501 -0.00000000000E+00  0.00000000000E+00  0.32141505178E+02  0.32141505178E+02  0.00000000000E+00 0.  1.
          2   -1    0    0  501    0  0.00000000000E+00 -0.00000000000E+00 -0.12462167572E+04  0.12462167572E+04  0.00000000000E+00 0. -1.
         25    2    1    2    0    0  0.88060305254E+02  0.69179883204E+02 -0.23791145891E+03  0.29114750114E+03  0.12499812613E+03 0.  0.
         23    2    1    2    0    0 -0.88060305254E+02 -0.69179883204E+02 -0.97616379309E+03  0.98721076122E+03  0.95649686513E+02 0.  0.
          5    1    3    3  502    0  0.86050898497E+01  0.19380616749E+02 -0.17898589661E+03  0.18029891032E+03  0.47000000000E+01 0. -1.
         -5    1    3    3    0  502  0.79455215404E+02  0.49799266455E+02 -0.58925562308E+02  0.11084859082E+03  0.47000000000E+01 0. -1.
          5    1    4    4  503    0 -0.31620022584E+02  0.19909994313E+02 -0.37114983053E+03  0.37305565322E+03  0.47000000000E+01 0. -1.
         -5    1    4    4    0  503 -0.56440282670E+02 -0.89089877517E+02 -0.60501396256E+03  0.61415510799E+03  0.47000000000E+01 0.  1.
<mgrwt>
<rscale>  0 0.16243214E+03</rscale>
<asrwt>0</asrwt>
<pdfrwt beam="1">  1        2 0.19172560E+00 0.16782433E+03</pdfrwt>
<pdfrwt beam="2">  1       -2 0.49448484E-02 0.16782433E+03</pdfrwt>
<totfact> 0.37127961E+03</totfact>
</mgrwt>
</event>
<event>
 8    1  0.3629925E-004  0.1396559E+03  0.7546771E-02  0.1224039E+00
          2   -1    0    0  501    0  0.00000000000E+00  0.00000000000E+00  0.20282388071E+03  0.20282388071E+03  0.00000000000E+00 0. -1.
         -2   -1    0    0    0  501 -0.00000000000E+00 -0.00000000000E+00 -0.79108327650E+02  0.79108327650E+02  0.00000000000E+00 0.  1.
         25    2    1    2    0    0  0.16156834636E+02  0.60143966598E+02  0.81517153744E+02  0.16170599368E+03  0.12500176804E+03 0.  0.
         23    2    1    2    0    0 -0.16156834636E+02 -0.60143966598E+02  0.42198399321E+02  0.12022621469E+03  0.93783248875E+02 0.  0.
          5    1    3    3  502    0 -0.31221229282E+02  0.79347818912E+02  0.66440819990E+02  0.10820034235E+03  0.47000000000E+01 0.  1.
         -5    1    3    3    0  502  0.47378063918E+02 -0.19203852314E+02  0.15076333754E+02  0.53505651325E+02  0.47000000000E+01 0.  1.
          5    1    4    4  503    0 -0.27897173579E+01 -0.30832081414E+02  0.70465979150E+02  0.77109947379E+02  0.47000000000E+01 0. -1.
         -5    1    4    4    0  503 -0.13367117278E+02 -0.29311885183E+02 -0.28267579829E+02  0.43116267310E+02  0.47000000000E+01 0.  1.
<mgrwt>
<rscale>  0 0.13232967E+03</rscale>
<asrwt>0</asrwt>
<pdfrwt beam="1">  1        2 0.31203674E-01 0.13965594E+03</pdfrwt>
<pdfrwt beam="2">  1       -2 0.12170512E-01 0.13965594E+03</pdfrwt>
<totfact> 0.77046336E+03</totfact>
</mgrwt>
</event>
<event>
 8    1  0.3629925E-004  0.1634764E+03  0.7546771E-02  0.1192197E+00
          1   -1    0    0  501    0  0.00000000000E+00  0.00000000000E+00  0.19628881027E+03  0.19628881027E+03  0.00000000000E+00 0. -1.
         -1   -1    0    0    0  501 -0.00000000000E+00 -0.00000000000E+00 -0.14264650013E+03  0.14264650013E+03  0.00000000000E+00 0.  1.
         25    2    1    2    0    0 -0.95097173833E+02  0.45342300437E+02 -0.43873520669E+02  0.16926139362E+03  0.12500054750E+03 0.  0.
         23    2    1    2    0    0  0.95097173833E+02 -0.45342300437E+02  0.97515830802E+02  0.16967391678E+03  0.90446139216E+02 0.  0.
          5    1    3    3  502    0 -0.74135543450E+02  0.85934536226E+02 -0.13944010180E+02  0.11444364875E+03  0.47000000000E+01 0.  1.
         -5    1    3    3    0  502 -0.20961630383E+02 -0.40592235789E+02 -0.29929510488E+02  0.54817744871E+02  0.47000000000E+01 0.  1.
          5    1    4    4  503    0  0.60880756941E+02 -0.45870485347E+02  0.10915875819E+03  0.13322271759E+03  0.47000000000E+01 0. -1.
         -5    1    4    4    0  503  0.34216416892E+02  0.52818490950E+00 -0.11642927392E+02  0.36451199191E+02  0.47000000000E+01 0.  1.
<mgrwt>
<rscale>  0 0.15693846E+03</rscale>
<asrwt>0</asrwt>
<pdfrwt beam="1">  1        1 0.30198279E-01 0.16347640E+03</pdfrwt>
<pdfrwt beam="2">  1       -1 0.21945615E-01 0.16347640E+03</pdfrwt>
<totfact> 0.25428272E+03</totfact>
</mgrwt>
</event>
<event>
 8    1  0.3629925E-004  0.1775950E+03  0.7546771E-02  0.1176327E+00
         -1   -1    0    0    0  501 -0.00000000000E+00  0.00000000000E+00  0.40414786413E+02  0.40414786413E+02  0.00000000000E+00 0.  1.
          1   -1    0    0  501    0  0.00000000000E+00 -0.00000000000E+00 -0.68669659298E+03  0.68669659298E+03  0.00000000000E+00 0. -1.
         25    2    1    2    0    0 -0.12152302106E+03 -0.33912543151E+02 -0.37722637979E+03  0.41694090903E+03  0.12498829859E+03 0.  0.
         23    2    1    2    0    0  0.12152302106E+03  0.33912543151E+02 -0.26905542678E+03  0.31017047036E+03  0.88865025609E+02 0.  0.
          5    1    3    3  502    0 -0.39839850085E+02  0.45351847219E+02 -0.95768082783E+02  0.11330321876E+03  0.47000000000E+01 0. -1.
         -5    1    3    3    0  502 -0.81683170970E+02 -0.79264390370E+02 -0.28145829701E+03  0.30363769028E+03  0.47000000000E+01 0. -1.
          5    1    4    4  503    0  0.70566209830E+02  0.14988449953E+02 -0.59503648636E+02  0.93632354466E+02  0.47000000000E+01 0.  1.
         -5    1    4    4    0  503  0.50956811225E+02  0.18924093198E+02 -0.20955177814E+03  0.21653811590E+03  0.47000000000E+01 0. -1.
<mgrwt>
<rscale>  0 0.17146644E+03</rscale>
<asrwt>0</asrwt>
<pdfrwt beam="1">  1        1 0.10564563E+00 0.17759499E+03</pdfrwt>
<pdfrwt beam="2">  1       -1 0.62176592E-02 0.17759499E+03</pdfrwt>
<totfact> 0.36131061E+03</totfact>
</mgrwt>
</event>
<event>
 8    1  0.3629925E-004  0.1487055E+03  0.7546771E-02  0.1210813E+00
         -1   -1    0    0    0  501 -0.00000000000E+00  0.00000000000E+00  0.26411408620E+03  0.26411408620E+03  0.00000000000E+00 0.  1.
          1   -1    0    0  501    0  0.00000000000E+00 -0.00000000000E+00 -0.71091764503E+02  0.71091764503E+02  0.00000000000E+00 0. -1.
         25    2    1    2    0    0 -0.80318027062E+02 -0.60794626696E+01  0.84794692249E+02  0.17118256285E+03  0.12500153860E+03 0.  0.
         23    2    1    2    0    0  0.80318027062E+02  0.60794626696E+01  0.10822762944E+03  0.16402328785E+03  0.93287050787E+02 0.  0.
          5    1    4    4  502    0 -0.14030148611E+02 -0.15849601056E+02  0.47327834142E+01  0.22193335994E+02  0.47000000000E+01 0. -1.
         -5    1    3    3    0  503 -0.59148562814E+02  0.72868752434E+00  0.11733739753E+03  0.13148854828E+03  0.47000000000E+01 0. -1.
          5    1    3    3  503    0 -0.21169464248E+02 -0.68081501939E+01 -0.32542705284E+02  0.39694014572E+02  0.47000000000E+01 0. -1.
         -5    1    4    4    0  502  0.94348175673E+02  0.21929063726E+02  0.10349484603E+03  0.14182995186E+03  0.47000000000E+01 0.  1.
<mgrwt>
<rscale>  0 0.14188665E+03</rscale>
<asrwt>0</asrwt>
<pdfrwt beam="1">  1        1 0.10937195E-01 0.14870551E+03</pdfrwt>
<pdfrwt beam="2">  1       -1 0.40632936E-01 0.14870551E+03</pdfrwt>
<totfact> 0.33003043E+03</totfact>
</mgrwt>
</event>
<event>
 8    1  0.3629925E-004  0.1879178E+03  0.7546771E-02  0.1164980E+00
          1   -1    0    0  501    0  0.00000000000E+00  0.00000000000E+00  0.16105787978E+04  0.16105787978E+04  0.00000000000E+00 0. -1.
         -1   -1    0    0    0  501 -0.00000000000E+00 -0.00000000000E+00 -0.20510768016E+02  0.20510768016E+02  0.00000000000E+00 0.  1.
         25    2    1    2    0    0  0.13843939234E+03 -0.22988417771E+02  0.99255663444E+03  0.10101889774E+04  0.12497665721E+03 0.  0.
         23    2    1    2    0    0 -0.13843939234E+03  0.22988417771E+02  0.59751139533E+03  0.62090058837E+03  0.93828249410E+02 0.  0.
          5    1    4    4  502    0 -0.79778028245E+02  0.51570717658E+02  0.44324677440E+03  0.45333637150E+03  0.47000000000E+01 0. -1.
         -5    1    3    3    0  503  0.30464473660E+02  0.27474469299E+02  0.81559781431E+02  0.91416730228E+02  0.47000000000E+01 0.  1.
          5    1    3    3  503    0  0.10797491868E+03 -0.50462887070E+02  0.91099685301E+03  0.91877224720E+03  0.47000000000E+01 0.  1.
         -5    1    4    4    0  502 -0.58661364096E+02 -0.28582299887E+02  0.15426462093E+03  0.16756421687E+03  0.47000000000E+01 0.  1.
<mgrwt>
<rscale>  0 0.18294776E+03</rscale>
<asrwt>0</asrwt>
<pdfrwt beam="1">  1        1 0.24778125E+00 0.18791779E+03</pdfrwt>
<pdfrwt beam="2">  1       -1 0.31555040E-02 0.18791779E+03</pdfrwt>
<totfact> 0.21175278E+03</totfact>
</mgrwt>
</event>
<event>
 8    1  0.3629925E-004  0.2729635E+03  0.7546771E-02  0.1101682E+00
         -1   -1    0    0    0  501 -0.00000000000E+00  0.00000000000E+00  0.30645666215E+02  0.30645666215E+02  0.00000000000E+00 0.  1.
          1   -1    0    0  501    0  0.00000000000E+00 -0.00000000000E+00 -0.23051808688E+04  0.23051808688E+04  0.00000000000E+00 0. -1.
         25    2    1    2    0    0 -0.14281793358E+02  0.24223931824E+03 -0.11787536316E+04  0.12099459540E+04  0.12500092251E+03 0.  0.
         23    2    1    2    0    0  0.14281793358E+02 -0.24223931824E+03 -0.10957815710E+04  0.11258805810E+04  0.89364279850E+02 0.  0.
          5    1    4    4  502    0 -0.34463914490E+02 -0.89841730611E+02 -0.48467802461E+03  0.49416007072E+03  0.47000000000E+01 0. -1.
         -5    1    3    3    0  503  0.16675561942E+02  0.17674732030E+03 -0.57386260356E+03  0.60071463055E+03  0.47000000000E+01 0.  1.
          5    1    3    3  503    0 -0.30957355299E+02  0.65491997937E+02 -0.60489102806E+03  0.60923132345E+03  0.47000000000E+01 0.  1.
         -5    1    4    4    0  502  0.48745707848E+02 -0.15239758763E+03 -0.61110354637E+03  0.63172051030E+03  0.47000000000E+01 0.  1.
<mgrwt>
<rscale>  0 0.26929745E+03</rscale>
<asrwt>0</asrwt>
<pdfrwt beam="1">  1        1 0.35464334E+00 0.27296353E+03</pdfrwt>
<pdfrwt beam="2">  1       -1 0.47147161E-02 0.27296353E+03</pdfrwt>
<totfact> 0.40974999E+02</totfact>
</mgrwt>
</event>
<event>
 8    1  0.3629925E-004  0.1378244E+03  0.7546771E-02  0.1228101E+00
          2   -1    0    0  501    0  0.00000000000E+00  0.00000000000E+00  0.61520358136E+03  0.61520358136E+03  0.00000000000E+00 0.  1.
         -2   -1    0    0    0  501 -0.00000000000E+00 -0.00000000000E+00 -0.27512012763E+02  0.27512012763E+02  0.00000000000E+00 0. -1.
         25    2    1    2    0    0  0.51019667378E+02 -0.27717450930E+02  0.22013323272E+03  0.25971947140E+03  0.12499720048E+03 0.  0.
         23    2    1    2    0    0 -0.51019667378E+02  0.27717450930E+02  0.36755833587E+03  0.38299612273E+03  0.90640146784E+02 0.  0.
          5    1    4    4  502    0  0.66180444209E+01  0.45428139075E+02  0.18553593204E+03  0.19118887627E+03  0.47000000000E+01 0. -1.
         -5    1    4    4    0  502 -0.57637711799E+02 -0.17710688146E+02  0.18202240384E+03  0.19180724646E+03  0.47000000000E+01 0.  1.
          5    1    3    3  503    0  0.50398313406E+02 -0.64332579588E+02  0.20326315840E+03  0.21912706897E+03  0.47000000000E+01 0. -1.
         -5    1    3    3    0  503  0.62135397206E+00  0.36615128658E+02  0.16870074324E+02  0.40592402431E+02  0.47000000000E+01 0. -1.
<mgrwt>
<rscale>  0 0.12956583E+03</rscale>
<asrwt>0</asrwt>
<pdfrwt beam="1">  1        2 0.94646695E-01 0.13782439E+03</pdfrwt>
<pdfrwt beam="2">  1       -2 0.42326178E-02 0.13782439E+03</pdfrwt>
<totfact> 0.11788858E+04</totfact>
</mgrwt>
</event>
<event>
 8    1  0.3629925E-004  0.1303376E+03  0.7546771E-02  0.1240380E+00
         -2   -1    0    0    0  501 -0.00000000000E+00  0.00000000000E+00  0.29372557134E+02  0.29372557134E+02  0.00000000000E+00 0.  1.
          2   -1    0    0  501    0  0.00000000000E+00 -0.00000000000E+00 -0.45021932659E+03  0.45021932659E+03  0.00000000000E+00 0. -1.
         25    2    1    2    0    0  0.30985907025E+02  0.20051515366E+02 -0.25763135400E+03  0.28872446525E+03  0.12500285025E+03 0.  0.
         23    2    1    2    0    0 -0.30985907025E+02 -0.20051515366E+02 -0.16321541546E+03  0.19086741847E+03  0.91809094801E+02 0.  0.
          5    1    4    4  502    0 -0.35751562338E+02 -0.42650126489E+02 -0.15678684442E+03  0.16643741190E+03  0.47000000000E+01 0. -1.
         -5    1    4    4    0  502  0.47656553126E+01  0.22598611123E+02 -0.64285710416E+01  0.24430006567E+02  0.47000000000E+01 0.  1.
          5    1    3    3  503    0  0.78886559184E+02  0.22052779597E+02 -0.16823423830E+03  0.18717441931E+03  0.47000000000E+01 0. -1.
         -5    1    3    3    0  503 -0.47900652159E+02 -0.20012642305E+01 -0.89397115693E+02  0.10155004594E+03  0.47000000000E+01 0. -1.
<mgrwt>
<rscale>  0 0.12166239E+03</rscale>
<asrwt>0</asrwt>
<pdfrwt beam="1">  1        2 0.69264510E-01 0.13033765E+03</pdfrwt>
<pdfrwt beam="2">  1       -2 0.45188551E-02 0.13033765E+03</pdfrwt>
<totfact> 0.15052749E+04</totfact>
</mgrwt>
</event>
<event>
 8    1  0.3629925E-004  0.1658412E+03  0.7546771E-02  0.1189272E+00
          1   -1    0    0  501    0  0.00000000000E+00  0.00000000000E+00  0.30677679100E+03  0.30677679100E+03  0.00000000000E+00 0. -1.
         -1   -1    0    0    0  501 -0.00000000000E+00 -0.00000000000E+00 -0.93622594014E+02  0.93622594014E+02  0.00000000000E+00 0.  1.
         25    2    1    2    0    0 -0.91245262471E+02  0.59600931298E+02  0.29679516423E+02  0.16847604827E+03  0.12500134483E+03 0.  0.
         23    2    1    2    0    0  0.91245262471E+02 -0.59600931298E+02  0.18347468056E+03  0.23192333674E+03  0.90815784887E+02 0.  0.
          5    1    4    4  502    0  0.41123025552E+02 -0.77590526958E+02  0.12305372565E+03  0.15124715700E+03  0.47000000000E+01 0. -1.
         -5    1    4    4    0  502  0.50122236919E+02  0.17989595660E+02  0.60420954911E+02  0.80676179744E+02  0.47000000000E+01 0.  1.
          5    1    3    3  503    0 -0.11615026048E+03  0.19555949942E+02  0.14803524035E+02  0.11880468220E+03  0.47000000000E+01 0.  1.
         -5    1    3    3    0  503  0.24904998011E+02  0.40044981355E+02  0.14875992389E+02  0.49671366070E+02  0.47000000000E+01 0.  1.
<mgrwt>
<rscale>  0 0.15949152E+03</rscale>
<asrwt>0</asrwt>
<pdfrwt beam="1">  1        1 0.47196429E-01 0.16584120E+03</pdfrwt>
<pdfrwt beam="2">  1       -1 0.14403476E-01 0.16584120E+03</pdfrwt>
<totfact> 0.28585242E+03</totfact>
</mgrwt>
</event>
<event>
 8    1  0.3629925E-004  0.1256669E+03  0.7546771E-02  0.1249408E+00
          2   -1    0    0  501    0  0.00000000000E+00  0.00000000000E+00  0.20090996783E+03  0.20090996783E+03  0.00000000000E+00 0.  1.
         -2   -1    0    0    0  501 -0.00000000000E+00 -0.00000000000E+00 -0.99976670047E+02  0.99976670047E+02  0.00000000000E+00 0. -1.
         25    2    1    2    0    0  0.12687822698E+02 -0.24385017265E+01  0.15072755731E+03  0.19624213646E+03  0.12500100981E+03 0.  0.
         23    2    1    2    0    0 -0.12687822698E+02  0.24385017265E+01 -0.49794259532E+02  0.10464450142E+03  0.91126704421E+02 0.  0.
          5    1    4    4  502    0  0.21809801284E+02  0.31073422509E+02 -0.45376535116E+02  0.59349346733E+02  0.47000000000E+01 0. -1.
         -5    1    3    3    0  503  0.61449687099E+02  0.27640211923E+02  0.91210226027E+02  0.11349643471E+03  0.47000000000E+01 0.  1.
          5    1    3    3  503    0 -0.48761864401E+02 -0.30078713649E+02  0.59517331286E+02  0.82745701750E+02  0.47000000000E+01 0.  1.
         -5    1    4    4    0  502 -0.34497623983E+02 -0.28634920783E+02 -0.44177244161E+01  0.45295154682E+02  0.47000000000E+01 0.  1.
<mgrwt>
<rscale>  0 0.11625393E+03</rscale>
<asrwt>0</asrwt>
<pdfrwt beam="1">  1        2 0.30909226E-01 0.12566694E+03</pdfrwt>
<pdfrwt beam="2">  1       -2 0.15381026E-01 0.12566694E+03</pdfrwt>
<totfact> 0.52926672E+03</totfact>
</mgrwt>
</event>
<event>
 8    1  0.3629925E-004  0.1943762E+03  0.7546771E-02  0.1159277E+00
          2   -1    0    0  501    0  0.00000000000E+00  0.00000000000E+00  0.24835129344E+03  0.24835129344E+03  0.00000000000E+00 0. -1.
         -2   -1    0    0    0  501 -0.00000000000E+00 -0.00000000000E+00 -0.13684833169E+03  0.13684833169E+03  0.00000000000E+00 0.  1.
         25    2    1    2    0    0 -0.90303675949E+02  0.11832943819E+03  0.52116912490E+02  0.20124180190E+03  0.12500192171E+03 0.  0.
         23    2    1    2    0    0  0.90303675949E+02 -0.11832943819E+03  0.59386049265E+02  0.18395782323E+03  0.90317041843E+02 0.  0.
          5    1    4    4  502    0  0.45492232421E+02 -0.91359479132E+02  0.77685901166E+02  0.12834830298E+03  0.47000000000E+01 0. -1.
         -5    1    4    4    0  502  0.44811443528E+02 -0.26969959060E+02 -0.18299851901E+02  0.55609520250E+02  0.47000000000E+01 0.  1.
          5    1    3    3  503    0 -0.16946645991E+02  0.11955471855E+03  0.33702241670E+02  0.12545298176E+03  0.47000000000E+01 0. -1.
         -5    1    3    3    0  503 -0.73357029958E+02 -0.12252803621E+01  0.18414670820E+02  0.75788820136E+02  0.47000000000E+01 0. -1.
<mgrwt>
<rscale>  0 0.18909814E+03</rscale>
<asrwt>0</asrwt>
<pdfrwt beam="1">  1        2 0.38207891E-01 0.19437616E+03</pdfrwt>
<pdfrwt beam="2">  1       -2 0.21053590E-01 0.19437616E+03</pdfrwt>
<totfact> 0.25447040E+03</totfact>
</mgrwt>
</event>
<event>
 8    1  0.3629925E-004  0.1259290E+03  0.7546771E-02  0.1249529E+00
          1   -1    0    0  501    0  0.00000000000E+00  0.00000000000E+00  0.15504727086E+03  0.15504727086E+03  0.00000000000E+00 0. -1.
         -1   -1    0    0    0  501 -0.00000000000E+00 -0.00000000000E+00 -0.76789779725E+02  0.76789779725E+02  0.00000000000E+00 0.  1.
         25    2    1    2    0    0 -0.29395482906E+00  0.15249747242E+02  0.56563593526E+02  0.13804913768E+03  0.12500193239E+03 0.  0.
         23    2    1    2    0    0  0.29395482906E+00 -0.15249747242E+02  0.21693897608E+02  0.93787912905E+02  0.89960581442E+02 0.  0.
          5    1    3    3  502    0 -0.44406709924E+02 -0.36346534444E+02  0.21140880253E+02  0.61335579155E+02  0.47000000000E+01 0. -1.
         -5    1    3    3    0  502  0.44112755095E+02  0.51596281686E+02  0.35422713273E+02  0.76713558525E+02  0.47000000000E+01 0. -1.
          5    1    4    4  503    0  0.35374693846E+02 -0.26723779065E+02  0.32351686750E+02  0.55084035507E+02  0.47000000000E+01 0. -1.
         -5    1    4    4    0  503 -0.35080739017E+02  0.11474031824E+02 -0.10657789142E+02  0.38703877398E+02  0.47000000000E+01 0.  1.
<mgrwt>
<rscale>  0 0.11618392E+03</rscale>
<asrwt>0</asrwt>
<pdfrwt beam="1">  1        1 0.23853426E-01 0.12592904E+03</pdfrwt>
<pdfrwt beam="2">  1       -1 0.11813812E-01 0.12592904E+03</pdfrwt>
<totfact> 0.89490658E+03</totfact>
</mgrwt>
</event>
<event>
 8    1  0.3629925E-004  0.1256161E+03  0.7546771E-02  0.1248987E+00
          1   -1    0    0  501    0  0.00000000000E+00  0.00000000000E+00  0.58765255775E+02  0.58765255775E+02  0.00000000000E+00 0. -1.
         -1   -1    0    0    0  501 -0.00000000000E+00 -0.00000000000E+00 -0.21160312344E+03  0.21160312344E+03  0.00000000000E+00 0.  1.
         25    2    1    2    0    0 -0.12618740803E+02  0.13718263649E+01 -0.11406110004E+03  0.16967424609E+03  0.12497320000E+03 0.  0.
         23    2    1    2    0    0  0.12618740803E+02 -0.13718263649E+01 -0.38776767619E+02  0.10069413312E+03  0.92057352834E+02 0.  0.
          5    1    3    3  502    0 -0.38023514765E+02 -0.21340546405E+02  0.64702349313E+01  0.44330131243E+02  0.47000000000E+01 0.  1.
         -5    1    4    4    0  503  0.95434908015E+00  0.41085698147E+02  0.70097149845E+00  0.41370602310E+02  0.47000000000E+01 0.  1.
          5    1    4    4  503    0  0.11664391723E+02 -0.42457524512E+02 -0.39477739118E+02  0.59323530811E+02  0.47000000000E+01 0. -1.
         -5    1    3    3    0  502  0.25404773962E+02  0.22712372769E+02 -0.12053133498E+03  0.12534411485E+03  0.47000000000E+01 0.  1.
<mgrwt>
<rscale>  0 0.11649871E+03</rscale>
<asrwt>0</asrwt>
<pdfrwt beam="1">  1        1 0.90408085E-02 0.12561614E+03</pdfrwt>
<pdfrwt beam="2">  1       -1 0.32554327E-01 0.12561614E+03</pdfrwt>
<totfact> 0.61639893E+03</totfact>
</mgrwt>
</event>
<event>
 8    1  0.3629925E-004  0.1290661E+03  0.7546771E-02  0.1243851E+00
         -2   -1    0    0    0  501 -0.00000000000E+00  0.00000000000E+00  0.29035592387E+02  0.29035592387E+02  0.00000000000E+00 0. -1.
          2   -1    0    0  501    0  0.00000000000E+00 -0.00000000000E+00 -0.51197723820E+03  0.51197723820E+03  0.00000000000E+00 0.  1.
         25    2    1    2    0    0  0.31179130219E+02 -0.78256535785E+01 -0.16676655777E+03  0.21087709971E+03  0.12499874951E+03 0.  0.
         23    2    1    2    0    0 -0.31179130219E+02  0.78256535785E+01 -0.31617508804E+03  0.33013573087E+03  0.89384201538E+02 0.  0.
          5    1    4    4  502    0 -0.33161121390E+00  0.33394190888E+02 -0.46401835687E+02  0.57362900086E+02  0.47000000000E+01 0. -1.
         -5    1    4    4    0  502 -0.30847519005E+02 -0.25568537310E+02 -0.26977325235E+03  0.27277283078E+03  0.47000000000E+01 0.  1.
          5    1    3    3  503    0  0.35999720932E+02  0.35416365063E+02 -0.14946171633E+02  0.52875106316E+02  0.47000000000E+01 0.  1.
         -5    1    3    3    0  503 -0.48205907132E+01 -0.43242018641E+02 -0.15182038614E+03  0.15800199340E+03  0.47000000000E+01 0.  1.
<mgrwt>
<rscale>  0 0.11954394E+03</rscale>
<asrwt>0</asrwt>
<pdfrwt beam="1">  1        2 0.78765731E-01 0.12906613E+03</pdfrwt>
<pdfrwt beam="2">  1       -2 0.44670141E-02 0.12906613E+03</pdfrwt>
<totfact> 0.13302017E+04</totfact>
</mgrwt>
</event>
<event>
 8    1  0.3629925E-004  0.2159062E+03  0.7546771E-02  0.1140596E+00
         -1   -1    0    0    0  501 -0.00000000000E+00  0.00000000000E+00  0.38324691368E+03  0.38324691368E+03  0.00000000000E+00 0.  1.
          1   -1    0    0  501    0  0.00000000000E+00 -0.00000000000E+00 -0.11619714118E+03  0.11619714118E+03  0.00000000000E+00 0. -1.
         25    2    1    2    0    0 -0.12421723843E+03  0.12474210083E+03  0.89763796232E+02  0.23382263061E+03  0.12499987771E+03 0.  0.
         23    2    1    2    0    0  0.12421723843E+03 -0.12474210083E+03  0.17728597626E+03  0.26562142426E+03  0.90188189932E+02 0.  0.
          5    1    3    3  502    0 -0.25081293853E+01  0.36961443624E+02  0.73966072248E+02  0.82858366334E+02  0.47000000000E+01 0.  1.
         -5    1    4    4    0  503  0.43825528486E+02 -0.76141096764E+01  0.85290668751E+02  0.96308046337E+02  0.47000000000E+01 0.  1.
          5    1    4    4  503    0  0.80391709948E+02 -0.11712799115E+03  0.91995307508E+02  0.16931337792E+03  0.47000000000E+01 0. -1.
         -5    1    3    3    0  502 -0.12170910905E+03  0.87780657202E+02  0.15797723985E+02  0.15096426427E+03  0.47000000000E+01 0.  1.
<mgrwt>
<rscale>  0 0.21122962E+03</rscale>
<asrwt>0</asrwt>
<pdfrwt beam="1">  1        1 0.17876483E-01 0.21590619E+03</pdfrwt>
<pdfrwt beam="2">  1       -1 0.58961063E-01 0.21590619E+03</pdfrwt>
<totfact> 0.88708414E+02</totfact>
</mgrwt>
</event>
<event>
 8    1  0.3629925E-004  0.1339907E+03  0.7546771E-02  0.1234153E+00
         -2   -1    0    0    0  501 -0.00000000000E+00  0.00000000000E+00  0.80833897816E+02  0.80833897816E+02  0.00000000000E+00 0. -1.
          2   -1    0    0  501    0  0.00000000000E+00 -0.00000000000E+00 -0.19631650180E+03  0.19631650180E+03  0.00000000000E+00 0.  1.
         25    2    1    2    0    0  0.20224347264E+02 -0.43800630793E+02 -0.18290871054E+02  0.13523341234E+03  0.12500400141E+03 0.  0.
         23    2    1    2    0    0 -0.20224347264E+02  0.43800630793E+02 -0.97191732930E+02  0.14191698728E+03  0.91469551486E+02 0.  0.
          5    1    4    4  502    0 -0.51356658600E+01  0.26149631928E+02  0.12419599841E+02  0.29774397962E+02  0.47000000000E+01 0. -1.
         -5    1    4    4    0  502 -0.15088681404E+02  0.17650998865E+02 -0.10961133277E+03  0.11214258932E+03  0.47000000000E+01 0.  1.
          5    1    3    3  503    0 -0.86174326116E+01  0.39843724302E+02 -0.21987124184E+02  0.46554335362E+02  0.47000000000E+01 0.  1.
         -5    1    3    3    0  503  0.28841779875E+02 -0.83644355095E+02  0.36962531300E+01  0.88679076973E+02  0.47000000000E+01 0.  1.
<mgrwt>
<rscale>  0 0.12558843E+03</rscale>
<asrwt>0</asrwt>
<pdfrwt beam="1">  1        2 0.30202538E-01 0.13399075E+03</pdfrwt>
<pdfrwt beam="2">  1       -2 0.12435984E-01 0.13399075E+03</pdfrwt>
<totfact> 0.76879164E+03</totfact>
</mgrwt>
</event>
<event>
 8    1  0.3629925E-004  0.1250070E+03  0.7546771E-02  0.1249973E+00
         -2   -1    0    0    0  501 -0.00000000000E+00  0.00000000000E+00  0.21331959117E+03  0.21331959117E+03  0.00000000000E+00 0.  1.
          2   -1    0    0  501    0  0.00000000000E+00 -0.00000000000E+00 -0.57546012926E+02  0.57546012926E+02  0.00000000000E+00 0. -1.
         25    2    1    2    0    0  0.12608284277E+01 -0.27500326318E+01  0.11486110420E+03  0.16976399362E+03  0.12497034809E+03 0.  0.
         23    2    1    2    0    0 -0.12608284277E+01  0.27500326318E+01  0.40912474040E+02  0.10110161048E+03  0.92404289628E+02 0.  0.
          5    1    3    3  502    0  0.25796686413E+02 -0.53889508452E+02  0.28566498102E+02  0.66390383075E+02  0.47000000000E+01 0.  1.
         -5    1    4    4    0  503 -0.37796492342E+02  0.30251584858E+01  0.50224026109E+02  0.63105223364E+02  0.47000000000E+01 0.  1.
          5    1    4    4  503    0  0.36535663914E+02 -0.27512585400E+00 -0.93115520693E+01  0.37996387115E+02  0.47000000000E+01 0. -1.
         -5    1    3    3    0  502 -0.24535857985E+02  0.51139475820E+02  0.86294606102E+02  0.10337361054E+03  0.47000000000E+01 0.  1.
<mgrwt>
<rscale>  0 0.11592626E+03</rscale>
<asrwt>0</asrwt>
<pdfrwt beam="1">  1        2 0.88532329E-02 0.12500696E+03</pdfrwt>
<pdfrwt beam="2">  1       -2 0.32818398E-01 0.12500696E+03</pdfrwt>
<totfact> 0.60915047E+03</totfact>
</mgrwt>
</event>
<event>
 8    1  0.3629925E-004  0.1412202E+03  0.7546771E-02  0.1222575E+00
          3   -1    0    0  501    0  0.00000000000E+00  0.00000000000E+00  0.29660695365E+02  0.29660695365E+02  0.00000000000E+00 0. -1.
         -3   -1    0    0    0  501 -0.00000000000E+00 -0.00000000000E+00 -0.59218867269E+03  0.59218867269E+03  0.00000000000E+00 0.  1.
         25    2    1    2    0    0  0.94472577749E+01  0.65055984439E+02 -0.22027690942E+03  0.26165830078E+03  0.12498647029E+03 0.  0.
         23    2    1    2    0    0 -0.94472577749E+01 -0.65055984439E+02 -0.34225106791E+03  0.36019106727E+03  0.90996042050E+02 0.  0.
          5    1    3    3  502    0  0.45561198140E+02 -0.18366061222E+02 -0.64157185101E+02  0.80940529902E+02  0.47000000000E+01 0.  1.
         -5    1    4    4    0  503 -0.27647790773E+02 -0.36097962553E+02 -0.30864389709E+03  0.31201059028E+03  0.47000000000E+01 0.  1.
          5    1    4    4  503    0  0.18200532998E+02 -0.28958021886E+02 -0.33607170814E+02  0.48180476991E+02  0.47000000000E+01 0. -1.
         -5    1    3    3    0  502 -0.36113940365E+02  0.83422045661E+02 -0.15611972432E+03  0.18071777088E+03  0.47000000000E+01 0.  1.
<mgrwt>
<rscale>  0 0.13334501E+03</rscale>
<asrwt>0</asrwt>
<pdfrwt beam="1">  1        3 0.45631844E-02 0.14122022E+03</pdfrwt>
<pdfrwt beam="2">  1       -3 0.91105939E-01 0.14122022E+03</pdfrwt>
<totfact> 0.68609520E+02</totfact>
</mgrwt>
</event>
<event>
 8    1  0.3629925E-004  0.1612602E+03  0.7546771E-02  0.1194905E+00
          2   -1    0    0  501    0  0.00000000000E+00  0.00000000000E+00  0.96005416661E+02  0.96005416661E+02  0.00000000000E+00 0. -1.
         -2   -1    0    0    0  501 -0.00000000000E+00 -0.00000000000E+00 -0.24892438169E+03  0.24892438169E+03  0.00000000000E+00 0.  1.
         25    2    1    2    0    0 -0.32007218589E+02  0.96735962519E+02 -0.35722720587E+02  0.16516946611E+03  0.12499012474E+03 0.  0.
         23    2    1    2    0    0  0.32007218589E+02 -0.96735962519E+02 -0.11719624444E+03  0.17976033224E+03  0.90534572679E+02 0.  0.
          5    1    4    4  502    0  0.32585088263E+02 -0.26731602685E+01 -0.52168765627E+01  0.33440089175E+02  0.47000000000E+01 0. -1.
         -5    1    4    4    0  502 -0.57786967439E+00 -0.94062802251E+02 -0.11197936788E+03  0.14632024307E+03  0.47000000000E+01 0.  1.
          5    1    3    3  503    0  0.29980843517E+00  0.10693596860E+03  0.10627044527E+02  0.10756586513E+03  0.47000000000E+01 0. -1.
         -5    1    3    3    0  503 -0.32307027024E+02 -0.10200006085E+02 -0.46349765114E+02  0.57603600976E+02  0.47000000000E+01 0. -1.
<mgrwt>
<rscale>  0 0.15462246E+03</rscale>
<asrwt>0</asrwt>
<pdfrwt beam="1">  1        2 0.14770064E-01 0.16126016E+03</pdfrwt>
<pdfrwt beam="2">  1       -2 0.38296059E-01 0.16126016E+03</pdfrwt>
<totfact> 0.25036979E+03</totfact>
</mgrwt>
</event>
<event>
 8    1  0.3629925E-004  0.1390198E+03  0.7546771E-02  0.1225920E+00
          2   -1    0    0  501    0  0.00000000000E+00  0.00000000000E+00  0.57441868334E+03  0.57441868334E+03  0.00000000000E+00 0. -1.
         -2   -1    0    0    0  501 -0.00000000000E+00 -0.00000000000E+00 -0.28605231137E+02  0.28605231137E+02  0.00000000000E+00 0.  1.
         25    2    1    2    0    0 -0.46465687954E+02 -0.39278270790E+02  0.37555869293E+03  0.40046329394E+03  0.12499870097E+03 0.  0.
         23    2    1    2    0    0  0.46465687954E+02  0.39278270790E+02  0.17025475927E+03  0.20256062054E+03  0.91336078437E+02 0.  0.
          5    1    3    3  502    0  0.35895770701E+02 -0.42511611698E+02  0.13325858297E+03  0.14448419782E+03  0.47000000000E+01 0. -1.
         -5    1    4    4    0  503  0.83524511804E+01 -0.24502199770E+02  0.14772913594E+02  0.30173667499E+02  0.47000000000E+01 0.  1.
          5    1    4    4  503    0  0.38113236773E+02  0.63780470559E+02  0.15548184568E+03  0.17238695304E+03  0.47000000000E+01 0. -1.
         -5    1    3    3    0  502 -0.82361458655E+02  0.32333409081E+01  0.24230010996E+03  0.25597909612E+03  0.47000000000E+01 0. -1.
<mgrwt>
<rscale>  0 0.13104019E+03</rscale>
<asrwt>0</asrwt>
<pdfrwt beam="1">  1        2 0.88372097E-01 0.13901985E+03</pdfrwt>
<pdfrwt beam="2">  1       -2 0.44008052E-02 0.13901985E+03</pdfrwt>
<totfact> 0.12031990E+04</totfact>
</mgrwt>
</event>
<event>
 8    1  0.3629925E-004  0.1349559E+03  0.7546771E-02  0.1233338E+00
         -2   -1    0    0    0  501 -0.00000000000E+00  0.00000000000E+00  0.71091801328E+03  0.71091801328E+03  0.00000000000E+00 0. -1.
          2   -1    0    0  501    0  0.00000000000E+00 -0.00000000000E+00 -0.21829857399E+02  0.21829857399E+02  0.00000000000E+00 0.  1.
         25    2    1    2    0    0 -0.36706207593E+02  0.35196455258E+02  0.27875486176E+03  0.30970531044E+03  0.12500788065E+03 0.  0.
         23    2    1    2    0    0  0.36706207593E+02 -0.35196455258E+02  0.41033329412E+03  0.42304256023E+03  0.89473232690E+02 0.  0.
          5    1    4    4  502    0 -0.24439120677E+02 -0.13882078114E+02  0.22223998906E+03  0.22405955782E+03  0.47000000000E+01 0. -1.
         -5    1    4    4    0  502  0.61145328270E+02 -0.21314377144E+02  0.18809330506E+03  0.19898300241E+03  0.47000000000E+01 0.  1.
          5    1    3    3  503    0 -0.12772175358E+02  0.18325587700E+02 -0.58461966083E+01  0.23563184053E+02  0.47000000000E+01 0. -1.
         -5    1    3    3    0  503 -0.23934032234E+02  0.16870867558E+02  0.28460105837E+03  0.28614212639E+03  0.47000000000E+01 0. -1.
<mgrwt>
<rscale>  0 0.12611426E+03</rscale>
<asrwt>0</asrwt>
<pdfrwt beam="1">  1        2 0.33584401E-02 0.13495594E+03</pdfrwt>
<pdfrwt beam="2">  1       -2 0.10937198E+00 0.13495594E+03</pdfrwt>
<totfact> 0.17901002E+03</totfact>
</mgrwt>
</event>
<event>
 8    1  0.3629925E-004  0.2418813E+03  0.7546771E-02  0.1121167E+00
         -1   -1    0    0    0  501 -0.00000000000E+00  0.00000000000E+00  0.14994870410E+03  0.14994870410E+03  0.00000000000E+00 0.  1.
          1   -1    0    0  501    0  0.00000000000E+00 -0.00000000000E+00 -0.43214955032E+03  0.43214955032E+03  0.00000000000E+00 0. -1.
         25    2    1    2    0    0  0.20562207270E+03 -0.24514459109E+02 -0.25899789171E+03  0.35438179933E+03  0.12500062520E+03 0.  0.
         23    2    1    2    0    0 -0.20562207270E+03  0.24514459109E+02 -0.23202954505E+02  0.22771645509E+03  0.91842317764E+02 0.  0.
          5    1    3    3  502    0  0.20911396094E+03 -0.50388753214E+02 -0.23493393738E+03  0.31856509546E+03  0.47000000000E+01 0. -1.
         -5    1    4    4    0  503 -0.10547996632E+03 -0.27228613000E+02  0.11595181517E+02  0.10965381386E+03  0.47000000000E+01 0.  1.
          5    1    4    4  503    0 -0.10014210639E+03  0.51743072109E+02 -0.34798136021E+02  0.11806264123E+03  0.47000000000E+01 0. -1.
         -5    1    3    3    0  502 -0.34918882307E+01  0.25874294104E+02 -0.24063954329E+02  0.35816703879E+02  0.47000000000E+01 0. -1.
<mgrwt>
<rscale>  0 0.23794891E+03</rscale>
<asrwt>0</asrwt>
<pdfrwt beam="1">  1        1 0.66484546E-01 0.24188128E+03</pdfrwt>
<pdfrwt beam="2">  1       -1 0.23069031E-01 0.24188128E+03</pdfrwt>
<totfact> 0.87441576E+02</totfact>
</mgrwt>
</event>
<event>
 8    1  0.3629925E-004  0.1413053E+03  0.7546771E-02  0.1221708E+00
          1   -1    0    0  501    0  0.00000000000E+00  0.00000000000E+00  0.22253491362E+03  0.22253491362E+03  0.00000000000E+00 0. -1.
         -1   -1    0    0    0  501 -0.00000000000E+00 -0.00000000000E+00 -0.76501571831E+02  0.76501571831E+02  0.00000000000E+00 0.  1.
         25    2    1    2    0    0 -0.65483717887E+02 -0.72694499686E+01  0.49978012495E+02  0.14988328566E+03  0.12500494140E+03 0.  0.
         23    2    1    2    0    0  0.65483717887E+02  0.72694499686E+01  0.96055329291E+02  0.14915319979E+03  0.93161625746E+02 0.  0.
          5    1    4    4  502    0  0.38874047514E+02 -0.29121130354E+02  0.91371311930E+02  0.10358589888E+03  0.47000000000E+01 0. -1.
         -5    1    3    3    0  503 -0.88763188519E+02 -0.27788427156E+02  0.66480204694E+02  0.11442380843E+03  0.47000000000E+01 0. -1.
          5    1    3    3  503    0  0.23279470632E+02  0.20518977187E+02 -0.16502192198E+02  0.35459477225E+02  0.47000000000E+01 0. -1.
         -5    1    4    4    0  502  0.26609670373E+02  0.36390580323E+02  0.46840173610E+01  0.45567300910E+02  0.47000000000E+01 0.  1.
<mgrwt>
<rscale>  0 0.13395086E+03</rscale>
<asrwt>0</asrwt>
<pdfrwt beam="1">  1        1 0.34236140E-01 0.14130533E+03</pdfrwt>
<pdfrwt beam="2">  1       -1 0.11769473E-01 0.14130533E+03</pdfrwt>
<totfact> 0.57835125E+03</totfact>
</mgrwt>
</event>
<event>
 8    1  0.3629925E-004  0.1816929E+03  0.7546771E-02  0.1171182E+00
         -1   -1    0    0    0  501 -0.00000000000E+00  0.00000000000E+00  0.31514134253E+02  0.31514134253E+02  0.00000000000E+00 0.  1.
          1   -1    0    0  501    0  0.00000000000E+00 -0.00000000000E+00 -0.96228451009E+03  0.96228451009E+03  0.00000000000E+00 0. -1.
         25    2    1    2    0    0  0.87925521329E+02 -0.98265175383E+02 -0.41096621371E+03  0.44933900158E+03  0.12500147014E+03 0.  0.
         23    2    1    2    0    0 -0.87925521329E+02  0.98265175383E+02 -0.51980416213E+03  0.54445964276E+03  0.94090348264E+02 0.  0.
          5    1    4    4  502    0  0.49404198663E+01  0.52188247240E+02 -0.24788827472E+03  0.25341410308E+03  0.47000000000E+01 0. -1.
         -5    1    4    4    0  502 -0.92865941195E+02  0.46076928144E+02 -0.27191588741E+03  0.29104553968E+03  0.47000000000E+01 0.  1.
          5    1    3    3  503    0  0.11036341921E+03 -0.96477032802E+02 -0.27717024306E+03  0.31358146596E+03  0.47000000000E+01 0.  1.
         -5    1    3    3    0  503 -0.22437897878E+02 -0.17881425815E+01 -0.13379597065E+03  0.13575753562E+03  0.47000000000E+01 0.  1.
<mgrwt>
<rscale>  0 0.17655248E+03</rscale>
<asrwt>0</asrwt>
<pdfrwt beam="1">  1        1 0.14804379E+00 0.18169290E+03</pdfrwt>
<pdfrwt beam="2">  1       -1 0.48483278E-02 0.18169290E+03</pdfrwt>
<totfact> 0.31198472E+03</totfact>
</mgrwt>
</event>
<event>
 8    1  0.3629925E-004  0.1352636E+03  0.7546771E-02  0.1232580E+00
          2   -1    0    0  501    0  0.00000000000E+00  0.00000000000E+00  0.63394758741E+03  0.63394758741E+03  0.00000000000E+00 0. -1.
         -2   -1    0    0    0  501 -0.00000000000E+00 -0.00000000000E+00 -0.23680092820E+02  0.23680092820E+02  0.00000000000E+00 0.  1.
         25    2    1    2    0    0  0.50027160702E+02  0.13047930204E+02  0.41483179818E+03  0.43632745666E+03  0.12499305325E+03 0.  0.
         23    2    1    2    0    0 -0.50027160702E+02 -0.13047930204E+02  0.19543569641E+03  0.22130022357E+03  0.90031729030E+02 0.  0.
          5    1    3    3  502    0  0.11007844228E+02  0.64135898769E+02  0.27050224142E+03  0.27825912161E+03  0.47000000000E+01 0.  1.
         -5    1    4    4    0  503 -0.23516073443E+02 -0.12592853914E+02  0.33000750390E+01  0.27286739914E+02  0.47000000000E+01 0.  1.
          5    1    4    4  503    0 -0.26511087259E+02 -0.45507628958E+00  0.19213562137E+03  0.19401348366E+03  0.47000000000E+01 0. -1.
         -5    1    3    3    0  502  0.39019316473E+02 -0.51087968565E+02  0.14432955676E+03  0.15806833504E+03  0.47000000000E+01 0.  1.
<mgrwt>
<rscale>  0 0.12660658E+03</rscale>
<asrwt>0</asrwt>
<pdfrwt beam="1">  1        2 0.97530385E-01 0.13526355E+03</pdfrwt>
<pdfrwt beam="2">  1       -2 0.36430917E-02 0.13526355E+03</pdfrwt>
<totfact> 0.14211716E+04</totfact>
</mgrwt>
</event>
<event>
 8    1  0.3629925E-004  0.1377536E+03  0.7546771E-02  0.1227323E+00
         -1   -1    0    0    0  501 -0.00000000000E+00  0.00000000000E+00  0.40376920659E+03  0.40376920659E+03  0.00000000000E+00 0.  1.
          1   -1    0    0  501    0  0.00000000000E+00 -0.00000000000E+00 -0.38916271777E+02  0.38916271777E+02  0.00000000000E+00 0. -1.
         25    2    1    2    0    0 -0.37816400482E+02 -0.43839143231E+02  0.16662644729E+03  0.21619535570E+03  0.12499643300E+03 0.  0.
         23    2    1    2    0    0  0.37816400482E+02  0.43839143231E+02  0.19822648752E+03  0.22649012267E+03  0.93016582862E+02 0.  0.
          5    1    4    4  502    0 -0.19734061135E+01  0.43433540561E+02  0.28736315512E+02  0.52328124432E+02  0.47000000000E+01 0. -1.
         -5    1    3    3    0  503  0.31227242696E+01 -0.32442242702E+02 -0.10042422107E+02  0.34426599603E+02  0.47000000000E+01 0. -1.
          5    1    3    3  503    0 -0.40939124752E+02 -0.11396900528E+02  0.17666886940E+03  0.18176875610E+03  0.47000000000E+01 0. -1.
         -5    1    4    4    0  502  0.39789806595E+02  0.40560266937E+00  0.16949017201E+03  0.17416199824E+03  0.47000000000E+01 0.  1.
<mgrwt>
<rscale>  0 0.13008978E+03</rscale>
<asrwt>0</asrwt>
<pdfrwt beam="1">  1        1 0.59871190E-02 0.13775362E+03</pdfrwt>
<pdfrwt beam="2">  1       -1 0.62118337E-01 0.13775362E+03</pdfrwt>
<totfact> 0.33884481E+03</totfact>
</mgrwt>
</event>
<event>
 8    1  0.3629925E-004  0.1614291E+03  0.7546771E-02  0.1194312E+00
         -2   -1    0    0    0  501 -0.00000000000E+00  0.00000000000E+00  0.20193287333E+02  0.20193287333E+02  0.00000000000E+00 0.  1.
          2   -1    0    0  501    0  0.00000000000E+00 -0.00000000000E+00 -0.13101620948E+04  0.13101620948E+04  0.00000000000E+00 0. -1.
         25    2    1    2    0    0  0.78632671133E+02 -0.65203096589E+02 -0.94927371638E+03  0.96290184081E+03  0.12499930256E+03 0.  0.
         23    2    1    2    0    0 -0.78632671133E+02  0.65203096589E+02 -0.34069509104E+03  0.36745354129E+03  0.92273610356E+02 0.  0.
          5    1    3    3  502    0  0.27271840722E+02 -0.96899896750E+02 -0.57502484375E+03  0.58378849270E+03  0.47000000000E+01 0.  1.
         -5    1    4    4    0  503 -0.26944228171E+02  0.29111187858E+02 -0.28870525137E+02  0.49285392480E+02  0.47000000000E+01 0.  1.
          5    1    4    4  503    0 -0.51688442962E+02  0.36091908731E+02 -0.31182456591E+03  0.31816814881E+03  0.47000000000E+01 0. -1.
         -5    1    3    3    0  502  0.51360830412E+02  0.31696800161E+02 -0.37424887264E+03  0.37911334810E+03  0.47000000000E+01 0.  1.
<mgrwt>
<rscale>  0 0.15512601E+03</rscale>
<asrwt>0</asrwt>
<pdfrwt beam="1">  1        2 0.20156336E+00 0.16142914E+03</pdfrwt>
<pdfrwt beam="2">  1       -2 0.31066601E-02 0.16142914E+03</pdfrwt>
<totfact> 0.68476988E+03</totfact>
</mgrwt>
</event>
<event>
 8    1  0.3629925E-004  0.1325764E+03  0.7546771E-02  0.1236235E+00
         -1   -1    0    0    0  501 -0.00000000000E+00  0.00000000000E+00  0.16211724641E+03  0.16211724641E+03  0.00000000000E+00 0.  1.
          1   -1    0    0  501    0  0.00000000000E+00 -0.00000000000E+00 -0.87592311324E+02  0.87592311324E+02  0.00000000000E+00 0. -1.
         25    2    1    2    0    0  0.64591845845E+01 -0.43705127402E+02  0.20926775529E+02  0.13421789893E+03  0.12499862092E+03 0.  0.
         23    2    1    2    0    0 -0.64591845845E+01  0.43705127402E+02  0.53598159560E+02  0.11549165881E+03  0.92269720491E+02 0.  0.
          5    1    3    3  502    0  0.26875995451E+02 -0.60299120161E+02 -0.33056775704E+02  0.73980696426E+02  0.47000000000E+01 0. -1.
         -5    1    3    3    0  502 -0.20416810867E+02  0.16593992759E+02  0.53983551233E+02  0.60237202503E+02  0.47000000000E+01 0. -1.
          5    1    4    4  503    0 -0.23615588597E+02 -0.15372135633E+02  0.44852793417E+02  0.53177642445E+02  0.47000000000E+01 0. -1.
         -5    1    4    4    0  503  0.17156404012E+02  0.59077263036E+02  0.87453661426E+01  0.62314016364E+02  0.47000000000E+01 0.  1.
<mgrwt>
<rscale>  0 0.12425678E+03</rscale>
<asrwt>0</asrwt>
<pdfrwt beam="1">  1        1 0.13475740E-01 0.13257645E+03</pdfrwt>
<pdfrwt beam="2">  1       -1 0.24941115E-01 0.13257645E+03</pdfrwt>
<totfact> 0.57048004E+03</totfact>
</mgrwt>
</event>
<event>
 8    1  0.3629925E-004  0.1254342E+03  0.7546771E-02  0.1249913E+00
          2   -1    0    0  501    0  0.00000000000E+00  0.00000000000E+00  0.35726191272E+03  0.35726191272E+03  0.00000000000E+00 0. -1.
         -2   -1    0    0    0  501 -0.00000000000E+00 -0.00000000000E+00 -0.67734525913E+02  0.67734525913E+02  0.00000000000E+00 0.  1.
         25    2    1    2    0    0  0.93480595631E+01 -0.45115878978E+01  0.30707851956E+03  0.33170912795E+03  0.12500395092E+03 0.  0.
         23    2    1    2    0    0 -0.93480595631E+01  0.45115878978E+01 -0.17551132754E+02  0.93287310686E+02  0.91031529873E+02 0.  0.
          5    1    4    4  502    0  0.35492737047E+02  0.16870165820E+01  0.13683913892E+02  0.38365608393E+02  0.47000000000E+01 0. -1.
         -5    1    4    4    0  502 -0.44840796610E+02  0.28245713159E+01 -0.31235046646E+02  0.54921702292E+02  0.47000000000E+01 0.  1.
          5    1    3    3  503    0 -0.31564561732E+02  0.21140760949E+02  0.26420156130E+03  0.26696031227E+03  0.47000000000E+01 0. -1.
         -5    1    3    3    0  503  0.40912621296E+02 -0.25652348847E+02  0.42876958258E+02  0.64748815681E+02  0.47000000000E+01 0. -1.
<mgrwt>
<rscale>  0 0.11596077E+03</rscale>
<asrwt>0</asrwt>
<pdfrwt beam="1">  1        2 0.54963370E-01 0.12543416E+03</pdfrwt>
<pdfrwt beam="2">  1       -2 0.10420696E-01 0.12543416E+03</pdfrwt>
<totfact> 0.53583003E+03</totfact>
</mgrwt>
</event>
<event>
 8    1  0.3629925E-004  0.2176466E+03  0.7546771E-02  0.1139023E+00
          1   -1    0    0  501    0  0.00000000000E+00  0.00000000000E+00  0.87153803572E+03  0.87153803572E+03  0.00000000000E+00 0. -1.
         -1   -1    0    0    0  501 -0.00000000000E+00 -0.00000000000E+00 -0.50256968323E+02  0.50256968323E+02  0.00000000000E+00 0.  1.
         25    2    1    2    0    0  0.16284035446E+03 -0.72307734703E+02  0.44656270009E+03  0.49677790153E+03  0.12499859520E+03 0.  0.
         23    2    1    2    0    0 -0.16284035446E+03  0.72307734703E+02  0.37471836730E+03  0.42501710251E+03  0.92088506825E+02 0.  0.
          5    1    4    4  502    0 -0.70511758614E+02  0.45449627004E+02  0.26999814879E+03  0.28276963600E+03  0.47000000000E+01 0. -1.
         -5    1    3    3    0  503  0.10200020377E+03 -0.93643424732E+02  0.21033622342E+03  0.25186613398E+03  0.47000000000E+01 0.  1.
          5    1    3    3  503    0  0.60840150687E+02  0.21335690029E+02  0.23622647667E+03  0.24491176755E+03  0.47000000000E+01 0.  1.
         -5    1    4    4    0  502 -0.92328595846E+02  0.26858107700E+02  0.10472021852E+03  0.14224746650E+03  0.47000000000E+01 0.  1.
<mgrwt>
<rscale>  0 0.21324400E+03</rscale>
<asrwt>0</asrwt>
<pdfrwt beam="1">  1        1 0.13408276E+00 0.21764659E+03</pdfrwt>
<pdfrwt beam="2">  1       -1 0.77318419E-02 0.21764659E+03</pdfrwt>
<totfact> 0.18214978E+03</totfact>
</mgrwt>
</event>
<event>
 8    1  0.3629925E-004  0.1352539E+03  0.7546771E-02  0.1231692E+00
         -2   -1    0    0    0  501 -0.00000000000E+00  0.00000000000E+00  0.48881306998E+02  0.48881306998E+02  0.00000000000E+00 0.  1.
          2   -1    0    0  501    0  0.00000000000E+00 -0.00000000000E+00 -0.36998618818E+03  0.36998618818E+03  0.00000000000E+00 0. -1.
         25    2    1    2    0    0 -0.12638858822E+02 -0.50079308352E+02 -0.83920124145E+02  0.15917348489E+03  0.12500373266E+03 0.  0.
         23    2    1    2    0    0  0.12638858822E+02  0.50079308352E+02 -0.23718475703E+03  0.25969401028E+03  0.92285925961E+02 0.  0.
          5    1    4    4  502    0 -0.84238799820E+01  0.19346036921E+02 -0.22020825497E+01  0.21729474592E+02  0.47000000000E+01 0.  1.
         -5    1    4    4    0  502  0.21062738804E+02  0.30733271431E+02 -0.23498267448E+03  0.23796453569E+03  0.47000000000E+01 0. -1.
          5    1    3    3  503    0 -0.37873265418E+02  0.12080608084E+02 -0.82736824915E+02  0.91911900873E+02  0.47000000000E+01 0.  1.
         -5    1    3    3    0  503  0.25234406596E+02 -0.62159916436E+02 -0.11832992301E+01  0.67261584018E+02  0.47000000000E+01 0.  1.
<mgrwt>
<rscale>  0 0.12718583E+03</rscale>
<asrwt>0</asrwt>
<pdfrwt beam="1">  1        2 0.56920953E-01 0.13525388E+03</pdfrwt>
<pdfrwt beam="2">  1       -2 0.75202010E-02 0.13525388E+03</pdfrwt>
<totfact> 0.86148188E+03</totfact>
</mgrwt>
</event>
<event>
 8    1  0.3629925E-004  0.1278915E+03  0.7546771E-02  0.1249997E+00
         -1   -1    0    0    0  501 -0.00000000000E+00  0.00000000000E+00  0.27081593105E+02  0.27081593105E+02  0.00000000000E+00 0.  1.
          1   -1    0    0  501    0  0.00000000000E+00 -0.00000000000E+00 -0.44572057930E+03  0.44572057930E+03  0.00000000000E+00 0. -1.
         25    2    1    2    0    0  0.18806732189E+02 -0.19417919821E+02 -0.29976566164E+03  0.32590748577E+03  0.12500195437E+03 0.  0.
         23    2    1    2    0    0 -0.18806732189E+02  0.19417919821E+02 -0.11887332455E+03  0.14689468663E+03  0.81953846066E+02 0.  0.
          5    1    4    4  502    0 -0.36663580939E+02  0.39227673573E+02 -0.10089474059E+03  0.11438910446E+03  0.47000000000E+01 0. -1.
         -5    1    3    3    0  503  0.66357595083E+02 -0.32093987796E+02 -0.13498840309E+03  0.15387434304E+03  0.47000000000E+01 0. -1.
          5    1    3    3  503    0 -0.47550862893E+02  0.12676067974E+02 -0.16477725855E+03  0.17203314273E+03  0.47000000000E+01 0. -1.
         -5    1    4    4    0  502  0.17856848750E+02 -0.19809753752E+02 -0.17978583968E+02  0.32505582175E+02  0.47000000000E+01 0.  1.
<mgrwt>
<rscale>  0 0.11591250E+03</rscale>
<asrwt>0</asrwt>
<pdfrwt beam="1">  1        1 0.68572396E-01 0.12789151E+03</pdfrwt>
<pdfrwt beam="2">  1       -1 0.41663990E-02 0.12789151E+03</pdfrwt>
<totfact> 0.11490585E+04</totfact>
</mgrwt>
</event>
<event>
 8    1  0.3629925E-004  0.1356099E+03  0.7546771E-02  0.1231345E+00
          2   -1    0    0  501    0  0.00000000000E+00  0.00000000000E+00  0.28884443043E+03  0.28884443043E+03  0.00000000000E+00 0. -1.
         -2   -1    0    0    0  501 -0.00000000000E+00 -0.00000000000E+00 -0.56770916708E+02  0.56770916708E+02  0.00000000000E+00 0.  1.
         25    2    1    2    0    0  0.48458777486E+02  0.20403372615E+02  0.18635011779E+03  0.23046996204E+03  0.12500194508E+03 0.  0.
         23    2    1    2    0    0 -0.48458777486E+02 -0.20403372615E+02  0.45723395935E+02  0.11514538510E+03  0.91669406264E+02 0.  0.
          5    1    3    3  502    0 -0.24180180382E+02  0.84901661135E+01 -0.39711621458E+01  0.26355723718E+02  0.47000000000E+01 0. -1.
         -5    1    4    4    0  503 -0.12929229648E+02 -0.28700148065E+02 -0.21573956376E+02  0.38449825383E+02  0.47000000000E+01 0.  1.
          5    1    4    4  503    0 -0.35529547839E+02  0.82967754500E+01  0.67297352311E+02  0.76695559719E+02  0.47000000000E+01 0. -1.
         -5    1    3    3    0  502  0.72638957868E+02  0.11913206501E+02  0.19032127994E+03  0.20411423832E+03  0.47000000000E+01 0. -1.
<mgrwt>
<rscale>  0 0.12741325E+03</rscale>
<asrwt>0</asrwt>
<pdfrwt beam="1">  1        2 0.44437604E-01 0.13560987E+03</pdfrwt>
<pdfrwt beam="2">  1       -2 0.87339874E-02 0.13560987E+03</pdfrwt>
<totfact> 0.88910432E+03</totfact>
</mgrwt>
</event>
<event>
 8    1  0.3629925E-004  0.1299403E+03  0.7546771E-02  0.1241623E+00
         -4   -1    0    0    0  501 -0.00000000000E+00  0.00000000000E+00  0.40651407126E+03  0.40651407126E+03  0.00000000000E+00 0. -1.
          4   -1    0    0  501    0  0.00000000000E+00 -0.00000000000E+00 -0.34536129989E+02  0.34536129989E+02  0.00000000000E+00 0.  1.
         25    2    1    2    0    0 -0.26949315951E+02 -0.23105360627E+02  0.14877249072E+03  0.19752908989E+03  0.12499745612E+03 0.  0.
         23    2    1    2    0    0  0.26949315951E+02  0.23105360627E+02  0.22320545055E+03  0.24352111136E+03  0.90673784539E+02 0.  0.
          5    1    4    4  502    0 -0.31560743791E+02 -0.48206269711E+01  0.68903783457E+02  0.76086400676E+02  0.47000000000E+01 0. -1.
         -5    1    4    4    0  502  0.58510059742E+02  0.27925987598E+02  0.15430166709E+03  0.16743471068E+03  0.47000000000E+01 0.  1.
          5    1    3    3  503    0 -0.76747076403E+02 -0.19043772552E+02  0.82147647281E+02  0.11411881950E+03  0.47000000000E+01 0. -1.
         -5    1    3    3    0  503  0.49797760452E+02 -0.40615880755E+01  0.66624843438E+02  0.83410270392E+02  0.47000000000E+01 0. -1.
<mgrwt>
<rscale>  0 0.12089815E+03</rscale>
<asrwt>0</asrwt>
<pdfrwt beam="1">  1        4 0.53132511E-02 0.12994032E+03</pdfrwt>
<pdfrwt beam="2">  1       -4 0.62540623E-01 0.12994032E+03</pdfrwt>
<totfact> 0.86213381E+02</totfact>
</mgrwt>
</event>
<event>
 8    1  0.3629925E-004  0.2064528E+03  0.7546771E-02  0.1148304E+00
          1   -1    0    0  501    0  0.00000000000E+00  0.00000000000E+00  0.21282285831E+04  0.21282285831E+04  0.00000000000E+00 0. -1.
         -1   -1    0    0    0  501 -0.00000000000E+00 -0.00000000000E+00 -0.18446121654E+02  0.18446121654E+02  0.00000000000E+00 0.  1.
         25    2    1    2    0    0  0.19257410378E+02  0.16317672440E+03  0.12024369022E+04  0.12200316626E+04  0.12500105093E+03 0.  0.
         23    2    1    2    0    0 -0.19257410378E+02 -0.16317672440E+03  0.90734555925E+03  0.92664304216E+03  0.91618079274E+02 0.  0.
          5    1    4    4  502    0 -0.32022005018E+02 -0.10419755461E+02  0.19923093718E+03  0.20211144559E+03  0.47000000000E+01 0. -1.
         -5    1    3    3    0  503  0.44984597051E+02  0.54291374195E+02  0.21613510068E+03  0.22739313760E+03  0.47000000000E+01 0. -1.
          5    1    3    3  503    0 -0.25727186673E+02  0.10888535020E+03  0.98630180147E+03  0.99263852495E+03  0.47000000000E+01 0. -1.
         -5    1    4    4    0  502  0.12764594640E+02 -0.15275696893E+03  0.70811462207E+03  0.72453159657E+03  0.47000000000E+01 0.  1.
<mgrwt>
<rscale>  0 0.20171014E+03</rscale>
<asrwt>0</asrwt>
<pdfrwt beam="1">  1        1 0.32741959E+00 0.20645279E+03</pdfrwt>
<pdfrwt beam="2">  1       -1 0.28378666E-02 0.20645279E+03</pdfrwt>
<totfact> 0.11464928E+03</totfact>
</mgrwt>
</event>
<event>
 8    1  0.3629925E-004  0.1415725E+03  0.7546771E-02  0.1222453E+00
         -1   -1    0    0    0  501 -0.00000000000E+00  0.00000000000E+00  0.15088974752E+02  0.15088974752E+02  0.00000000000E+00 0.  1.
          1   -1    0    0  501    0  0.00000000000E+00 -0.00000000000E+00 -0.10641666745E+04  0.10641666745E+04  0.00000000000E+00 0. -1.
         25    2    1    2    0    0 -0.16931407910E+02  0.64262504388E+02 -0.56761675198E+03  0.58500559306E+03  0.12500569885E+03 0.  0.
         23    2    1    2    0    0  0.16931407910E+02 -0.64262504388E+02 -0.48146094775E+03  0.49425005617E+03  0.89789374481E+02 0.  0.
          5    1    3    3  502    0 -0.59901898843E+02  0.74349660717E+02 -0.34454567254E+03  0.35756107171E+03  0.47000000000E+01 0. -1.
         -5    1    4    4    0  503 -0.14653953808E+02 -0.13749908340E+02 -0.19345757627E+02  0.28286864085E+02  0.47000000000E+01 0.  1.
          5    1    4    4  503    0  0.31585361718E+02 -0.50512596048E+02 -0.46211519012E+03  0.46596319208E+03  0.47000000000E+01 0. -1.
         -5    1    3    3    0  502  0.42970490933E+02 -0.10087156329E+02 -0.22307107943E+03  0.22744452135E+03  0.47000000000E+01 0. -1.
<mgrwt>
<rscale>  0 0.13343025E+03</rscale>
<asrwt>0</asrwt>
<pdfrwt beam="1">  1        1 0.16371798E+00 0.14157248E+03</pdfrwt>
<pdfrwt beam="2">  1       -1 0.23213804E-02 0.14157248E+03</pdfrwt>
<totfact> 0.76726811E+03</totfact>
</mgrwt>
</event>
<event>
 8    1  0.3629925E-004  0.1341714E+03  0.7546771E-02  0.1234553E+00
         -1   -1    0    0    0  501 -0.00000000000E+00  0.00000000000E+00  0.10662190368E+03  0.10662190368E+03  0.00000000000E+00 0.  1.
          1   -1    0    0  501    0  0.00000000000E+00 -0.00000000000E+00 -0.13763066896E+03  0.13763066896E+03  0.00000000000E+00 0. -1.
         25    2    1    2    0    0 -0.47216237763E+02  0.12155767025E+02  0.91634194896E+01  0.13448396909E+03  0.12499933561E+03 0.  0.
         23    2    1    2    0    0  0.47216237763E+02 -0.12155767025E+02 -0.40172184767E+02  0.10976860356E+03  0.89767511485E+02 0.  0.
          5    1    4    4  502    0  0.50557653784E+02  0.15276673484E+02 -0.56373134786E+02  0.77391688407E+02  0.47000000000E+01 0. -1.
         -5    1    4    4    0  502 -0.33414160206E+01 -0.27432440510E+02  0.16200950019E+02  0.32376915154E+02  0.47000000000E+01 0.  1.
          5    1    3    3  503    0 -0.68264537641E+02 -0.23236901003E+02  0.40211332602E+02  0.82698500212E+02  0.47000000000E+01 0. -1.
         -5    1    3    3    0  503  0.21048299878E+02  0.35392668029E+02 -0.31047913113E+02  0.51785468875E+02  0.47000000000E+01 0. -1.
<mgrwt>
<rscale>  0 0.12533095E+03</rscale>
<asrwt>0</asrwt>
<pdfrwt beam="1">  1        1 0.21173949E-01 0.13417142E+03</pdfrwt>
<pdfrwt beam="2">  1       -1 0.16403370E-01 0.13417142E+03</pdfrwt>
<totfact> 0.62677482E+03</totfact>
</mgrwt>
</event>
<event>
 8    1  0.3629925E-004  0.1284140E+03  0.7546771E-02  0.1244467E+00
         -1   -1    0    0    0  501 -0.00000000000E+00  0.00000000000E+00  0.14326458499E+03  0.14326458499E+03  0.00000000000E+00 0.  1.
          1   -1    0    0  501    0  0.00000000000E+00 -0.00000000000E+00 -0.24779243816E+03  0.24779243816E+03  0.00000000000E+00 0. -1.
         25    2    1    2    0    0 -0.23654475325E+02 -0.17501857254E+02 -0.21174381700E+03  0.24764008490E+03  0.12499727357E+03 0.  0.
         23    2    1    2    0    0  0.23654475325E+02  0.17501857254E+02  0.10721596383E+03  0.14341693825E+03  0.90594183403E+02 0.  0.
          5    1    4    4  502    0  0.38953436557E+02  0.39579957753E+02  0.33991563433E+02  0.65279856464E+02  0.47000000000E+01 0. -1.
         -5    1    4    4    0  502 -0.15298961232E+02 -0.22078100499E+02  0.73224400395E+02  0.78137081784E+02  0.47000000000E+01 0.  1.
          5    1    3    3  503    0 -0.60282370238E+02 -0.46319716405E+02 -0.16363555411E+03  0.18049422389E+03  0.47000000000E+01 0. -1.
         -5    1    3    3    0  503  0.36627894913E+02  0.28817859151E+02 -0.48108262895E+02  0.67145861008E+02  0.47000000000E+01 0. -1.
<mgrwt>
<rscale>  0 0.11917336E+03</rscale>
<asrwt>0</asrwt>
<pdfrwt beam="1">  1        1 0.38121913E-01 0.12841405E+03</pdfrwt>
<pdfrwt beam="2">  1       -1 0.22040705E-01 0.12841405E+03</pdfrwt>
<totfact> 0.18736888E+03</totfact>
</mgrwt>
</event>
<event>
 8    1  0.3629925E-004  0.1743248E+03  0.7546771E-02  0.1179526E+00
         -1   -1    0    0    0  501 -0.00000000000E+00  0.00000000000E+00  0.23983344912E+02  0.23983344912E+02  0.00000000000E+00 0.  1.
          1   -1    0    0  501    0  0.00000000000E+00 -0.00000000000E+00 -0.11087275169E+04  0.11087275169E+04  0.00000000000E+00 0. -1.
         25    2    1    2    0    0 -0.55338675165E+02  0.10818619812E+03 -0.58029396063E+03  0.60591272339E+03  0.12499010037E+03 0.  0.
         23    2    1    2    0    0  0.55338675165E+02 -0.10818619812E+03 -0.50445021134E+03  0.52679813840E+03  0.90992529765E+02 0.  0.
          5    1    3    3  502    0 -0.58516200775E+02 -0.65498843369E+01 -0.21639525687E+03  0.22431238025E+03  0.47000000000E+01 0. -1.
         -5    1    3    3    0  502  0.31775256091E+01  0.11473608245E+03 -0.36389870376E+03  0.38160034314E+03  0.47000000000E+01 0. -1.
          5    1    4    4  503    0  0.18332584917E+02 -0.63622581361E+02 -0.41399491466E+03  0.41928247744E+03  0.47000000000E+01 0. -1.
         -5    1    4    4    0  503  0.37006090248E+02 -0.44563616756E+02 -0.90455296680E+02  0.10751566096E+03  0.47000000000E+01 0.  1.
<mgrwt>
<rscale>  0 0.16840094E+03</rscale>
<asrwt>0</asrwt>
<pdfrwt beam="1">  1        1 0.17057346E+00 0.17432483E+03</pdfrwt>
<pdfrwt beam="2">  1       -1 0.36897455E-02 0.17432483E+03</pdfrwt>
<totfact> 0.36519151E+03</totfact>
</mgrwt>
</event>
<event>
 8    1  0.3629925E-004  0.2001258E+03  0.7546771E-02  0.1153999E+00
         -4   -1    0    0    0  501 -0.00000000000E+00  0.00000000000E+00  0.98300398848E+03  0.98300398848E+03  0.00000000000E+00 0.  1.
          4   -1    0    0  501    0  0.00000000000E+00 -0.00000000000E+00 -0.44515712782E+02  0.44515712782E+02  0.00000000000E+00 0. -1.
         25    2    1    2    0    0 -0.82767282163E+02  0.13259733114E+03  0.27627173326E+03  0.34113985485E+03  0.12497141570E+03 0.  0.
         23    2    1    2    0    0  0.82767282163E+02 -0.13259733114E+03  0.66221654243E+03  0.68637984641E+03  0.90299885213E+02 0.  0.
          5    1    4    4  502    0  0.78619802036E+02 -0.11166153890E+03  0.64274644525E+03  0.65711068735E+03  0.47000000000E+01 0. -1.
         -5    1    4    4    0  502  0.41474801269E+01 -0.20935792244E+02  0.19470097180E+02  0.29269159067E+02  0.47000000000E+01 0.  1.
          5    1    3    3  503    0  0.17286809022E+02  0.88974334888E+02  0.13112297872E+03  0.15946971996E+03  0.47000000000E+01 0.  1.
         -5    1    3    3    0  503 -0.10005409119E+03  0.43622996252E+02  0.14514875454E+03  0.18167013489E+03  0.47000000000E+01 0.  1.
<mgrwt>
<rscale>  0 0.19503254E+03</rscale>
<asrwt>0</asrwt>
<pdfrwt beam="1">  1        4 0.68485720E-02 0.20012579E+03</pdfrwt>
<pdfrwt beam="2">  1       -4 0.15123137E+00 0.20012579E+03</pdfrwt>
<totfact> 0.79008264E+01</totfact>
</mgrwt>
</event>
<event>
 8    1  0.3629925E-004  0.1860737E+03  0.7546771E-02  0.1167314E+00
          2   -1    0    0  501    0  0.00000000000E+00  0.00000000000E+00  0.22442624865E+04  0.22442624865E+04  0.00000000000E+00 0.  1.
         -2   -1    0    0    0  501 -0.00000000000E+00 -0.00000000000E+00 -0.14860106399E+02  0.14860106399E+02  0.00000000000E+00 0. -1.
         25    2    1    2    0    0 -0.13959009905E+01 -0.13783280319E+03  0.86378223396E+03  0.88359672616E+03  0.12499438630E+03 0.  0.
         23    2    1    2    0    0  0.13959009905E+01  0.13783280319E+03  0.13656201462E+04  0.13755258667E+04  0.90295051596E+02 0.  0.
          5    1    4    4  502    0 -0.41857844191E+02  0.94073309969E+02  0.85679017624E+03  0.86296776468E+03  0.47000000000E+01 0. -1.
         -5    1    3    3    0  503 -0.36221583949E+02 -0.13325828013E+03  0.52183720101E+03  0.53982027261E+03  0.47000000000E+01 0. -1.
          5    1    3    3  503    0  0.34825682959E+02 -0.45745230564E+01  0.34194503295E+03  0.34377645355E+03  0.47000000000E+01 0. -1.
         -5    1    4    4    0  502  0.43253745181E+02  0.43759493221E+02  0.50882996991E+03  0.51255810207E+03  0.47000000000E+01 0.  1.
<mgrwt>
<rscale>  0 0.18050575E+03</rscale>
<asrwt>0</asrwt>
<pdfrwt beam="1">  1        2 0.34527088E+00 0.18607371E+03</pdfrwt>
<pdfrwt beam="2">  1       -2 0.22861720E-02 0.18607371E+03</pdfrwt>
<totfact> 0.35060913E+03</totfact>
</mgrwt>
</event>
<event>
 8    1  0.3629925E-004  0.1272456E+03  0.7546771E-02  0.1244700E+00
          1   -1    0    0  501    0  0.00000000000E+00  0.00000000000E+00  0.17997890411E+03  0.17997890411E+03  0.00000000000E+00 0. -1.
         -1   -1    0    0    0  501 -0.00000000000E+00 -0.00000000000E+00 -0.16308096946E+03  0.16308096946E+03  0.00000000000E+00 0.  1.
         25    2    1    2    0    0 -0.14739920587E+02  0.18680241318E+02 -0.12007985023E+03  0.17495887052E+03  0.12500087707E+03 0.  0.
         23    2    1    2    0    0  0.14739920587E+02 -0.18680241318E+02  0.13697778488E+03  0.16810100305E+03  0.94492417687E+02 0.  0.
          5    1    3    3  502    0  0.34473004979E+02 -0.37932379312E+02 -0.40483278718E+02  0.65484649562E+02  0.47000000000E+01 0. -1.
         -5    1    4    4    0  503 -0.38254343191E+02  0.22303672856E+01  0.40449993374E+02  0.55916556360E+02  0.47000000000E+01 0.  1.
          5    1    4    4  503    0  0.52994263778E+02 -0.20910608603E+02  0.96527791506E+02  0.11218444669E+03  0.47000000000E+01 0. -1.
         -5    1    3    3    0  502 -0.49212925566E+02  0.56612620630E+02 -0.79596571513E+02  0.10947422096E+03  0.47000000000E+01 0. -1.
<mgrwt>
<rscale>  0 0.11903347E+03</rscale>
<asrwt>0</asrwt>
<pdfrwt beam="1">  1        1 0.27689062E-01 0.12724557E+03</pdfrwt>
<pdfrwt beam="2">  1       -1 0.25089380E-01 0.12724557E+03</pdfrwt>
<totfact> 0.22537384E+03</totfact>
</mgrwt>
</event>
<event>
 8    1  0.3629925E-004  0.1267307E+03  0.7546771E-02  0.1246771E+00
         -2   -1    0    0    0  501 -0.00000000000E+00  0.00000000000E+00  0.12190230724E+03  0.12190230724E+03  0.00000000000E+00 0.  1.
          2   -1    0    0  501    0  0.00000000000E+00 -0.00000000000E+00 -0.10105483179E+03  0.10105483179E+03  0.00000000000E+00 0. -1.
         25    2    1    2    0    0 -0.12345601734E+01 -0.20853566658E+02  0.35557062857E+01  0.12678058013E+03  0.12499710824E+03 0.  0.
         23    2    1    2    0    0  0.12345601734E+01  0.20853566658E+02  0.17291769173E+02  0.96176558903E+02  0.92274209940E+02 0.  0.
          5    1    3    3  502    0 -0.12098054517E+02  0.51153949789E+02  0.92721617333E+01  0.53583136203E+02  0.47000000000E+01 0. -1.
         -5    1    3    3    0  502  0.10863494344E+02 -0.72007516447E+02 -0.57164554476E+01  0.73197443924E+02  0.47000000000E+01 0. -1.
          5    1    4    4  503    0 -0.17630926017E+02 -0.24839346988E+02 -0.17594790634E+02  0.35489567037E+02  0.47000000000E+01 0. -1.
         -5    1    4    4    0  503  0.18865486190E+02  0.45692913646E+02  0.34886559806E+02  0.60686991866E+02  0.47000000000E+01 0.  1.
<mgrwt>
<rscale>  0 0.11779989E+03</rscale>
<asrwt>0</asrwt>
<pdfrwt beam="1">  1        2 0.15546897E-01 0.12673071E+03</pdfrwt>
<pdfrwt beam="2">  1       -2 0.18754201E-01 0.12673071E+03</pdfrwt>
<totfact> 0.82236656E+03</totfact>
</mgrwt>
</event>
<event>
 8    1  0.3629925E-004  0.1326800E+03  0.7546771E-02  0.1237136E+00
          1   -1    0    0  501    0  0.00000000000E+00  0.00000000000E+00  0.34602817410E+02  0.34602817410E+02  0.00000000000E+00 0.  1.
         -1   -1    0    0    0  501 -0.00000000000E+00 -0.00000000000E+00 -0.39198643260E+03  0.39198643260E+03  0.00000000000E+00 0. -1.
         25    2    1    2    0    0 -0.99502274199E+01 -0.43365265018E+02 -0.20777242712E+03  0.24652251550E+03  0.12499766374E+03 0.  0.
         23    2    1    2    0    0  0.99502274199E+01  0.43365265018E+02 -0.14961118807E+03  0.18006673451E+03  0.89782893951E+02 0.  0.
          5    1    4    4  502    0  0.24869833320E+02  0.29564221158E+02 -0.15392174508E+03  0.15876569337E+03  0.47000000000E+01 0. -1.
         -5    1    4    4    0  502 -0.14919605900E+02  0.13801043860E+02  0.43105570155E+01  0.21301041139E+02  0.47000000000E+01 0.  1.
          5    1    3    3  503    0  0.39545789159E+02  0.24039647653E+02 -0.97678532200E+02  0.10818946230E+03  0.47000000000E+01 0.  1.
         -5    1    3    3    0  503 -0.49496016579E+02 -0.67404912671E+02 -0.11009389492E+03  0.13833305320E+03  0.47000000000E+01 0.  1.
<mgrwt>
<rscale>  0 0.12368684E+03</rscale>
<asrwt>0</asrwt>
<pdfrwt beam="1">  1        1 0.53235102E-02 0.13267995E+03</pdfrwt>
<pdfrwt beam="2">  1       -1 0.60305607E-01 0.13267995E+03</pdfrwt>
<totfact> 0.41974978E+03</totfact>
</mgrwt>
</event>
<event>
 8    1  0.3629925E-004  0.1395008E+03  0.7546771E-02  0.1225587E+00
          1   -1    0    0  501    0  0.00000000000E+00  0.00000000000E+00  0.11046049249E+04  0.11046049249E+04  0.00000000000E+00 0. -1.
         -1   -1    0    0    0  501 -0.00000000000E+00 -0.00000000000E+00 -0.14229453957E+02  0.14229453957E+02  0.00000000000E+00 0.  1.
         25    2    1    2    0    0  0.45930937156E+02  0.41552957636E+02  0.67791810192E+03  0.69212241348E+03  0.12499673217E+03 0.  0.
         23    2    1    2    0    0 -0.45930937156E+02 -0.41552957636E+02  0.41245736901E+03  0.42671196537E+03  0.90142780403E+02 0.  0.
          5    1    3    3  502    0  0.55514793690E+02  0.70109248624E+02  0.62218295152E+03  0.62859439564E+03  0.47000000000E+01 0.  1.
         -5    1    3    3    0  502 -0.95838565345E+01 -0.28556290988E+02  0.55735150395E+02  0.63528017840E+02  0.47000000000E+01 0.  1.
          5    1    4    4  503    0  0.24827796094E+02  0.31748961302E+01  0.10227867209E+03  0.10540168969E+03  0.47000000000E+01 0. -1.
         -5    1    4    4    0  503 -0.70758733249E+02 -0.44727853766E+02  0.31017869692E+03  0.32131027568E+03  0.47000000000E+01 0.  1.
<mgrwt>
<rscale>  0 0.13126779E+03</rscale>
<asrwt>0</asrwt>
<pdfrwt beam="1">  1        1 0.16993915E+00 0.13950083E+03</pdfrwt>
<pdfrwt beam="2">  1       -1 0.21891476E-02 0.13950083E+03</pdfrwt>
<totfact> 0.78131044E+03</totfact>
</mgrwt>
</event>
<event>
 8    1  0.3629925E-004  0.1347119E+03  0.7546771E-02  0.1232568E+00
          2   -1    0    0  501    0  0.00000000000E+00  0.00000000000E+00  0.87541936069E+02  0.87541936069E+02  0.00000000000E+00 0.  1.
         -2   -1    0    0    0  501 -0.00000000000E+00 -0.00000000000E+00 -0.16477428085E+03  0.16477428085E+03  0.00000000000E+00 0. -1.
         25    2    1    2    0    0  0.46206258142E+02  0.19659753238E+02 -0.50279662892E+02  0.14378921198E+03  0.12500307514E+03 0.  0.
         23    2    1    2    0    0 -0.46206258142E+02 -0.19659753238E+02 -0.26952681890E+02  0.10852700494E+03  0.92358754597E+02 0.  0.
          5    1    3    3  502    0 -0.13805414587E+02  0.52698239962E+02 -0.51498295277E+02  0.75112305140E+02  0.47000000000E+01 0. -1.
         -5    1    4    4    0  503 -0.67152395301E+02 -0.81209215100E+01  0.54026972125E+01  0.68019649353E+02  0.47000000000E+01 0.  1.
          5    1    4    4  503    0  0.20946137159E+02 -0.11538831728E+02 -0.32355379103E+02  0.40507355584E+02  0.47000000000E+01 0. -1.
         -5    1    3    3    0  502  0.60011672729E+02 -0.33038486724E+02  0.12186323850E+01  0.68676906844E+02  0.47000000000E+01 0. -1.
<mgrwt>
<rscale>  0 0.12661434E+03</rscale>
<asrwt>0</asrwt>
<pdfrwt beam="1">  1        2 0.13467990E-01 0.13471189E+03</pdfrwt>
<pdfrwt beam="2">  1       -2 0.25349889E-01 0.13471189E+03</pdfrwt>
<totfact> 0.58387359E+03</totfact>
</mgrwt>
</event>
<event>
 8    1  0.3629925E-004  0.1654810E+03  0.7546771E-02  0.1190094E+00
         -1   -1    0    0    0  501 -0.00000000000E+00  0.00000000000E+00  0.36980824717E+02  0.36980824717E+02  0.00000000000E+00 0.  1.
          1   -1    0    0  501    0  0.00000000000E+00 -0.00000000000E+00 -0.77506305616E+03  0.77506305616E+03  0.00000000000E+00 0. -1.
         25    2    1    2    0    0 -0.52200465691E+01 -0.10830650434E+03 -0.21980703247E+03  0.27513465966E+03  0.12500560649E+03 0.  0.
         23    2    1    2    0    0  0.52200465691E+01  0.10830650434E+03 -0.51827519897E+03  0.53690922121E+03  0.88908842025E+02 0.  0.
          5    1    3    3  502    0  0.51181093516E+02 -0.17217148494E+02 -0.46930086949E+02  0.71696984573E+02  0.47000000000E+01 0. -1.
         -5    1    3    3    0  502 -0.56401140085E+02 -0.91089355848E+02 -0.17287694552E+03  0.20343767509E+03  0.47000000000E+01 0. -1.
          5    1    4    4  503    0 -0.26523749368E+02  0.92645303967E+02 -0.44572642430E+03  0.45604911682E+03  0.47000000000E+01 0. -1.
         -5    1    4    4    0  503  0.31743795937E+02  0.15661200375E+02 -0.72548774665E+02  0.80860104397E+02  0.47000000000E+01 0.  1.
<mgrwt>
<rscale>  0 0.15876889E+03</rscale>
<asrwt>0</asrwt>
<pdfrwt beam="1">  1        1 0.11924045E+00 0.16548096E+03</pdfrwt>
<pdfrwt beam="2">  1       -1 0.56893587E-02 0.16548096E+03</pdfrwt>
<totfact> 0.34487865E+03</totfact>
</mgrwt>
</event>
<event>
 8    1  0.3629925E-004  0.1807066E+03  0.7546771E-02  0.1172658E+00
         -1   -1    0    0    0  501 -0.00000000000E+00  0.00000000000E+00  0.26003293683E+02  0.26003293683E+02  0.00000000000E+00 0.  1.
          1   -1    0    0  501    0  0.00000000000E+00 -0.00000000000E+00 -0.11175377885E+04  0.11175377885E+04  0.00000000000E+00 0. -1.
         25    2    1    2    0    0 -0.10783819453E+03 -0.73485490529E+02 -0.53583868044E+03  0.56548914268E+03  0.12500274201E+03 0.  0.
         23    2    1    2    0    0  0.10783819453E+03  0.73485490529E+02 -0.55569581437E+03  0.57805193950E+03  0.91197659702E+02 0.  0.
          5    1    3    3  502    0 -0.50828284611E+02 -0.48316159218E+01 -0.50409345950E+02  0.71903068001E+02  0.47000000000E+01 0.  1.
         -5    1    4    4    0  503  0.54933287591E+02  0.87450215908E+02 -0.33259353120E+03  0.34828975487E+03  0.47000000000E+01 0.  1.
          5    1    4    4  503    0  0.52904906940E+02 -0.13964725379E+02 -0.22310228316E+03  0.22976218463E+03  0.47000000000E+01 0. -1.
         -5    1    3    3    0  502 -0.57009909919E+02 -0.68653874607E+02 -0.48542933449E+03  0.49358607468E+03  0.47000000000E+01 0.  1.
<mgrwt>
<rscale>  0 0.17507319E+03</rscale>
<asrwt>0</asrwt>
<pdfrwt beam="1">  1        1 0.17192887E+00 0.18070661E+03</pdfrwt>
<pdfrwt beam="2">  1       -1 0.40005072E-02 0.18070661E+03</pdfrwt>
<totfact> 0.31973210E+03</totfact>
</mgrwt>
</event>
<event>
 8    1  0.3629925E-004  0.1262309E+03  0.7546771E-02  0.1248018E+00
          1   -1    0    0  501    0  0.00000000000E+00  0.00000000000E+00  0.35490942189E+02  0.35490942189E+02  0.00000000000E+00 0. -1.
         -1   -1    0    0    0  501 -0.00000000000E+00 -0.00000000000E+00 -0.34028679186E+03  0.34028679186E+03  0.00000000000E+00 0.  1.
         25    2    1    2    0    0  0.17975529787E+01 -0.17490494992E+02 -0.16746383587E+03  0.20971021275E+03  0.12500035359E+03 0.  0.
         23    2    1    2    0    0 -0.17975529787E+01  0.17490494992E+02 -0.13733201380E+03  0.16606752130E+03  0.91701641224E+02 0.  0.
          5    1    3    3  502    0  0.41191347285E+02  0.31051566856E+02 -0.33182029114E+02  0.61514745805E+02  0.47000000000E+01 0. -1.
         -5    1    3    3    0  502 -0.39393794306E+02 -0.48542061848E+02 -0.13428180676E+03  0.14819546695E+03  0.47000000000E+01 0. -1.
          5    1    4    4  503    0 -0.93024475433E+01 -0.22821859679E+02 -0.26798832860E+01  0.25231816897E+02  0.47000000000E+01 0. -1.
         -5    1    4    4    0  503  0.75048945646E+01  0.40312354670E+02 -0.13465213052E+03  0.14083570440E+03  0.47000000000E+01 0.  1.
<mgrwt>
<rscale>  0 0.11706537E+03</rscale>
<asrwt>0</asrwt>
<pdfrwt beam="1">  1        1 0.54601446E-02 0.12623089E+03</pdfrwt>
<pdfrwt beam="2">  1       -1 0.52351818E-01 0.12623089E+03</pdfrwt>
<totfact> 0.52638034E+03</totfact>
</mgrwt>
</event>
<event>
 8    1  0.3629925E-004  0.1955790E+03  0.7546771E-02  0.1158187E+00
          2   -1    0    0  501    0  0.00000000000E+00  0.00000000000E+00  0.15088243642E+04  0.15088243642E+04  0.00000000000E+00 0. -1.
         -2   -1    0    0    0  501 -0.00000000000E+00 -0.00000000000E+00 -0.23092677955E+02  0.23092677955E+02  0.00000000000E+00 0.  1.
         25    2    1    2    0    0 -0.18337659744E+02 -0.14929047694E+03  0.86994394483E+03  0.89165779004E+03  0.12500892420E+03 0.  0.
         23    2    1    2    0    0  0.18337659744E+02  0.14929047694E+03  0.61578774145E+03  0.64025925215E+03  0.90074697722E+02 0.  0.
          5    1    3    3  502    0 -0.35290998579E+02 -0.16392509286E+03  0.68204801693E+03  0.70237346052E+03  0.47000000000E+01 0. -1.
         -5    1    3    3    0  502  0.16953338835E+02  0.14634615916E+02  0.18789592790E+03  0.18928432952E+03  0.47000000000E+01 0. -1.
          5    1    4    4  503    0  0.19147312140E+02  0.81474185599E+02  0.49146569803E+03  0.49856322049E+03  0.47000000000E+01 0. -1.
         -5    1    4    4    0  503 -0.80965239624E+00  0.67816291342E+02  0.12432204342E+03  0.14169603166E+03  0.47000000000E+01 0.  1.
<mgrwt>
<rscale>  0 0.19030492E+03</rscale>
<asrwt>0</asrwt>
<pdfrwt beam="1">  1        2 0.23212675E+00 0.19557901E+03</pdfrwt>
<pdfrwt beam="2">  1       -2 0.35527208E-02 0.19557901E+03</pdfrwt>
<totfact> 0.44145735E+03</totfact>
</mgrwt>
</event>
<event>
 8    1  0.3629925E-004  0.1647598E+03  0.7546771E-02  0.1190376E+00
          2   -1    0    0  501    0  0.00000000000E+00  0.00000000000E+00  0.18957325881E+03  0.18957325881E+03  0.00000000000E+00 0. -1.
         -2   -1    0    0    0  501 -0.00000000000E+00 -0.00000000000E+00 -0.14783141813E+03  0.14783141813E+03  0.00000000000E+00 0.  1.
         25    2    1    2    0    0 -0.61490118946E+02 -0.87971158721E+02  0.90568050223E+02  0.18801160020E+03  0.12500332233E+03 0.  0.
         23    2    1    2    0    0  0.61490118946E+02  0.87971158721E+02 -0.48826209547E+02  0.14939307675E+03  0.91729674293E+02 0.  0.
          5    1    3    3  502    0 -0.98641382403E+02 -0.72743360721E+02  0.56045278475E+02  0.13485133329E+03  0.47000000000E+01 0. -1.
         -5    1    3    3    0  502  0.37151263457E+02 -0.15227798000E+02  0.34522771748E+02  0.53160266906E+02  0.47000000000E+01 0. -1.
          5    1    4    4  503    0  0.65659432297E+01  0.70496006498E+02 -0.56965912079E+02  0.90994525559E+02  0.47000000000E+01 0. -1.
         -5    1    4    4    0  503  0.54924175716E+02  0.17475152223E+02  0.81397025318E+01  0.58398551186E+02  0.47000000000E+01 0.  1.
<mgrwt>
<rscale>  0 0.15852163E+03</rscale>
<asrwt>0</asrwt>
<pdfrwt beam="1">  1        2 0.29165117E-01 0.16475980E+03</pdfrwt>
<pdfrwt beam="2">  1       -2 0.22743295E-01 0.16475980E+03</pdfrwt>
<totfact> 0.29649570E+03</totfact>
</mgrwt>
</event>
<event>
 8    1  0.3629925E-004  0.1276814E+03  0.7546771E-02  0.1243173E+00
         -1   -1    0    0    0  501 -0.00000000000E+00  0.00000000000E+00  0.29787898027E+02  0.29787898027E+02  0.00000000000E+00 0.  1.
          1   -1    0    0  501    0  0.00000000000E+00 -0.00000000000E+00 -0.43968748636E+03  0.43968748636E+03  0.00000000000E+00 0. -1.
         25    2    1    2    0    0 -0.19934668266E+02  0.16682657457E+02 -0.20135095625E+03  0.23842135035E+03  0.12500732242E+03 0.  0.
         23    2    1    2    0    0  0.19934668266E+02 -0.16682657457E+02 -0.20854863208E+03  0.23105403404E+03  0.96009023768E+02 0.  0.
          5    1    3    3  502    0 -0.65902341841E+02 -0.11373469534E+02 -0.14797014596E+03  0.16244915686E+03  0.47000000000E+01 0. -1.
         -5    1    4    4    0  503 -0.30817170918E+02 -0.21082332323E+02 -0.14319869065E+03  0.14806119601E+03  0.47000000000E+01 0.  1.
          5    1    4    4  503    0  0.50751839184E+02  0.43996748660E+01 -0.65349941427E+02  0.82992838028E+02  0.47000000000E+01 0. -1.
         -5    1    3    3    0  502  0.45967673574E+02  0.28056126990E+02 -0.53380810295E+02  0.75972193487E+02  0.47000000000E+01 0. -1.
<mgrwt>
<rscale>  0 0.11995381E+03</rscale>
<asrwt>0</asrwt>
<pdfrwt beam="1">  1        1 0.67644222E-01 0.12768137E+03</pdfrwt>
<pdfrwt beam="2">  1       -1 0.45827540E-02 0.12768137E+03</pdfrwt>
<totfact> 0.10162850E+04</totfact>
</mgrwt>
</event>
<event>
 8    1  0.3629925E-004  0.1926196E+03  0.7546771E-02  0.1160924E+00
          2   -1    0    0  501    0  0.00000000000E+00  0.00000000000E+00  0.49143353334E+03  0.49143353334E+03  0.00000000000E+00 0. -1.
         -2   -1    0    0    0  501 -0.00000000000E+00 -0.00000000000E+00 -0.71190992695E+02  0.71190992695E+02  0.00000000000E+00 0.  1.
         25    2    1    2    0    0  0.74962820204E+02 -0.12592260149E+03  0.28349404772E+03  0.34274069745E+03  0.12500553833E+03 0.  0.
         23    2    1    2    0    0 -0.74962820204E+02  0.12592260149E+03  0.13674849292E+03  0.21988382858E+03  0.90403660189E+02 0.  0.
          5    1    4    4  502    0 -0.63707200052E+01  0.29797428566E+02  0.85829603197E+02  0.91199142581E+02  0.47000000000E+01 0. -1.
         -5    1    3    3    0  503 -0.26853511187E+02 -0.62177267652E+02  0.13962847566E+03  0.15525889634E+03  0.47000000000E+01 0.  1.
          5    1    3    3  503    0  0.10181633139E+03 -0.63745333842E+02  0.14386557206E+03  0.18748180111E+03  0.47000000000E+01 0.  1.
         -5    1    4    4    0  502 -0.68592100199E+02  0.96125172929E+02  0.50918889721E+02  0.12868468600E+03  0.47000000000E+01 0.  1.
<mgrwt>
<rscale>  0 0.18729499E+03</rscale>
<asrwt>0</asrwt>
<pdfrwt beam="1">  1        2 0.75605157E-01 0.19261960E+03</pdfrwt>
<pdfrwt beam="2">  1       -2 0.10952461E-01 0.19261960E+03</pdfrwt>
<totfact> 0.35817474E+03</totfact>
</mgrwt>
</event>
<event>
 8    1  0.3629925E-004  0.1333410E+03  0.7546771E-02  0.1235439E+00
          2   -1    0    0  501    0  0.00000000000E+00  0.00000000000E+00  0.76114165034E+03  0.76114165034E+03  0.00000000000E+00 0. -1.
         -2   -1    0    0    0  501 -0.00000000000E+00 -0.00000000000E+00 -0.18316625537E+02  0.18316625537E+02  0.00000000000E+00 0.  1.
         25    2    1    2    0    0  0.22052058778E+02 -0.40855129077E+02  0.44791315681E+03  0.46733928718E+03  0.12499751371E+03 0.  0.
         23    2    1    2    0    0 -0.22052058778E+02  0.40855129077E+02  0.29491186799E+03  0.31211898869E+03  0.91048439586E+02 0.  0.
          5    1    4    4  502    0  0.17480232523E+02 -0.20763860646E+02  0.60053836798E+02  0.66070036720E+02  0.47000000000E+01 0. -1.
         -5    1    4    4    0  502 -0.39532291301E+02  0.61618989724E+02  0.23485803119E+03  0.24604895197E+03  0.47000000000E+01 0.  1.
          5    1    3    3  503    0 -0.34785776501E+02 -0.28822050700E+02  0.35333885959E+03  0.35624598321E+03  0.47000000000E+01 0. -1.
         -5    1    3    3    0  503  0.56837835279E+02 -0.12033078378E+02  0.94574297215E+02  0.11109330397E+03  0.47000000000E+01 0. -1.
<mgrwt>
<rscale>  0 0.12476351E+03</rscale>
<asrwt>0</asrwt>
<pdfrwt beam="1">  1        2 0.11709869E+00 0.13334097E+03</pdfrwt>
<pdfrwt beam="2">  1       -2 0.28179430E-02 0.13334097E+03</pdfrwt>
<totfact> 0.16687109E+04</totfact>
</mgrwt>
</event>
<event>
 8    1  0.3629925E-004  0.2003011E+03  0.7546771E-02  0.1153513E+00
         -1   -1    0    0    0  501 -0.00000000000E+00  0.00000000000E+00  0.11692156737E+03  0.11692156737E+03  0.00000000000E+00 0.  1.
          1   -1    0    0  501    0  0.00000000000E+00 -0.00000000000E+00 -0.31832917475E+03  0.31832917475E+03  0.00000000000E+00 0. -1.
         25    2    1    2    0    0  0.14496460100E+03  0.59002320381E+02 -0.13434251017E+03  0.24118138075E+03  0.12499815610E+03 0.  0.
         23    2    1    2    0    0 -0.14496460100E+03 -0.59002320381E+02 -0.67065097217E+02  0.19406936137E+03  0.93108433566E+02 0.  0.
          5    1    3    3  502    0  0.12038369901E+03  0.77160989183E+02 -0.50333363938E+02  0.15166275338E+03  0.47000000000E+01 0. -1.
         -5    1    3    3    0  502  0.24580901998E+02 -0.18158668801E+02 -0.84009146228E+02  0.89518627367E+02  0.47000000000E+01 0. -1.
          5    1    4    4  503    0 -0.88883995117E+02 -0.56337297978E+02 -0.84554380479E+02  0.13507697431E+03  0.47000000000E+01 0. -1.
         -5    1    4    4    0  503 -0.56080605888E+02 -0.26650224034E+01  0.17489283261E+02  0.58992387052E+02  0.47000000000E+01 0.  1.
<mgrwt>
<rscale>  0 0.19559056E+03</rscale>
<asrwt>0</asrwt>
<pdfrwt beam="1">  1        1 0.48973720E-01 0.20030114E+03</pdfrwt>
<pdfrwt beam="2">  1       -1 0.17987933E-01 0.20030114E+03</pdfrwt>
<totfact> 0.19297976E+03</totfact>
</mgrwt>
</event>
<event>
 8    1  0.3629925E-004  0.1413628E+03  0.7546771E-02  0.1222275E+00
          2   -1    0    0  501    0  0.00000000000E+00  0.00000000000E+00  0.80483978523E+03  0.80483978523E+03  0.00000000000E+00 0. -1.
         -2   -1    0    0    0  501 -0.00000000000E+00 -0.00000000000E+00 -0.20058720821E+02  0.20058720821E+02  0.00000000000E+00 0.  1.
         25    2    1    2    0    0  0.52791342968E+02  0.39612448874E+02  0.42354280852E+03  0.44651085789E+03  0.12500945390E+03 0.  0.
         23    2    1    2    0    0 -0.52791342968E+02 -0.39612448874E+02  0.36123825589E+03  0.37838764816E+03  0.91258220266E+02 0.  0.
          5    1    4    4  502    0 -0.13240933828E+02 -0.40166613735E+02  0.31277094684E+03  0.31565239485E+03  0.47000000000E+01 0. -1.
         -5    1    3    3    0  503  0.82250310959E+02  0.55912585097E+02  0.23978112950E+03  0.25963129798E+03  0.47000000000E+01 0.  1.
          5    1    3    3  503    0 -0.29458967991E+02 -0.16300136223E+02  0.18376167902E+03  0.18687955991E+03  0.47000000000E+01 0.  1.
         -5    1    4    4    0  502 -0.39550409140E+02  0.55416486138E+00  0.48467309053E+02  0.62735253317E+02  0.47000000000E+01 0.  1.
<mgrwt>
<rscale>  0 0.13355462E+03</rscale>
<asrwt>0</asrwt>
<pdfrwt beam="1">  1        2 0.12382148E+00 0.14136278E+03</pdfrwt>
<pdfrwt beam="2">  1       -2 0.30859577E-02 0.14136278E+03</pdfrwt>
<totfact> 0.13685916E+04</totfact>
</mgrwt>
</event>
<event>
 8    1  0.3629925E-004  0.1356612E+03  0.7546771E-02  0.1231233E+00
         -3   -1    0    0    0  501 -0.00000000000E+00  0.00000000000E+00  0.18720786653E+03  0.18720786653E+03  0.00000000000E+00 0. -1.
          3   -1    0    0  501    0  0.00000000000E+00 -0.00000000000E+00 -0.12912865488E+03  0.12912865488E+03  0.00000000000E+00 0.  1.
         25    2    1    2    0    0 -0.38355293954E+02  0.36153607975E+02 -0.67996542983E+02  0.15174807361E+03  0.12500294413E+03 0.  0.
         23    2    1    2    0    0  0.38355293954E+02 -0.36153607975E+02  0.12607575463E+03  0.16458844780E+03  0.91739028227E+02 0.  0.
          5    1    3    3  502    0  0.29821400346E+02 -0.11976535434E+02 -0.59427805618E+02  0.67723758019E+02  0.47000000000E+01 0. -1.
         -5    1    3    3    0  502 -0.68176694300E+02  0.48130143409E+02 -0.85687373652E+01  0.84024315590E+02  0.47000000000E+01 0. -1.
          5    1    4    4  503    0  0.52688107281E+02 -0.70417571867E+01  0.11987970696E+03  0.13122064294E+03  0.47000000000E+01 0. -1.
         -5    1    4    4    0  503 -0.14332813327E+02 -0.29111850788E+02  0.61960476656E+01  0.33367804855E+02  0.47000000000E+01 0.  1.
<mgrwt>
<rscale>  0 0.12748704E+03</rscale>
<asrwt>0</asrwt>
<pdfrwt beam="1">  1        3 0.19865947E-01 0.13566115E+03</pdfrwt>
<pdfrwt beam="2">  1       -3 0.28801210E-01 0.13566115E+03</pdfrwt>
<totfact> 0.60905295E+02</totfact>
</mgrwt>
</event>
<event>
 8    1  0.3629925E-004  0.2227531E+03  0.7546771E-02  0.1135084E+00
         -2   -1    0    0    0  501 -0.00000000000E+00  0.00000000000E+00  0.76550674835E+02  0.76550674835E+02  0.00000000000E+00 0.  1.
          2   -1    0    0  501    0  0.00000000000E+00 -0.00000000000E+00 -0.76738190246E+03  0.76738190246E+03  0.00000000000E+00 0. -1.
         25    2    1    2    0    0 -0.17102593827E+03  0.68852690619E+02 -0.15905488832E+03  0.27371041066E+03  0.12501346663E+03 0.  0.
         23    2    1    2    0    0  0.17102593827E+03 -0.68852690619E+02 -0.53177633931E+03  0.57022216664E+03  0.91524202866E+02 0.  0.
          5    1    4    4  502    0  0.12268370825E+03 -0.35093373858E+02 -0.45904967077E+03  0.47647825490E+03  0.47000000000E+01 0. -1.
         -5    1    4    4    0  502  0.48342230014E+02 -0.33759316762E+02 -0.72726668541E+02  0.93743911739E+02  0.47000000000E+01 0.  1.
          5    1    3    3  503    0 -0.33993915290E+02 -0.35617188040E+02 -0.46166201302E+02  0.67657804452E+02  0.47000000000E+01 0.  1.
         -5    1    3    3    0  503 -0.13703202298E+03  0.10446987866E+03 -0.11288868701E+03  0.20605260621E+03  0.47000000000E+01 0.  1.
<mgrwt>
<rscale>  0 0.21839694E+03</rscale>
<asrwt>0</asrwt>
<pdfrwt beam="1">  1        2 0.11805876E+00 0.22275307E+03</pdfrwt>
<pdfrwt beam="2">  1       -2 0.11777027E-01 0.22275307E+03</pdfrwt>
<totfact> 0.19006643E+03</totfact>
</mgrwt>
</event>
<event>
 8    1  0.3629925E-004  0.1255939E+03  0.7546771E-02  0.1248873E+00
         -1   -1    0    0    0  501 -0.00000000000E+00  0.00000000000E+00  0.16970658788E+02  0.16970658788E+02  0.00000000000E+00 0.  1.
          1   -1    0    0  501    0  0.00000000000E+00 -0.00000000000E+00 -0.71943663791E+03  0.71943663791E+03  0.00000000000E+00 0. -1.
         25    2    1    2    0    0  0.89050042896E+01 -0.83693710887E+01 -0.35086550872E+03  0.37266665915E+03  0.12499795264E+03 0.  0.
         23    2    1    2    0    0 -0.89050042896E+01  0.83693710887E+01 -0.35160047040E+03  0.36374063754E+03  0.92385145658E+02 0.  0.
          5    1    3    3  502    0  0.12518790605E+02 -0.57827393725E+02 -0.27888722265E+03  0.28513312775E+03  0.47000000000E+01 0.  1.
         -5    1    4    4    0  503 -0.39657182178E+02  0.62107711698E+01 -0.73340828806E+02  0.83739076582E+02  0.47000000000E+01 0.  1.
          5    1    4    4  503    0  0.30752177889E+02  0.21585999189E+01 -0.27825964160E+03  0.28000156096E+03  0.47000000000E+01 0. -1.
         -5    1    3    3    0  502 -0.36137863150E+01  0.49458022636E+02 -0.71978286067E+02  0.87533531402E+02  0.47000000000E+01 0.  1.
<mgrwt>
<rscale>  0 0.11656514E+03</rscale>
<asrwt>0</asrwt>
<pdfrwt beam="1">  1        1 0.11068258E+00 0.12559392E+03</pdfrwt>
<pdfrwt beam="2">  1       -1 0.26108702E-02 0.12559392E+03</pdfrwt>
<totfact> 0.11916139E+04</totfact>
</mgrwt>
</event>
<event>
 8    1  0.3629925E-004  0.3546849E+03  0.7546771E-02  0.1061713E+00
          1   -1    0    0  501    0  0.00000000000E+00  0.00000000000E+00  0.10002145695E+04  0.10002145695E+04  0.00000000000E+00 0. -1.
         -1   -1    0    0    0  501 -0.00000000000E+00 -0.00000000000E+00 -0.12497207517E+03  0.12497207517E+03  0.00000000000E+00 0.  1.
         25    2    1    2    0    0  0.30224377863E+03  0.13720153022E+03  0.36167496391E+03  0.50656705630E+03  0.12500336552E+03 0.  0.
         23    2    1    2    0    0 -0.30224377863E+03 -0.13720153022E+03  0.51356753041E+03  0.61861958837E+03  0.93611031399E+02 0.  0.
          5    1    3    3  502    0  0.23462178643E+03  0.15826972296E+03  0.30103609048E+03  0.41320879183E+03  0.47000000000E+01 0.  1.
         -5    1    3    3    0  502  0.67621992196E+02 -0.21068192735E+02  0.60638873432E+02  0.93358264470E+02  0.47000000000E+01 0.  1.
          5    1    4    4  503    0 -0.13638254687E+03 -0.14422291097E+02  0.17980786933E+03  0.22618833180E+03  0.47000000000E+01 0. -1.
         -5    1    4    4    0  503 -0.16586123176E+03 -0.12277923913E+03  0.33375966108E+03  0.39243125656E+03  0.47000000000E+01 0.  1.
<mgrwt>
<rscale>  0 0.35220653E+03</rscale>
<asrwt>0</asrwt>
<pdfrwt beam="1">  1        1 0.15387916E+00 0.35468493E+03</pdfrwt>
<pdfrwt beam="2">  1       -1 0.19226474E-01 0.35468493E+03</pdfrwt>
<totfact> 0.34298544E+02</totfact>
</mgrwt>
</event>
<event>
 8    1  0.3629925E-004  0.1728064E+03  0.7546771E-02  0.1181800E+00
         -1   -1    0    0    0  501 -0.00000000000E+00  0.00000000000E+00  0.19560616221E+03  0.19560616221E+03  0.00000000000E+00 0.  1.
          1   -1    0    0  501    0  0.00000000000E+00 -0.00000000000E+00 -0.13171111104E+03  0.13171111104E+03  0.00000000000E+00 0. -1.
         25    2    1    2    0    0 -0.12150896392E+02  0.11869695827E+03  0.38988561549E+02  0.17715013258E+03  0.12500179741E+03 0.  0.
         23    2    1    2    0    0  0.12150896392E+02 -0.11869695827E+03  0.24906489630E+02  0.15016714067E+03  0.87711029657E+02 0.  0.
          5    1    3    3  502    0 -0.39844580216E+02 -0.74540906249E+01 -0.38652649864E+01  0.40990051391E+02  0.47000000000E+01 0.  1.
         -5    1    4    4    0  503  0.42198101347E+02 -0.57487019018E+02  0.37437508504E+02  0.80678957330E+02  0.47000000000E+01 0.  1.
          5    1    4    4  503    0 -0.30047204955E+02 -0.61209939256E+02 -0.12531018875E+02  0.69488183336E+02  0.47000000000E+01 0. -1.
         -5    1    3    3    0  502  0.27693683824E+02  0.12615104890E+03  0.42853826535E+02  0.13616008119E+03  0.47000000000E+01 0.  1.
<mgrwt>
<rscale>  0 0.16626443E+03</rscale>
<asrwt>0</asrwt>
<pdfrwt beam="1">  1        1 0.20263248E-01 0.17280643E+03</pdfrwt>
<pdfrwt beam="2">  1       -1 0.30093256E-01 0.17280643E+03</pdfrwt>
<totfact> 0.25001549E+03</totfact>
</mgrwt>
</event>
<event>
 8    1  0.3629925E-004  0.1324033E+03  0.7546771E-02  0.1237533E+00
         -2   -1    0    0    0  501 -0.00000000000E+00  0.00000000000E+00  0.29130924162E+02  0.29130924162E+02  0.00000000000E+00 0.  1.
          2   -1    0    0  501    0  0.00000000000E+00 -0.00000000000E+00 -0.57423144009E+03  0.57423144009E+03  0.00000000000E+00 0. -1.
         25    2    1    2    0    0  0.26393905469E+02  0.34772946166E+02 -0.43459012122E+03  0.45431178160E+03  0.12499930163E+03 0.  0.
         23    2    1    2    0    0 -0.26393905469E+02 -0.34772946166E+02 -0.11051039470E+03  0.14905058264E+03  0.89987403666E+02 0.  0.
          5    1    4    4  502    0  0.15471674831E+02  0.21971766279E+02 -0.45345823853E+02  0.52919419653E+02  0.47000000000E+01 0. -1.
         -5    1    3    3    0  503  0.74976476052E+02  0.30589982579E+02 -0.31001423870E+03  0.32044989810E+03  0.47000000000E+01 0. -1.
          5    1    3    3  503    0 -0.48582570583E+02  0.41829635870E+01 -0.12457588252E+03  0.13386188350E+03  0.47000000000E+01 0. -1.
         -5    1    4    4    0  502 -0.41865580300E+02 -0.56744712444E+02 -0.65164570847E+02  0.96131162990E+02  0.47000000000E+01 0.  1.
<mgrwt>
<rscale>  0 0.12343637E+03</rscale>
<asrwt>0</asrwt>
<pdfrwt beam="1">  1        2 0.88343292E-01 0.13240325E+03</pdfrwt>
<pdfrwt beam="2">  1       -2 0.44816810E-02 0.13240325E+03</pdfrwt>
<totfact> 0.11673620E+04</totfact>
</mgrwt>
</event>
<event>
 8    1  0.3629925E-004  0.1574221E+03  0.7546771E-02  0.1199549E+00
         -4   -1    0    0    0  501 -0.00000000000E+00  0.00000000000E+00  0.11252483873E+03  0.11252483873E+03  0.00000000000E+00 0.  1.
          4   -1    0    0  501    0  0.00000000000E+00 -0.00000000000E+00 -0.18797540814E+03  0.18797540814E+03  0.00000000000E+00 0. -1.
         25    2    1    2    0    0  0.28717521048E+02 -0.91275132636E+02 -0.53691204356E+02  0.16632634007E+03  0.12500344045E+03 0.  0.
         23    2    1    2    0    0 -0.28717521048E+02  0.91275132636E+02 -0.21759365049E+02  0.13417390679E+03  0.91505854698E+02 0.  0.
          5    1    3    3  502    0 -0.30327804009E+02 -0.42898840993E+02  0.23429221770E+02  0.57715723051E+02  0.47000000000E+01 0.  1.
         -5    1    3    3    0  502  0.59045325058E+02 -0.48376291644E+02 -0.77120426126E+02  0.10861061702E+03  0.47000000000E+01 0.  1.
          5    1    4    4  503    0  0.13059314277E+02  0.83048305755E+02 -0.32090395248E+02  0.90107992128E+02  0.47000000000E+01 0. -1.
         -5    1    4    4    0  503 -0.41776835326E+02  0.82268268818E+01  0.10331030199E+02  0.44065914666E+02  0.47000000000E+01 0.  1.
<mgrwt>
<rscale>  0 0.15075418E+03</rscale>
<asrwt>0</asrwt>
<pdfrwt beam="1">  1        4 0.28919293E-01 0.15742206E+03</pdfrwt>
<pdfrwt beam="2">  1       -4 0.17311514E-01 0.15742206E+03</pdfrwt>
<totfact> 0.56855536E+02</totfact>
</mgrwt>
</event>
<event>
 8    1  0.3629925E-004  0.1489600E+03  0.7546771E-02  0.1211163E+00
          1   -1    0    0  501    0  0.00000000000E+00  0.00000000000E+00  0.64613705692E+03  0.64613705692E+03  0.00000000000E+00 0. -1.
         -1   -1    0    0    0  501 -0.00000000000E+00 -0.00000000000E+00 -0.43882017664E+02  0.43882017664E+02  0.00000000000E+00 0.  1.
         25    2    1    2    0    0  0.18021996895E+02  0.78982657847E+02  0.11609753342E+03  0.18885896956E+03  0.12500408196E+03 0.  0.
         23    2    1    2    0    0 -0.18021996895E+02 -0.78982657847E+02  0.48615750583E+03  0.50116010502E+03  0.90825534796E+02 0.  0.
          5    1    4    4  502    0 -0.30546691108E+02 -0.44202834632E+02  0.43239558193E+03  0.43574650911E+03  0.47000000000E+01 0. -1.
         -5    1    4    4    0  502  0.12524694213E+02 -0.34779823215E+02  0.53761923898E+02  0.65413595905E+02  0.47000000000E+01 0.  1.
          5    1    3    3  503    0 -0.17005895654E+02  0.10374468892E+03  0.89666661925E+02  0.13825469694E+03  0.47000000000E+01 0.  1.
         -5    1    3    3    0  503  0.35027892549E+02 -0.24762031075E+02  0.26430871496E+02  0.50604272620E+02  0.47000000000E+01 0.  1.
<mgrwt>
<rscale>  0 0.14162180E+03</rscale>
<asrwt>0</asrwt>
<pdfrwt beam="1">  1        1 0.99405694E-01 0.14895997E+03</pdfrwt>
<pdfrwt beam="2">  1       -1 0.67510801E-02 0.14895997E+03</pdfrwt>
<totfact> 0.34589259E+03</totfact>
</mgrwt>
</event>
<event>
 8    1  0.3629925E-004  0.1436879E+03  0.7546771E-02  0.1218395E+00
         -1   -1    0    0    0  501 -0.00000000000E+00  0.00000000000E+00  0.27664869001E+02  0.27664869001E+02  0.00000000000E+00 0. -1.
          1   -1    0    0  501    0  0.00000000000E+00 -0.00000000000E+00 -0.92342954560E+03  0.92342954560E+03  0.00000000000E+00 0.  1.
         25    2    1    2    0    0 -0.70611785271E+02 -0.61170310432E+01 -0.75463651818E+03  0.76819429699E+03  0.12499104398E+03 0.  0.
         23    2    1    2    0    0  0.70611785271E+02  0.61170310432E+01 -0.14112815843E+03  0.18290011761E+03  0.92259707538E+02 0.  0.
          5    1    3    3  502    0 -0.10318263456E+03 -0.49301889780E+01 -0.44723118582E+03  0.45903026742E+03  0.47000000000E+01 0.  1.
         -5    1    3    3    0  502  0.32570849293E+02 -0.11868420652E+01 -0.30740533236E+03  0.30916402957E+03  0.47000000000E+01 0.  1.
          5    1    4    4  503    0  0.39748943357E+02  0.48806529214E+02 -0.83656443155E+02  0.10479764441E+03  0.47000000000E+01 0. -1.
         -5    1    4    4    0  503  0.30862841914E+02 -0.42689498171E+02 -0.57471715270E+02  0.78102473208E+02  0.47000000000E+01 0.  1.
<mgrwt>
<rscale>  0 0.13630084E+03</rscale>
<asrwt>0</asrwt>
<pdfrwt beam="1">  1        1 0.14206606E+00 0.14368787E+03</pdfrwt>
<pdfrwt beam="2">  1       -1 0.42561344E-02 0.14368787E+03</pdfrwt>
<totfact> 0.40213760E+03</totfact>
</mgrwt>
</event>
<event>
 8    1  0.3629925E-004  0.1254083E+03  0.7546771E-02  0.1250349E+00
         -3   -1    0    0    0  501 -0.00000000000E+00  0.00000000000E+00  0.53055693403E+03  0.53055693403E+03  0.00000000000E+00 0.  1.
          3   -1    0    0  501    0  0.00000000000E+00 -0.00000000000E+00 -0.22044099384E+02  0.22044099384E+02  0.00000000000E+00 0. -1.
         25    2    1    2    0    0  0.10028690464E+02 -0.14317213394E+01  0.29595728072E+03  0.32143110470E+03  0.12499847440E+03 0.  0.
         23    2    1    2    0    0 -0.10028690464E+02  0.14317213394E+01  0.21255555393E+03  0.23116992871E+03  0.90316377122E+02 0.  0.
          5    1    3    3  502    0  0.62823274267E+02 -0.23872356507E+02  0.17351670982E+03  0.18613648697E+03  0.47000000000E+01 0.  1.
         -5    1    3    3    0  502 -0.52794583803E+02  0.22440635167E+02  0.12244057090E+03  0.13529461773E+03  0.47000000000E+01 0.  1.
          5    1    4    4  503    0  0.26193407787E+02  0.42007281435E+01  0.16221248787E+02  0.31447728704E+02  0.47000000000E+01 0. -1.
         -5    1    4    4    0  503 -0.36222098251E+02 -0.27690068041E+01  0.19633430514E+03  0.19972220001E+03  0.47000000000E+01 0.  1.
<mgrwt>
<rscale>  0 0.11570845E+03</rscale>
<asrwt>0</asrwt>
<pdfrwt beam="1">  1        3 0.33914003E-02 0.12540831E+03</pdfrwt>
<pdfrwt beam="2">  1       -3 0.81624134E-01 0.12540831E+03</pdfrwt>
<totfact> 0.13634832E+03</totfact>
</mgrwt>
</event>
<event>
 8    1  0.3629925E-004  0.1903796E+03  0.7546771E-02  0.1162870E+00
          2   -1    0    0  501    0  0.00000000000E+00  0.00000000000E+00  0.12601554047E+04  0.12601554047E+04  0.00000000000E+00 0. -1.
         -2   -1    0    0    0  501 -0.00000000000E+00 -0.00000000000E+00 -0.26531802906E+02  0.26531802906E+02  0.00000000000E+00 0.  1.
         25    2    1    2    0    0  0.13760920188E+03  0.40999325423E+02  0.54560744445E+03  0.57786840007E+03  0.12500866860E+03 0.  0.
         23    2    1    2    0    0 -0.13760920188E+03 -0.40999325423E+02  0.68801615739E+03  0.70881880759E+03  0.91872912429E+02 0.  0.
          5    1    4    4  502    0 -0.38273771963E+01  0.21570775874E+02  0.77409217984E+02  0.80586749637E+02  0.47000000000E+01 0. -1.
         -5    1    3    3    0  503  0.67052521946E+02 -0.25807354563E+02  0.10955980689E+03  0.13110111187E+03  0.47000000000E+01 0. -1.
          5    1    3    3  503    0  0.70556679929E+02  0.66806679986E+02  0.43604763757E+03  0.44676728819E+03  0.47000000000E+01 0. -1.
         -5    1    4    4    0  502 -0.13378182468E+03 -0.62570101297E+02  0.61060693940E+03  0.62823205795E+03  0.47000000000E+01 0.  1.
<mgrwt>
<rscale>  0 0.18519247E+03</rscale>
<asrwt>0</asrwt>
<pdfrwt beam="1">  1        2 0.19387002E+00 0.19037963E+03</pdfrwt>
<pdfrwt beam="2">  1       -2 0.40818168E-02 0.19037963E+03</pdfrwt>
<totfact> 0.48809760E+03</totfact>
</mgrwt>
</event>
<event>
 8    1  0.3629925E-004  0.1440483E+03  0.7546771E-02  0.1216636E+00
         -1   -1    0    0    0  501 -0.00000000000E+00  0.00000000000E+00  0.39925862159E+02  0.39925862159E+02  0.00000000000E+00 0.  1.
          1   -1    0    0  501    0  0.00000000000E+00 -0.00000000000E+00 -0.52245684467E+03  0.52245684467E+03  0.00000000000E+00 0. -1.
         25    2    1    2    0    0  0.33791978549E+02 -0.63109145430E+02 -0.14576897715E+03  0.20493538417E+03  0.12500101973E+03 0.  0.
         23    2    1    2    0    0 -0.33791978549E+02  0.63109145430E+02 -0.33676200536E+03  0.35744732266E+03  0.96100354700E+02 0.  0.
          5    1    3    3  502    0  0.49201352937E+02 -0.95688714850E+02 -0.10962077952E+03  0.15367468426E+03  0.47000000000E+01 0. -1.
         -5    1    4    4    0  503 -0.37867086098E+02  0.17278900799E+02 -0.42863994074E+02  0.59932366968E+02  0.47000000000E+01 0.  1.
          5    1    4    4  503    0  0.40751075492E+01  0.45830244632E+02 -0.29389801128E+03  0.29751495569E+03  0.47000000000E+01 0. -1.
         -5    1    3    3    0  502 -0.15409374388E+02  0.32579569420E+02 -0.36148197632E+02  0.51260699904E+02  0.47000000000E+01 0. -1.
<mgrwt>
<rscale>  0 0.13757047E+03</rscale>
<asrwt>0</asrwt>
<pdfrwt beam="1">  1        1 0.80377970E-01 0.14404831E+03</pdfrwt>
<pdfrwt beam="2">  1       -1 0.61424408E-02 0.14404831E+03</pdfrwt>
<totfact> 0.53053788E+03</totfact>
</mgrwt>
</event>
<event>
 8    1  0.3629925E-004  0.1385996E+03  0.7546771E-02  0.1226469E+00
         -1   -1    0    0    0  501 -0.00000000000E+00  0.00000000000E+00  0.82993552722E+02  0.82993552722E+02  0.00000000000E+00 0.  1.
          1   -1    0    0  501    0  0.00000000000E+00 -0.00000000000E+00 -0.19221168592E+03  0.19221168592E+03  0.00000000000E+00 0. -1.
         25    2    1    2    0    0 -0.29801592230E+02  0.51934416674E+02 -0.35064962403E+02  0.14296645017E+03  0.12499814299E+03 0.  0.
         23    2    1    2    0    0  0.29801592230E+02 -0.51934416674E+02 -0.74153170792E+02  0.13223878847E+03  0.91668347340E+02 0.  0.
          5    1    3    3  502    0 -0.37971329782E+02  0.31932657479E+02 -0.79215864278E+02  0.93588245268E+02  0.47000000000E+01 0. -1.
         -5    1    3    3    0  502  0.81697375522E+01  0.20001759195E+02  0.44150901874E+02  0.49378204897E+02  0.47000000000E+01 0. -1.
          5    1    4    4  503    0 -0.20426484527E+01 -0.55594483459E+02 -0.81719683585E+02  0.98970276795E+02  0.47000000000E+01 0. -1.
         -5    1    4    4    0  503  0.31844240682E+02  0.36600667852E+01  0.75665127925E+01  0.33268511679E+02  0.47000000000E+01 0.  1.
<mgrwt>
<rscale>  0 0.13066723E+03</rscale>
<asrwt>0</asrwt>
<pdfrwt beam="1">  1        1 0.29571028E-01 0.13859962E+03</pdfrwt>
<pdfrwt beam="2">  1       -1 0.12768239E-01 0.13859962E+03</pdfrwt>
<totfact> 0.61096970E+03</totfact>
</mgrwt>
</event>
<event>
 8    1  0.3792937E-004  0.1959988E+03  0.7546771E-02  0.1157741E+00
         -4   -1    0    0    0  501 -0.00000000000E+00  0.00000000000E+00  0.68032489295E+02  0.68032489295E+02  0.00000000000E+00 0.  1.
          4   -1    0    0  501    0  0.00000000000E+00 -0.00000000000E+00 -0.51198104202E+03  0.51198104202E+03  0.00000000000E+00 0. -1.
         25    2    1    2    0    0  0.13731391824E+03  0.62744261168E+02 -0.21018813792E+03  0.28739272900E+03  0.12499429150E+03 0.  0.
         23    2    1    2    0    0 -0.13731391824E+03 -0.62744261168E+02 -0.23376041480E+03  0.29262080232E+03  0.90504408565E+02 0.  0.
          5    1    3    3  502    0  0.28707872320E+02  0.77023349567E+02 -0.11943681092E+03  0.14506543391E+03  0.47000000000E+01 0. -1.
         -5    1    3    3    0  502  0.10860604592E+03 -0.14279088399E+02 -0.90751327000E+02  0.14232729509E+03  0.47000000000E+01 0. -1.
          5    1    4    4  503    0 -0.49482456957E+02 -0.71955867429E+02 -0.11066071995E+03  0.14104625250E+03  0.47000000000E+01 0. -1.
         -5    1    4    4    0  503 -0.87831461279E+02  0.92116062607E+01 -0.12309969486E+03  0.15157454982E+03  0.47000000000E+01 0.  1.
<mgrwt>
<rscale>  0 0.19080093E+03</rscale>
<asrwt>0</asrwt>
<pdfrwt beam="1">  1        4 0.78766314E-01 0.19599879E+03</pdfrwt>
<pdfrwt beam="2">  1       -4 0.10466537E-01 0.19599879E+03</pdfrwt>
<totfact> 0.18318842E+02</totfact>
</mgrwt>
</event>
<event>
 8    1  0.3629925E-004  0.1481185E+03  0.7546771E-02  0.1212744E+00
          3   -1    0    0  501    0  0.00000000000E+00  0.00000000000E+00  0.63860605984E+02  0.63860605984E+02  0.00000000000E+00 0. -1.
         -3   -1    0    0    0  501 -0.00000000000E+00 -0.00000000000E+00 -0.36014178943E+03  0.36014178943E+03  0.00000000000E+00 0.  1.
         25    2    1    2    0    0  0.59816850737E+02  0.52313658997E+02 -0.25947311492E+03  0.29877313774E+03  0.12499726365E+03 0.  0.
         23    2    1    2    0    0 -0.59816850737E+02 -0.52313658997E+02 -0.36808068525E+02  0.12522925767E+03  0.89514012971E+02 0.  0.
          5    1    4    4  502    0 -0.33623215803E+02 -0.60334667550E+02  0.10832994293E+02  0.70073079814E+02  0.47000000000E+01 0. -1.
         -5    1    3    3    0  503  0.90732550641E+01  0.21105180989E+02  0.79461221553E+01  0.24758503172E+02  0.47000000000E+01 0. -1.
          5    1    3    3  503    0  0.50743595673E+02  0.31208478008E+02 -0.26741923708E+03  0.27401463457E+03  0.47000000000E+01 0. -1.
         -5    1    4    4    0  502 -0.26193634934E+02  0.80210085527E+01 -0.47641062818E+02  0.55156177856E+02  0.47000000000E+01 0.  1.
<mgrwt>
<rscale>  0 0.14043599E+03</rscale>
<asrwt>0</asrwt>
<pdfrwt beam="1">  1        3 0.98247088E-02 0.14811850E+03</pdfrwt>
<pdfrwt beam="2">  1       -3 0.55406428E-01 0.14811850E+03</pdfrwt>
<totfact> 0.57819024E+02</totfact>
</mgrwt>
</event>
<event>
 8    1  0.3629925E-004  0.1420605E+03  0.7546771E-02  0.1221183E+00
          1   -1    0    0  501    0  0.00000000000E+00  0.00000000000E+00  0.86366686723E+02  0.86366686723E+02  0.00000000000E+00 0. -1.
         -1   -1    0    0    0  501 -0.00000000000E+00 -0.00000000000E+00 -0.19269637539E+03  0.19269637539E+03  0.00000000000E+00 0.  1.
         25    2    1    2    0    0 -0.35428836101E+02 -0.57456434222E+02 -0.40067086666E+02  0.14760266422E+03  0.12499892316E+03 0.  0.
         23    2    1    2    0    0  0.35428836101E+02  0.57456434222E+02 -0.66262601999E+02  0.13146039789E+03  0.91294356499E+02 0.  0.
          5    1    3    3  502    0 -0.31053455255E+02 -0.83690451341E+02  0.10770409111E+02  0.90036106320E+02  0.47000000000E+01 0.  1.
         -5    1    4    4    0  503  0.65583671320E+02  0.31851805258E+02 -0.49441999628E+02  0.88217666990E+02  0.47000000000E+01 0.  1.
          5    1    4    4  503    0 -0.30154835219E+02  0.25604628964E+02 -0.16820602372E+02  0.43242730899E+02  0.47000000000E+01 0. -1.
         -5    1    3    3    0  502 -0.43753808456E+01  0.26234017119E+02 -0.50837495777E+02  0.57566557901E+02  0.47000000000E+01 0.  1.
<mgrwt>
<rscale>  0 0.13432015E+03</rscale>
<asrwt>0</asrwt>
<pdfrwt beam="1">  1        1 0.13287183E-01 0.14206046E+03</pdfrwt>
<pdfrwt beam="2">  1       -1 0.29645596E-01 0.14206046E+03</pdfrwt>
<totfact> 0.43808150E+03</totfact>
</mgrwt>
</event>
<event>
 8    1  0.3629925E-004  0.2788732E+03  0.7546771E-02  0.1097642E+00
          1   -1    0    0  501    0  0.00000000000E+00  0.00000000000E+00  0.36334507919E+03  0.36334507919E+03  0.00000000000E+00 0. -1.
         -1   -1    0    0    0  501 -0.00000000000E+00 -0.00000000000E+00 -0.20768797082E+03  0.20768797082E+03  0.00000000000E+00 0.  1.
         25    2    1    2    0    0  0.22141778557E+03 -0.11453697838E+03  0.98168397900E+02  0.29564722594E+03  0.12500277067E+03 0.  0.
         23    2    1    2    0    0 -0.22141778557E+03  0.11453697838E+03  0.57488710471E+02  0.27538582408E+03  0.10192077849E+03 0.  0.
          5    1    4    4  502    0 -0.66714590240E+02 -0.13363396869E+02  0.86462782970E+01  0.68747836730E+02  0.47000000000E+01 0.  1.
         -5    1    3    3    0  503  0.11036591072E+03  0.72192746019E-01  0.76864472115E+02  0.13457665673E+03  0.47000000000E+01 0. -1.
          5    1    3    3  503    0  0.11105187484E+03 -0.11460917113E+03  0.21303925786E+02  0.16107056921E+03  0.47000000000E+01 0. -1.
         -5    1    4    4    0  502 -0.15470319533E+03  0.12790037525E+03  0.48842432174E+02  0.20663798735E+03  0.47000000000E+01 0. -1.
<mgrwt>
<rscale>  0 0.27645316E+03</rscale>
<asrwt>0</asrwt>
<pdfrwt beam="1">  1        1 0.55899243E-01 0.27887318E+03</pdfrwt>
<pdfrwt beam="2">  1       -1 0.31951995E-01 0.27887318E+03</pdfrwt>
<totfact> 0.63110957E+02</totfact>
</mgrwt>
</event>
<event>
 8    1  0.3629925E-004  0.1462022E+03  0.7546771E-02  0.1215031E+00
          1   -1    0    0  501    0  0.00000000000E+00  0.00000000000E+00  0.54834508282E+03  0.54834508282E+03  0.00000000000E+00 0. -1.
         -1   -1    0    0    0  501 -0.00000000000E+00 -0.00000000000E+00 -0.32005759334E+02  0.32005759334E+02  0.00000000000E+00 0.  1.
         25    2    1    2    0    0 -0.15520527674E+02  0.74222063467E+02  0.27436162021E+03  0.31088485361E+03  0.12500116831E+03 0.  0.
         23    2    1    2    0    0  0.15520527674E+02 -0.74222063467E+02  0.24197770328E+03  0.26946598854E+03  0.91153215042E+02 0.  0.
          5    1    3    3  502    0  0.45160011385E+02  0.71541842219E+02  0.14617904285E+03  0.16896172461E+03  0.47000000000E+01 0. -1.
         -5    1    3    3    0  502 -0.60680539059E+02  0.26802212482E+01  0.12818257736E+03  0.14192312900E+03  0.47000000000E+01 0. -1.
          5    1    4    4  503    0  0.41325518779E+02 -0.19560741033E+02  0.16609493142E+03  0.17233698772E+03  0.47000000000E+01 0. -1.
         -5    1    4    4    0  503 -0.25804991106E+02 -0.54661322434E+02  0.75882771858E+02  0.97129000824E+02  0.47000000000E+01 0.  1.
<mgrwt>
<rscale>  0 0.13874224E+03</rscale>
<asrwt>0</asrwt>
<pdfrwt beam="1">  1        1 0.84360776E-01 0.14620224E+03</pdfrwt>
<pdfrwt beam="2">  1       -1 0.49239633E-02 0.14620224E+03</pdfrwt>
<totfact> 0.69185393E+03</totfact>
</mgrwt>
</event>
<event>
 8    1  0.3629925E-004  0.1370625E+03  0.7546771E-02  0.1231673E+00
          2   -1    0    0  501    0  0.00000000000E+00  0.00000000000E+00  0.14279258322E+03  0.14279258322E+03  0.00000000000E+00 0. -1.
         -2   -1    0    0    0  501 -0.00000000000E+00 -0.00000000000E+00 -0.10297689405E+03  0.10297689405E+03  0.00000000000E+00 0.  1.
         25    2    1    2    0    0  0.28771348723E+02 -0.48311500960E+02  0.13452258096E+01  0.13706914060E+03  0.12499739213E+03 0.  0.
         23    2    1    2    0    0 -0.28771348723E+02  0.48311500960E+02  0.38470463357E+02  0.10870033666E+03  0.84699439240E+02 0.  0.
          5    1    4    4  502    0 -0.37819074590E+02 -0.11773411582E+02  0.22081084947E+02  0.45591226520E+02  0.47000000000E+01 0. -1.
         -5    1    4    4    0  502  0.90477258670E+01  0.60084912542E+02  0.16389378410E+02  0.63109110144E+02  0.47000000000E+01 0.  1.
          5    1    3    3  503    0  0.24133313021E+02  0.39720206989E+01  0.55912773774E+02  0.61208839369E+02  0.47000000000E+01 0. -1.
         -5    1    3    3    0  503  0.46380357024E+01 -0.52283521658E+02 -0.54567547965E+02  0.75860301232E+02  0.47000000000E+01 0. -1.
<mgrwt>
<rscale>  0 0.12719851E+03</rscale>
<asrwt>0</asrwt>
<pdfrwt beam="1">  1        2 0.21968090E-01 0.13706254E+03</pdfrwt>
<pdfrwt beam="2">  1       -2 0.15842599E-01 0.13706254E+03</pdfrwt>
<totfact> 0.73781239E+03</totfact>
</mgrwt>
</event>
<event>
 8    1  0.3629925E-004  0.1659825E+03  0.7546771E-02  0.1189057E+00
         -2   -1    0    0    0  501 -0.00000000000E+00  0.00000000000E+00  0.24017407880E+02  0.24017407880E+02  0.00000000000E+00 0.  1.
          2   -1    0    0  501    0  0.00000000000E+00 -0.00000000000E+00 -0.98965709998E+03  0.98965709998E+03  0.00000000000E+00 0. -1.
         25    2    1    2    0    0  0.10182439252E+03 -0.39476629060E+02 -0.53761556849E+03  0.56265504445E+03  0.12499435347E+03 0.  0.
         23    2    1    2    0    0 -0.10182439252E+03  0.39476629060E+02 -0.42802412361E+03  0.45101946341E+03  0.91034580436E+02 0.  0.
          5    1    3    3  502    0  0.24161095614E+02 -0.65791715927E+02 -0.13988062780E+03  0.15652791591E+03  0.47000000000E+01 0.  1.
         -5    1    4    4    0  503 -0.11401681155E+03  0.18411239275E+02 -0.32145850197E+03  0.34160864382E+03  0.47000000000E+01 0.  1.
          5    1    4    4  503    0  0.12192419025E+02  0.21065389785E+02 -0.10656562164E+03  0.10941081959E+03  0.47000000000E+01 0. -1.
         -5    1    3    3    0  502  0.77663296908E+02  0.26315086866E+02 -0.39773494070E+03  0.40612712854E+03  0.47000000000E+01 0.  1.
<mgrwt>
<rscale>  0 0.15968093E+03</rscale>
<asrwt>0</asrwt>
<pdfrwt beam="1">  1        2 0.15225493E+00 0.16598253E+03</pdfrwt>
<pdfrwt beam="2">  1       -2 0.36949860E-02 0.16598253E+03</pdfrwt>
<totfact> 0.80677172E+03</totfact>
</mgrwt>
</event>
<event>
 8    1  0.3629925E-004  0.1663048E+03  0.7546771E-02  0.1187989E+00
         -1   -1    0    0    0  501 -0.00000000000E+00  0.00000000000E+00  0.25995040700E+03  0.25995040700E+03  0.00000000000E+00 0.  1.
          1   -1    0    0  501    0  0.00000000000E+00 -0.00000000000E+00 -0.30524295468E+03  0.30524295468E+03  0.00000000000E+00 0. -1.
         25    2    1    2    0    0 -0.10847505973E+03 -0.16290371862E+02 -0.25857422348E+03  0.30743766452E+03  0.12500029486E+03 0.  0.
         23    2    1    2    0    0  0.10847505973E+03  0.16290371862E+02  0.21328167580E+03  0.25775569717E+03  0.94428339989E+02 0.  0.
          5    1    3    3  502    0 -0.18380556165E+02  0.50468222814E+02 -0.90255829668E+02  0.10513368227E+03  0.47000000000E+01 0. -1.
         -5    1    4    4    0  503  0.27937100228E+02 -0.16515857919E+02  0.14044358360E+03  0.14422116803E+03  0.47000000000E+01 0.  1.
          5    1    4    4  503    0  0.80537959501E+02  0.32806229781E+02  0.72838092202E+02  0.11353452915E+03  0.47000000000E+01 0. -1.
         -5    1    3    3    0  502 -0.90094503564E+02 -0.66758594676E+02 -0.16831839382E+03  0.20230398224E+03  0.47000000000E+01 0. -1.
<mgrwt>
<rscale>  0 0.16062895E+03</rscale>
<asrwt>0</asrwt>
<pdfrwt beam="1">  1        1 0.46960454E-01 0.16630481E+03</pdfrwt>
<pdfrwt beam="2">  1       -1 0.39992370E-01 0.16630481E+03</pdfrwt>
<totfact> 0.53292957E+02</totfact>
</mgrwt>
</event>
<event>
 8    1  0.3629925E-004  0.1326249E+03  0.7546771E-02  0.1236664E+00
          2   -1    0    0  501    0  0.00000000000E+00  0.00000000000E+00  0.19005165953E+03  0.19005165953E+03  0.00000000000E+00 0. -1.
         -2   -1    0    0    0  501 -0.00000000000E+00 -0.00000000000E+00 -0.78289580178E+02  0.78289580178E+02  0.00000000000E+00 0.  1.
         25    2    1    2    0    0 -0.16313426870E+02 -0.41209667003E+02  0.24989351190E+02  0.13495863535E+03  0.12500000413E+03 0.  0.
         23    2    1    2    0    0  0.16313426870E+02  0.41209667003E+02  0.86772728158E+02  0.13338260435E+03  0.91088134471E+02 0.  0.
          5    1    3    3  502    0  0.44049917748E+02 -0.53924046434E+02  0.21370743093E+02  0.72986277462E+02  0.47000000000E+01 0. -1.
         -5    1    3    3    0  502 -0.60363344619E+02  0.12714379431E+02  0.36186080974E+01  0.61972357890E+02  0.47000000000E+01 0. -1.
          5    1    4    4  503    0 -0.77196360497E+01  0.23659502917E+02  0.98008329196E+02  0.10122789858E+03  0.47000000000E+01 0. -1.
         -5    1    4    4    0  503  0.24033062920E+02  0.17550164086E+02 -0.11235601038E+02  0.32154705774E+02  0.47000000000E+01 0.  1.
<mgrwt>
<rscale>  0 0.12398516E+03</rscale>
<asrwt>0</asrwt>
<pdfrwt beam="1">  1        2 0.29238717E-01 0.13262491E+03</pdfrwt>
<pdfrwt beam="2">  1       -2 0.12044551E-01 0.13262491E+03</pdfrwt>
<totfact> 0.83744941E+03</totfact>
</mgrwt>
</event>
<event>
 8    1  0.3629925E-004  0.1683901E+03  0.7546771E-02  0.1186071E+00
          2   -1    0    0  501    0  0.00000000000E+00  0.00000000000E+00  0.12613970590E+04  0.12613970590E+04  0.00000000000E+00 0. -1.
         -2   -1    0    0    0  501 -0.00000000000E+00 -0.00000000000E+00 -0.19993041699E+02  0.19993041699E+02  0.00000000000E+00 0.  1.
         25    2    1    2    0    0  0.36215204604E+02 -0.10686722134E+03  0.76256042228E+03  0.78093125542E+03  0.12499233585E+03 0.  0.
         23    2    1    2    0    0 -0.36215204604E+02  0.10686722134E+03  0.47884359503E+03  0.50045884529E+03  0.91846193645E+02 0.  0.
          5    1    3    3  502    0  0.40143048776E+02 -0.86887388860E+02  0.75092105503E+03  0.75701083453E+03  0.47000000000E+01 0.  1.
         -5    1    3    3    0  502 -0.39278441718E+01 -0.19979832475E+02  0.11639367251E+02  0.23920420890E+02  0.47000000000E+01 0.  1.
          5    1    4    4  503    0  0.11166383066E+02  0.30396900957E+02  0.28306385407E+03  0.28494893434E+03  0.47000000000E+01 0. -1.
         -5    1    4    4    0  503 -0.47381587670E+02  0.76470320378E+02  0.19577974096E+03  0.21550991096E+03  0.47000000000E+01 0.  1.
<mgrwt>
<rscale>  0 0.16234805E+03</rscale>
<asrwt>0</asrwt>
<pdfrwt beam="1">  1        2 0.19406102E+00 0.16839011E+03</pdfrwt>
<pdfrwt beam="2">  1       -2 0.30758536E-02 0.16839011E+03</pdfrwt>
<totfact> 0.73993575E+03</totfact>
</mgrwt>
</event>
<event>
 8    1  0.3629925E-004  0.1427648E+03  0.7546771E-02  0.1218983E+00
         -1   -1    0    0    0  501 -0.00000000000E+00  0.00000000000E+00  0.24254833684E+02  0.24254833684E+02  0.00000000000E+00 0.  1.
          1   -1    0    0  501    0  0.00000000000E+00 -0.00000000000E+00 -0.72688000606E+03  0.72688000606E+03  0.00000000000E+00 0. -1.
         25    2    1    2    0    0  0.32720484534E+02  0.60762842484E+02 -0.30784059481E+03  0.33933407711E+03  0.12497612148E+03 0.  0.
         23    2    1    2    0    0 -0.32720484534E+02 -0.60762842484E+02 -0.39478457756E+03  0.41180076263E+03  0.94669172845E+02 0.  0.
          5    1    4    4  502    0 -0.26124905777E+02 -0.86147133268E+02 -0.31769416086E+03  0.33023553582E+03  0.47000000000E+01 0. -1.
         -5    1    3    3    0  503  0.49618500211E+02 -0.15063524913E+02 -0.19789230813E+03  0.20462737100E+03  0.47000000000E+01 0.  1.
          5    1    3    3  503    0 -0.16898015677E+02  0.75826367397E+02 -0.10994828668E+03  0.13470670611E+03  0.47000000000E+01 0.  1.
         -5    1    4    4    0  502 -0.65955787574E+01  0.25384290784E+02 -0.77090416701E+02  0.81565226812E+02  0.47000000000E+01 0.  1.
<mgrwt>
<rscale>  0 0.13587980E+03</rscale>
<asrwt>0</asrwt>
<pdfrwt beam="1">  1        1 0.11182769E+00 0.14276479E+03</pdfrwt>
<pdfrwt beam="2">  1       -1 0.37315131E-02 0.14276479E+03</pdfrwt>
<totfact> 0.70325758E+03</totfact>
</mgrwt>
</event>
<event>
 8    1  0.3629925E-004  0.1465220E+03  0.7546771E-02  0.1215021E+00
          2   -1    0    0  501    0  0.00000000000E+00  0.00000000000E+00  0.28561915978E+03  0.28561915978E+03  0.00000000000E+00 0. -1.
         -2   -1    0    0    0  501 -0.00000000000E+00 -0.00000000000E+00 -0.88628800364E+02  0.88628800364E+02  0.00000000000E+00 0.  1.
         25    2    1    2    0    0 -0.35727893110E+02  0.67578159491E+02  0.21303107247E+01  0.14653750856E+03  0.12500165281E+03 0.  0.
         23    2    1    2    0    0  0.35727893110E+02 -0.67578159491E+02  0.19486004869E+03  0.22771045158E+03  0.89656685174E+02 0.  0.
          5    1    3    3  502    0 -0.31009603553E+01  0.65490286238E+02 -0.51532615093E+02  0.83524211849E+02  0.47000000000E+01 0. -1.
         -5    1    3    3    0  502 -0.32626932755E+02  0.20878732532E+01  0.53662925818E+02  0.63013296716E+02  0.47000000000E+01 0. -1.
          5    1    4    4  503    0 -0.16853077859E+02 -0.22802280801E+02  0.12900073828E+03  0.13216372695E+03  0.47000000000E+01 0. -1.
         -5    1    4    4    0  503  0.52580970969E+02 -0.44775878690E+02  0.65859310408E+02  0.95546724632E+02  0.47000000000E+01 0.  1.
<mgrwt>
<rscale>  0 0.13874974E+03</rscale>
<asrwt>0</asrwt>
<pdfrwt beam="1">  1        2 0.43941409E-01 0.14652202E+03</pdfrwt>
<pdfrwt beam="2">  1       -2 0.13635200E-01 0.14652202E+03</pdfrwt>
<totfact> 0.44619677E+03</totfact>
</mgrwt>
</event>
<event>
 8    1  0.3629925E-004  0.1598815E+03  0.7546771E-02  0.1196439E+00
          1   -1    0    0  501    0  0.00000000000E+00  0.00000000000E+00  0.12534345847E+04  0.12534345847E+04  0.00000000000E+00 0. -1.
         -1   -1    0    0    0  501 -0.00000000000E+00 -0.00000000000E+00 -0.17520281102E+02  0.17520281102E+02  0.00000000000E+00 0.  1.
         25    2    1    2    0    0  0.73017952608E+02 -0.67866368503E+02  0.72734608822E+03  0.74471096971E+03  0.12499852389E+03 0.  0.
         23    2    1    2    0    0 -0.73017952608E+02  0.67866368503E+02  0.50856821540E+03  0.52624389612E+03  0.91397719382E+02 0.  0.
          5    1    3    3  502    0  0.64945399133E+02 -0.95983374557E+02  0.67197516410E+03  0.68191159561E+03  0.47000000000E+01 0. -1.
         -5    1    3    3    0  502  0.80725534746E+01  0.28117006054E+02  0.55370924122E+02  0.62799374099E+02  0.47000000000E+01 0. -1.
          5    1    4    4  503    0 -0.31364719955E+02  0.83977826138E+02  0.36103944464E+03  0.37203170769E+03  0.47000000000E+01 0. -1.
         -5    1    4    4    0  503 -0.41653232653E+02 -0.16111457634E+02  0.14752877076E+03  0.15421218843E+03  0.47000000000E+01 0.  1.
<mgrwt>
<rscale>  0 0.15333044E+03</rscale>
<asrwt>0</asrwt>
<pdfrwt beam="1">  1        1 0.19283602E+00 0.15988151E+03</pdfrwt>
<pdfrwt beam="2">  1       -1 0.26954288E-02 0.15988151E+03</pdfrwt>
<totfact> 0.45823893E+03</totfact>
</mgrwt>
</event>
<event>
 8    1  0.3629925E-004  0.1823596E+03  0.7546771E-02  0.1170783E+00
          2   -1    0    0  501    0  0.00000000000E+00  0.00000000000E+00  0.14514979339E+04  0.14514979339E+04  0.00000000000E+00 0. -1.
         -2   -1    0    0    0  501 -0.00000000000E+00 -0.00000000000E+00 -0.30309932605E+02  0.30309932605E+02  0.00000000000E+00 0.  1.
         25    2    1    2    0    0 -0.10485775015E+03 -0.81451818696E+02  0.31590186593E+03  0.36475883859E+03  0.12500189956E+03 0.  0.
         23    2    1    2    0    0  0.10485775015E+03  0.81451818696E+02  0.11052861354E+04  0.11170490280E+04  0.92258025178E+02 0.  0.
          5    1    4    4  502    0  0.29880552454E+02  0.77461446889E+02  0.69122044424E+03  0.69620465073E+03  0.47000000000E+01 0. -1.
         -5    1    4    4    0  502  0.74977197694E+02  0.39903718073E+01  0.41406569117E+03  0.42084437723E+03  0.47000000000E+01 0.  1.
          5    1    3    3  503    0 -0.29670751825E+02  0.21090385224E+02  0.15677938136E+03  0.16101870166E+03  0.47000000000E+01 0. -1.
         -5    1    3    3    0  503 -0.75186998323E+02 -0.10254220392E+03  0.15912248457E+03  0.20374013693E+03  0.47000000000E+01 0. -1.
<mgrwt>
<rscale>  0 0.17695463E+03</rscale>
<asrwt>0</asrwt>
<pdfrwt beam="1">  1        2 0.22330732E+00 0.18235959E+03</pdfrwt>
<pdfrwt beam="2">  1       -2 0.46630677E-02 0.18235959E+03</pdfrwt>
<totfact> 0.31461444E+03</totfact>
</mgrwt>
</event>
<event>
 8    1  0.3629925E-004  0.1316060E+03  0.7546771E-02  0.1238825E+00
          2   -1    0    0  501    0  0.00000000000E+00  0.00000000000E+00  0.11654747362E+04  0.11654747362E+04  0.00000000000E+00 0. -1.
         -2   -1    0    0    0  501 -0.00000000000E+00 -0.00000000000E+00 -0.11438935824E+02  0.11438935824E+02  0.00000000000E+00 0.  1.
         25    2    1    2    0    0 -0.35086935755E+02 -0.21535639298E+02  0.67660023913E+03  0.68928080770E+03  0.12500108582E+03 0.  0.
         23    2    1    2    0    0  0.35086935755E+02  0.21535639298E+02  0.47743556127E+03  0.48763286435E+03  0.90256403670E+02 0.  0.
          5    1    4    4  502    0  0.28930488703E+02 -0.26272618478E+02  0.33244988859E+03  0.33477192547E+03  0.47000000000E+01 0. -1.
         -5    1    4    4    0  502  0.61564470519E+01  0.47808257776E+02  0.14498567269E+03  0.15286093888E+03  0.47000000000E+01 0.  1.
          5    1    3    3  503    0 -0.77743996639E+02 -0.22854836083E+02  0.32124222490E+03  0.33133839138E+03  0.47000000000E+01 0.  1.
         -5    1    3    3    0  503  0.42657060884E+02  0.13191967857E+01  0.35535801423E+03  0.35794241632E+03  0.47000000000E+01 0.  1.
<mgrwt>
<rscale>  0 0.12262733E+03</rscale>
<asrwt>0</asrwt>
<pdfrwt beam="1">  1        2 0.17930371E+00 0.13160603E+03</pdfrwt>
<pdfrwt beam="2">  1       -2 0.17598372E-02 0.13160603E+03</pdfrwt>
<totfact> 0.18673295E+04</totfact>
</mgrwt>
</event>
<event>
 8    1  0.3629925E-004  0.1422567E+03  0.7546771E-02  0.1222554E+00
         -2   -1    0    0    0  501 -0.00000000000E+00  0.00000000000E+00  0.27026409247E+02  0.27026409247E+02  0.00000000000E+00 0.  1.
          2   -1    0    0  501    0  0.00000000000E+00 -0.00000000000E+00 -0.10057338018E+04  0.10057338018E+04  0.00000000000E+00 0. -1.
         25    2    1    2    0    0  0.50464380126E+02  0.45445037399E+02 -0.85728554808E+03  0.86900833045E+03  0.12500024941E+03 0.  0.
         23    2    1    2    0    0 -0.50464380126E+02 -0.45445037399E+02 -0.12142184449E+03  0.16375188062E+03  0.86368449105E+02 0.  0.
          5    1    4    4  502    0 -0.64497218806E+02 -0.17171409415E+02 -0.11202368396E+03  0.13048426841E+03  0.47000000000E+01 0. -1.
         -5    1    4    4    0  502  0.14032838681E+02 -0.28273627984E+02 -0.93981605380E+01  0.33267612212E+02  0.47000000000E+01 0.  1.
          5    1    3    3  503    0  0.90831392923E+02  0.42330226807E+02 -0.65727942039E+03  0.66489135692E+03  0.47000000000E+01 0. -1.
         -5    1    3    3    0  503 -0.40367012797E+02  0.31148105917E+01 -0.20000612769E+03  0.20411697352E+03  0.47000000000E+01 0. -1.
<mgrwt>
<rscale>  0 0.13335961E+03</rscale>
<asrwt>0</asrwt>
<pdfrwt beam="1">  1        2 0.15472827E+00 0.14225670E+03</pdfrwt>
<pdfrwt beam="2">  1       -2 0.41579092E-02 0.14225670E+03</pdfrwt>
<totfact> 0.65728797E+03</totfact>
</mgrwt>
</event>
<event>
 8    1  0.3629925E-004  0.1544180E+03  0.7546771E-02  0.1203644E+00
         -1   -1    0    0    0  501 -0.00000000000E+00  0.00000000000E+00  0.15559818933E+02  0.15559818933E+02  0.00000000000E+00 0. -1.
          1   -1    0    0  501    0  0.00000000000E+00 -0.00000000000E+00 -0.12878787911E+04  0.12878787911E+04  0.00000000000E+00 0.  1.
         25    2    1    2    0    0  0.90607649279E+02  0.32290993034E+01 -0.72601542842E+03  0.74225556214E+03  0.12499897615E+03 0.  0.
         23    2    1    2    0    0 -0.90607649279E+02 -0.32290993034E+01 -0.54630354371E+03  0.56118304785E+03  0.90877269634E+02 0.  0.
          5    1    3    3  502    0  0.73746392485E+02  0.26123594180E+02 -0.69688389445E+03  0.70127756624E+03  0.47000000000E+01 0.  1.
         -5    1    4    4    0  503 -0.69159112075E+02 -0.18629096456E+02 -0.51492924765E+03  0.51990792079E+03  0.47000000000E+01 0.  1.
          5    1    4    4  503    0 -0.21448537204E+02  0.15399997153E+02 -0.31374296061E+02  0.41275127060E+02  0.47000000000E+01 0.  1.
         -5    1    3    3    0  502  0.16861256795E+02 -0.22894494876E+02 -0.29131533974E+02  0.40977995900E+02  0.47000000000E+01 0.  1.
<mgrwt>
<rscale>  0 0.14744814E+03</rscale>
<asrwt>0</asrwt>
<pdfrwt beam="1">  1        1 0.19813531E+00 0.15441800E+03</pdfrwt>
<pdfrwt beam="2">  1       -1 0.23938170E-02 0.15441800E+03</pdfrwt>
<totfact> 0.51564486E+03</totfact>
</mgrwt>
</event>
<event>
 8    1  0.3629925E-004  0.1726691E+03  0.7546771E-02  0.1181526E+00
         -2   -1    0    0    0  501 -0.00000000000E+00  0.00000000000E+00  0.88534196978E+02  0.88534196978E+02  0.00000000000E+00 0.  1.
          2   -1    0    0  501    0  0.00000000000E+00 -0.00000000000E+00 -0.32156128637E+03  0.32156128637E+03  0.00000000000E+00 0. -1.
         25    2    1    2    0    0  0.17495202674E+02  0.11783615036E+03 -0.18534457681E+03  0.25331251206E+03  0.12499270446E+03 0.  0.
         23    2    1    2    0    0 -0.17495202674E+02 -0.11783615036E+03 -0.47682512585E+02  0.15678297129E+03  0.90087943875E+02 0.  0.
          5    1    3    3  502    0 -0.29801338763E+02  0.73098966077E+02 -0.16814400265E+03  0.18581193250E+03  0.47000000000E+01 0.  1.
         -5    1    3    3    0  502  0.47296541437E+02  0.44737184280E+02 -0.17200574155E+02  0.67500579556E+02  0.47000000000E+01 0.  1.
          5    1    4    4  503    0  0.34906474103E+02 -0.44259995390E+02 -0.31979929918E+02  0.64978573728E+02  0.47000000000E+01 0. -1.
         -5    1    4    4    0  503 -0.52401676776E+02 -0.73576154967E+02 -0.15702582668E+02  0.91804397559E+02  0.47000000000E+01 0.  1.
<mgrwt>
<rscale>  0 0.16652015E+03</rscale>
<asrwt>0</asrwt>
<pdfrwt beam="1">  1        2 0.49470966E-01 0.17266910E+03</pdfrwt>
<pdfrwt beam="2">  1       -2 0.13620646E-01 0.17266910E+03</pdfrwt>
<totfact> 0.39721011E+03</totfact>
</mgrwt>
</event>
<event>
 8    1  0.3629925E-004  0.1277131E+03  0.7546771E-02  0.1245228E+00
          2   -1    0    0  501    0  0.00000000000E+00  0.00000000000E+00  0.10566116662E+03  0.10566116662E+03  0.00000000000E+00 0. -1.
         -2   -1    0    0    0  501 -0.00000000000E+00 -0.00000000000E+00 -0.16367176652E+03  0.16367176652E+03  0.00000000000E+00 0.  1.
         25    2    1    2    0    0  0.10216400625E+02 -0.24104452346E+02  0.38769444897E+02  0.13346801485E+03  0.12500096665E+03 0.  0.
         23    2    1    2    0    0 -0.10216400625E+02  0.24104452346E+02 -0.96780044791E+02  0.13586491830E+03  0.91692417841E+02 0.  0.
          5    1    4    4  502    0  0.10186826181E+02  0.28031964009E+02  0.60990609889E+01  0.30803424790E+02  0.47000000000E+01 0. -1.
         -5    1    4    4    0  502 -0.20403226806E+02 -0.39275116627E+01 -0.10287910578E+03  0.10506149351E+03  0.47000000000E+01 0.  1.
          5    1    3    3  503    0  0.29249295152E+02  0.38146648171E+02  0.47354757945E+02  0.67640602700E+02  0.47000000000E+01 0. -1.
         -5    1    3    3    0  503 -0.19032894527E+02 -0.62251100517E+02 -0.85853130478E+01  0.65827412146E+02  0.47000000000E+01 0. -1.
<mgrwt>
<rscale>  0 0.11871742E+03</rscale>
<asrwt>0</asrwt>
<pdfrwt beam="1">  1        2 0.16255564E-01 0.12771312E+03</pdfrwt>
<pdfrwt beam="2">  1       -2 0.25180272E-01 0.12771312E+03</pdfrwt>
<totfact> 0.47218281E+03</totfact>
</mgrwt>
</event>
<event>
 8    1  0.3629925E-004  0.1623839E+03  0.7546771E-02  0.1193510E+00
         -2   -1    0    0    0  501 -0.00000000000E+00  0.00000000000E+00  0.65035525252E+02  0.65035525252E+02  0.00000000000E+00 0.  1.
          2   -1    0    0  501    0  0.00000000000E+00 -0.00000000000E+00 -0.46233351172E+03  0.46233351172E+03  0.00000000000E+00 0. -1.
         25    2    1    2    0    0 -0.18267479341E+00 -0.10366911178E+03 -0.34282400388E+03  0.37933733462E+03  0.12498478986E+03 0.  0.
         23    2    1    2    0    0  0.18267479341E+00  0.10366911178E+03 -0.54473982592E+02  0.14803170235E+03  0.90546408062E+02 0.  0.
          5    1    4    4  502    0  0.33665316382E+02  0.44220513984E+02 -0.56793491904E+02  0.79601495632E+02  0.47000000000E+01 0. -1.
         -5    1    3    3    0  503 -0.53888164310E+02 -0.30569572378E+02 -0.80213627080E+02  0.10146304242E+03  0.47000000000E+01 0.  1.
          5    1    3    3  503    0  0.53705489517E+02 -0.73099539405E+02 -0.26261037680E+03  0.27787429220E+03  0.47000000000E+01 0.  1.
         -5    1    4    4    0  502 -0.33482641588E+02  0.59448597799E+02  0.23195093119E+01  0.68430206717E+02  0.47000000000E+01 0.  1.
<mgrwt>
<rscale>  0 0.15581051E+03</rscale>
<asrwt>0</asrwt>
<pdfrwt beam="1">  1        2 0.71128231E-01 0.16238385E+03</pdfrwt>
<pdfrwt beam="2">  1       -2 0.10005466E-01 0.16238385E+03</pdfrwt>
<totfact> 0.43908353E+03</totfact>
</mgrwt>
</event>
<event>
 8    1  0.3629925E-004  0.1713748E+03  0.7546771E-02  0.1182967E+00
         -2   -1    0    0    0  501 -0.00000000000E+00  0.00000000000E+00  0.11303604496E+03  0.11303604496E+03  0.00000000000E+00 0.  1.
          2   -1    0    0  501    0  0.00000000000E+00 -0.00000000000E+00 -0.24368671226E+03  0.24368671226E+03  0.00000000000E+00 0. -1.
         25    2    1    2    0    0 -0.11257470720E+02  0.11669007802E+03 -0.11840628967E+03  0.20830114009E+03  0.12500404223E+03 0.  0.
         23    2    1    2    0    0  0.11257470720E+02 -0.11669007802E+03 -0.12244377623E+02  0.14842161713E+03  0.90198374112E+02 0.  0.
          5    1    3    3  502    0  0.58963305083E+01  0.38028869393E+02 -0.12155990807E+03  0.12759256589E+03  0.47000000000E+01 0.  1.
         -5    1    3    3    0  502 -0.17153801228E+02  0.78661208631E+02  0.31536184001E+01  0.80708574197E+02  0.47000000000E+01 0.  1.
          5    1    4    4  503    0  0.45682669142E+02 -0.33829918767E+02 -0.13284949363E+02  0.58565771090E+02  0.47000000000E+01 0. -1.
         -5    1    4    4    0  503 -0.34425198422E+02 -0.82860159257E+02  0.10405717398E+01  0.89855846042E+02  0.47000000000E+01 0.  1.
<mgrwt>
<rscale>  0 0.16518239E+03</rscale>
<asrwt>0</asrwt>
<pdfrwt beam="1">  1        2 0.37490264E-01 0.17137478E+03</pdfrwt>
<pdfrwt beam="2">  1       -2 0.17390161E-01 0.17137478E+03</pdfrwt>
<totfact> 0.35711216E+03</totfact>
</mgrwt>
</event>
<event>
 8    1  0.3629925E-004  0.1264374E+03  0.7546771E-02  0.1247067E+00
         -1   -1    0    0    0  501 -0.00000000000E+00  0.00000000000E+00  0.37882208560E+02  0.37882208560E+02  0.00000000000E+00 0.  1.
          1   -1    0    0  501    0  0.00000000000E+00 -0.00000000000E+00 -0.40771828634E+03  0.40771828634E+03  0.00000000000E+00 0. -1.
         25    2    1    2    0    0 -0.54756267328E+01 -0.18206402416E+02 -0.10503662151E+03  0.16437487440E+03  0.12499980760E+03 0.  0.
         23    2    1    2    0    0  0.54756267328E+01  0.18206402416E+02 -0.26479945627E+03  0.28122562050E+03  0.92777378738E+02 0.  0.
          5    1    3    3  502    0 -0.40812051787E+02  0.28335718106E+02 -0.91472372129E+02  0.10420087022E+03  0.47000000000E+01 0.  1.
         -5    1    4    4    0  503 -0.14639856626E+02 -0.20810094511E+02 -0.20615357577E+02  0.33082750847E+02  0.47000000000E+01 0.  1.
          5    1    4    4  503    0  0.20115483358E+02  0.39016496927E+02 -0.24418409869E+03  0.24814286965E+03  0.47000000000E+01 0. -1.
         -5    1    3    3    0  502  0.35336425054E+02 -0.46542120521E+02 -0.13564249380E+02  0.60174004184E+02  0.47000000000E+01 0.  1.
<mgrwt>
<rscale>  0 0.11762515E+03</rscale>
<asrwt>0</asrwt>
<pdfrwt beam="1">  1        1 0.62725892E-01 0.12643737E+03</pdfrwt>
<pdfrwt beam="2">  1       -1 0.58280319E-02 0.12643737E+03</pdfrwt>
<totfact> 0.78320174E+03</totfact>
</mgrwt>
</event>
<event>
 8    1  0.3629925E-004  0.1288960E+03  0.7546771E-02  0.1243634E+00
          1   -1    0    0  501    0  0.00000000000E+00  0.00000000000E+00  0.17622613724E+03  0.17622613724E+03  0.00000000000E+00 0. -1.
         -1   -1    0    0    0  501 -0.00000000000E+00 -0.00000000000E+00 -0.72128788201E+02  0.72128788201E+02  0.00000000000E+00 0.  1.
         25    2    1    2    0    0  0.30252435296E+02  0.86132589156E+01  0.70032937394E+02  0.14669281023E+03  0.12499908073E+03 0.  0.
         23    2    1    2    0    0 -0.30252435296E+02 -0.86132589156E+01  0.34064411641E+02  0.10166211520E+03  0.90473219555E+02 0.  0.
          5    1    3    3  502    0 -0.22795137783E+02  0.19797809103E+02  0.84941571176E+02  0.90270327714E+02  0.47000000000E+01 0. -1.
         -5    1    3    3    0  502  0.53047573078E+02 -0.11184550187E+02 -0.14908633782E+02  0.56422482519E+02  0.47000000000E+01 0. -1.
          5    1    4    4  503    0 -0.30045183113E+02  0.37456363113E+02  0.25486897687E+02  0.54565228119E+02  0.47000000000E+01 0. -1.
         -5    1    4    4    0  503 -0.20725218260E+00 -0.46069622029E+02  0.85775139538E+01  0.47096887084E+02  0.47000000000E+01 0.  1.
<mgrwt>
<rscale>  0 0.11967517E+03</rscale>
<asrwt>0</asrwt>
<pdfrwt beam="1">  1        1 0.27111713E-01 0.12889596E+03</pdfrwt>
<pdfrwt beam="2">  1       -1 0.11096737E-01 0.12889596E+03</pdfrwt>
<totfact> 0.84087666E+03</totfact>
</mgrwt>
</event>
<event>
 8    1  0.3629925E-004  0.1264346E+03  0.7546771E-02  0.1246221E+00
         -1   -1    0    0    0  501 -0.00000000000E+00  0.00000000000E+00  0.21896073692E+02  0.21896073692E+02  0.00000000000E+00 0. -1.
          1   -1    0    0  501    0  0.00000000000E+00 -0.00000000000E+00 -0.59213133589E+03  0.59213133589E+03  0.00000000000E+00 0.  1.
         25    2    1    2    0    0  0.12296452041E+02  0.14396703337E+02 -0.25880745525E+03  0.28803996147E+03  0.12500901052E+03 0.  0.
         23    2    1    2    0    0 -0.12296452041E+02 -0.14396703337E+02 -0.31142780696E+03  0.32598744812E+03  0.94456707475E+02 0.  0.
          5    1    4    4  502    0 -0.40518629620E+02 -0.35158938476E+02 -0.12299689201E+03  0.13426926582E+03  0.47000000000E+01 0. -1.
         -5    1    3    3    0  503 -0.51299913892E+02  0.13587444619E+02 -0.65197912033E+02  0.84197135047E+02  0.47000000000E+01 0.  1.
          5    1    3    3  503    0  0.63596365932E+02  0.80925871835E+00 -0.19360954321E+03  0.20384282642E+03  0.47000000000E+01 0.  1.
         -5    1    4    4    0  502  0.28222177580E+02  0.20762235139E+02 -0.18843091495E+03  0.19171818230E+03  0.47000000000E+01 0.  1.
<mgrwt>
<rscale>  0 0.11812620E+03</rscale>
<asrwt>0</asrwt>
<pdfrwt beam="1">  1        1 0.91097130E-01 0.12643465E+03</pdfrwt>
<pdfrwt beam="2">  1       -1 0.33686267E-02 0.12643465E+03</pdfrwt>
<totfact> 0.10799047E+04</totfact>
</mgrwt>
</event>
<event>
 8    1  0.3629925E-004  0.1334647E+03  0.7546771E-02  0.1235988E+00
         -2   -1    0    0    0  501 -0.00000000000E+00  0.00000000000E+00  0.82517435457E+02  0.82517435457E+02  0.00000000000E+00 0.  1.
          2   -1    0    0  501    0  0.00000000000E+00 -0.00000000000E+00 -0.19623411495E+03  0.19623411495E+03  0.00000000000E+00 0. -1.
         25    2    1    2    0    0  0.32358421375E+02 -0.33764405554E+02 -0.11761690777E+03  0.17789479713E+03  0.12500287732E+03 0.  0.
         23    2    1    2    0    0 -0.32358421375E+02  0.33764405554E+02  0.39002282687E+01  0.10085675328E+03  0.89273570469E+02 0.  0.
          5    1    3    3  502    0  0.73846439596E+02  0.71528921837E+01 -0.74569198296E+02  0.10529537427E+03  0.47000000000E+01 0.  1.
         -5    1    3    3    0  502 -0.41488018221E+02 -0.40917297738E+02 -0.43047709470E+02  0.72599422868E+02  0.47000000000E+01 0.  1.
          5    1    4    4  503    0 -0.13383383909E+02  0.52515763354E+02 -0.26186553880E+02  0.60372559740E+02  0.47000000000E+01 0. -1.
         -5    1    4    4    0  503 -0.18975037465E+02 -0.18751357799E+02  0.30086782149E+02  0.40484193535E+02  0.47000000000E+01 0.  1.
<mgrwt>
<rscale>  0 0.12441415E+03</rscale>
<asrwt>0</asrwt>
<pdfrwt beam="1">  1        2 0.30189863E-01 0.13346468E+03</pdfrwt>
<pdfrwt beam="2">  1       -2 0.12694990E-01 0.13346468E+03</pdfrwt>
<totfact> 0.74393653E+03</totfact>
</mgrwt>
</event>
<event>
 8    1  0.3629925E-004  0.2902634E+03  0.7546771E-02  0.1091998E+00
         -1   -1    0    0    0  501 -0.00000000000E+00  0.00000000000E+00  0.13250648028E+03  0.13250648028E+03  0.00000000000E+00 0.  1.
          1   -1    0    0  501    0  0.00000000000E+00 -0.00000000000E+00 -0.76146423651E+03  0.76146423651E+03  0.00000000000E+00 0. -1.
         25    2    1    2    0    0 -0.21177384406E+03 -0.15420750127E+03 -0.11904789236E+03  0.31372800979E+03  0.12499899590E+03 0.  0.
         23    2    1    2    0    0  0.21177384406E+03  0.15420750127E+03 -0.50990986387E+03  0.58024270701E+03  0.89696238989E+02 0.  0.
          5    1    4    4  502    0  0.18379907428E+03  0.86112155283E+02 -0.36680994288E+03  0.41924816898E+03  0.47000000000E+01 0. -1.
         -5    1    4    4    0  502  0.27974769781E+02  0.68095345986E+02 -0.14309992099E+03  0.16099453803E+03  0.47000000000E+01 0.  1.
          5    1    3    3  503    0 -0.71370141893E+02  0.10999926306E+02 -0.41485622510E+02  0.83413682377E+02  0.47000000000E+01 0. -1.
         -5    1    3    3    0  503 -0.14040370216E+03 -0.16520742757E+03 -0.77562269849E+02  0.23031432741E+03  0.47000000000E+01 0. -1.
<mgrwt>
<rscale>  0 0.28686326E+03</rscale>
<asrwt>0</asrwt>
<pdfrwt beam="1">  1        1 0.11714835E+00 0.29026344E+03</pdfrwt>
<pdfrwt beam="2">  1       -1 0.20385612E-01 0.29026344E+03</pdfrwt>
<totfact> 0.48772390E+02</totfact>
</mgrwt>
</event>
<event>
 8    1  0.3629925E-004  0.1561130E+03  0.7546771E-02  0.1201056E+00
         -2   -1    0    0    0  501 -0.00000000000E+00  0.00000000000E+00  0.28042850362E+02  0.28042850362E+02  0.00000000000E+00 0. -1.
          2   -1    0    0  501    0  0.00000000000E+00 -0.00000000000E+00 -0.90698374651E+03  0.90698374651E+03  0.00000000000E+00 0.  1.
         25    2    1    2    0    0 -0.25777027907E+02 -0.89900878457E+02 -0.26831945047E+03  0.31042971624E+03  0.12499863242E+03 0.  0.
         23    2    1    2    0    0  0.25777027907E+02  0.89900878457E+02 -0.61062144568E+03  0.62459688064E+03  0.92282665014E+02 0.  0.
          5    1    3    3  502    0 -0.38047011967E+02 -0.16968471141E+02 -0.11992407167E+02  0.43605182744E+02  0.47000000000E+01 0. -1.
         -5    1    3    3    0  502  0.12269984060E+02 -0.72932407316E+02 -0.25632704330E+03  0.26682453349E+03  0.47000000000E+01 0. -1.
          5    1    4    4  503    0 -0.10816379570E+02  0.62886912912E+02 -0.17056349785E+03  0.18216957672E+03  0.47000000000E+01 0. -1.
         -5    1    4    4    0  503  0.36593407477E+02  0.27013965545E+02 -0.44005794783E+03  0.44242730392E+03  0.47000000000E+01 0.  1.
<mgrwt>
<rscale>  0 0.14952645E+03</rscale>
<asrwt>0</asrwt>
<pdfrwt beam="1">  1        2 0.13953594E+00 0.15611304E+03</pdfrwt>
<pdfrwt beam="2">  1       -2 0.43142852E-02 0.15611304E+03</pdfrwt>
<totfact> 0.71814718E+03</totfact>
</mgrwt>
</event>
<event>
 8    1  0.3629925E-004  0.2216086E+03  0.7546771E-02  0.1136090E+00
         -1   -1    0    0    0  501 -0.00000000000E+00  0.00000000000E+00  0.17011252738E+03  0.17011252738E+03  0.00000000000E+00 0.  1.
          1   -1    0    0  501    0  0.00000000000E+00 -0.00000000000E+00 -0.33772504947E+03  0.33772504947E+03  0.00000000000E+00 0. -1.
         25    2    1    2    0    0 -0.82696701948E+02  0.16323991211E+03  0.30237668009E+02  0.22366197670E+03  0.12499739932E+03 0.  0.
         23    2    1    2    0    0  0.82696701948E+02 -0.16323991211E+03 -0.19785019010E+03  0.28417560015E+03  0.90139117911E+02 0.  0.
          5    1    4    4  502    0  0.62012171709E+02 -0.50842437161E+02 -0.12493303580E+03  0.14852883993E+03  0.47000000000E+01 0. -1.
         -5    1    4    4    0  502  0.20684530239E+02 -0.11239747495E+03 -0.72917154295E+02  0.13564676021E+03  0.47000000000E+01 0.  1.
          5    1    3    3  503    0 -0.43650178760E+02  0.16972755360E+03  0.45265898810E+02  0.18106317172E+03  0.47000000000E+01 0. -1.
         -5    1    3    3    0  503 -0.39046523188E+02 -0.64876414901E+01 -0.15028230802E+02  0.42598804986E+02  0.47000000000E+01 0. -1.
<mgrwt>
<rscale>  0 0.21706562E+03</rscale>
<asrwt>0</asrwt>
<pdfrwt beam="1">  1        1 0.51957700E-01 0.22160858E+03</pdfrwt>
<pdfrwt beam="2">  1       -1 0.26171158E-01 0.22160858E+03</pdfrwt>
<totfact> 0.97136631E+02</totfact>
</mgrwt>
</event>
<event>
 8    1  0.3629925E-004  0.1880351E+03  0.7546771E-02  0.1165155E+00
         -1   -1    0    0    0  501 -0.00000000000E+00  0.00000000000E+00  0.28050177017E+02  0.28050177017E+02  0.00000000000E+00 0.  1.
          1   -1    0    0  501    0  0.00000000000E+00 -0.00000000000E+00 -0.11752299936E+04  0.11752299936E+04  0.00000000000E+00 0. -1.
         25    2    1    2    0    0 -0.11418396353E+03  0.81814383572E+02 -0.72450245207E+03  0.74850584742E+03  0.12500251870E+03 0.  0.
         23    2    1    2    0    0  0.11418396353E+03 -0.81814383572E+02 -0.42267736453E+03  0.45477432321E+03  0.91825702732E+02 0.  0.
          5    1    3    3  502    0 -0.81972996186E+02  0.18934689287E+02 -0.59476544815E+03  0.60070468857E+03  0.47000000000E+01 0.  1.
         -5    1    4    4    0  503  0.62869620866E+02 -0.13397813410E+02 -0.86588693348E+02  0.10794342244E+03  0.47000000000E+01 0.  1.
          5    1    4    4  503    0  0.51314342660E+02 -0.68416570162E+02 -0.33608867118E+03  0.34683090077E+03  0.47000000000E+01 0. -1.
         -5    1    3    3    0  502 -0.32210967340E+02  0.62879694284E+02 -0.12973700392E+03  0.14780115885E+03  0.47000000000E+01 0.  1.
<mgrwt>
<rscale>  0 0.18276376E+03</rscale>
<asrwt>0</asrwt>
<pdfrwt beam="1">  1        1 0.18080455E+00 0.18803510E+03</pdfrwt>
<pdfrwt beam="2">  1       -1 0.43154134E-02 0.18803510E+03</pdfrwt>
<totfact> 0.26050580E+03</totfact>
</mgrwt>
</event>
<event>
 8    1  0.3629925E-004  0.1407738E+03  0.7546771E-02  0.1222998E+00
          1   -1    0    0  501    0  0.00000000000E+00  0.00000000000E+00  0.39938952029E+03  0.39938952029E+03  0.00000000000E+00 0. -1.
         -1   -1    0    0    0  501 -0.00000000000E+00 -0.00000000000E+00 -0.45529531428E+02  0.45529531428E+02  0.00000000000E+00 0.  1.
         25    2    1    2    0    0 -0.51855156408E+02  0.38781583740E+02  0.27083521527E+03  0.30523594242E+03  0.12499719289E+03 0.  0.
         23    2    1    2    0    0  0.51855156408E+02 -0.38781583740E+02  0.83024773592E+02  0.13968310930E+03  0.91789375804E+02 0.  0.
          5    1    4    4  502    0  0.21311621888E+02  0.20075685382E+02  0.64002557860E+02  0.70538186706E+02  0.47000000000E+01 0. -1.
         -5    1    3    3    0  503 -0.13225819742E+02 -0.42931082471E+02  0.13192614649E+03  0.13944388936E+03  0.47000000000E+01 0.  1.
          5    1    3    3  503    0 -0.38629336666E+02  0.81712666210E+02  0.13890906878E+03  0.16579205307E+03  0.47000000000E+01 0.  1.
         -5    1    4    4    0  502  0.30543534519E+02 -0.58857269121E+02  0.19022215732E+02  0.69144922595E+02  0.47000000000E+01 0.  1.
<mgrwt>
<rscale>  0 0.13305045E+03</rscale>
<asrwt>0</asrwt>
<pdfrwt beam="1">  1        1 0.61444539E-01 0.14077381E+03</pdfrwt>
<pdfrwt beam="2">  1       -1 0.70045436E-02 0.14077381E+03</pdfrwt>
<totfact> 0.61507116E+03</totfact>
</mgrwt>
</event>
<event>
 8    1  0.3629925E-004  0.1347886E+03  0.7546771E-02  0.1232623E+00
         -1   -1    0    0    0  501 -0.00000000000E+00  0.00000000000E+00  0.25016022628E+03  0.25016022628E+03  0.00000000000E+00 0.  1.
          1   -1    0    0  501    0  0.00000000000E+00 -0.00000000000E+00 -0.57545111952E+02  0.57545111952E+02  0.00000000000E+00 0. -1.
         25    2    1    2    0    0 -0.27281112449E+02  0.42377181819E+02  0.10011725537E+03  0.16790300306E+03  0.12501147538E+03 0.  0.
         23    2    1    2    0    0  0.27281112449E+02 -0.42377181819E+02  0.92497858955E+02  0.13980233517E+03  0.91917105989E+02 0.  0.
          5    1    3    3  502    0 -0.62700814064E+02 -0.44511924522E+01  0.15687632985E+02  0.64956885910E+02  0.47000000000E+01 0. -1.
         -5    1    4    4    0  503 -0.13882676812E+02 -0.47673301462E+02  0.83211659920E+02  0.97014136776E+02  0.47000000000E+01 0.  1.
          5    1    4    4  503    0  0.41163789261E+02  0.52961196424E+01  0.92861990344E+01  0.42788198397E+02  0.47000000000E+01 0. -1.
         -5    1    3    3    0  502  0.35419701614E+02  0.46828374272E+02  0.84429622385E+02  0.10294611715E+03  0.47000000000E+01 0. -1.
<mgrwt>
<rscale>  0 0.12657815E+03</rscale>
<asrwt>0</asrwt>
<pdfrwt beam="1">  1        1 0.88530943E-02 0.13478855E+03</pdfrwt>
<pdfrwt beam="2">  1       -1 0.38486188E-01 0.13478855E+03</pdfrwt>
<totfact> 0.47786915E+03</totfact>
</mgrwt>
</event>
<event>
 8    1  0.3629925E-004  0.1257553E+03  0.7546771E-02  0.1247547E+00
          1   -1    0    0  501    0  0.00000000000E+00  0.00000000000E+00  0.39316893788E+03  0.39316893788E+03  0.00000000000E+00 0. -1.
         -1   -1    0    0    0  501 -0.00000000000E+00 -0.00000000000E+00 -0.31479867301E+02  0.31479867301E+02  0.00000000000E+00 0.  1.
         25    2    1    2    0    0  0.13691753391E+02 -0.13796989146E+01  0.18172793767E+03  0.22099646567E+03  0.12500010733E+03 0.  0.
         23    2    1    2    0    0 -0.13691753391E+02  0.13796989146E+01  0.17996113291E+03  0.20365233950E+03  0.94333972393E+02 0.  0.
          5    1    4    4  502    0 -0.50694278819E+02  0.81632469774E+01  0.13685693985E+03  0.14624794183E+03  0.47000000000E+01 0. -1.
         -5    1    4    4    0  502  0.37002525429E+02 -0.67835480628E+01  0.43104193062E+02  0.57404397671E+02  0.47000000000E+01 0.  1.
          5    1    3    3  503    0 -0.19962690633E+02 -0.17737011523E+02  0.18126380549E+03  0.18328057119E+03  0.47000000000E+01 0. -1.
         -5    1    3    3    0  503  0.33654444024E+02  0.16357312608E+02  0.46413218124E+00  0.37715894487E+02  0.47000000000E+01 0. -1.
<mgrwt>
<rscale>  0 0.11734237E+03</rscale>
<asrwt>0</asrwt>
<pdfrwt beam="1">  1        1 0.60487525E-01 0.12575530E+03</pdfrwt>
<pdfrwt beam="2">  1       -1 0.48430568E-02 0.12575530E+03</pdfrwt>
<totfact> 0.10777656E+04</totfact>
</mgrwt>
</event>
<event>
 8    1  0.3629925E-004  0.1486040E+03  0.7546771E-02  0.1211576E+00
         -2   -1    0    0    0  501 -0.00000000000E+00  0.00000000000E+00  0.35110640364E+02  0.35110640364E+02  0.00000000000E+00 0.  1.
          2   -1    0    0  501    0  0.00000000000E+00 -0.00000000000E+00 -0.60651123885E+03  0.60651123885E+03  0.00000000000E+00 0. -1.
         25    2    1    2    0    0 -0.19006462218E+02  0.78079283131E+02 -0.18926638913E+03  0.24063438116E+03  0.12500207710E+03 0.  0.
         23    2    1    2    0    0  0.19006462218E+02 -0.78079283131E+02 -0.38213420936E+03  0.40098749806E+03  0.91141645679E+02 0.  0.
          5    1    4    4  502    0 -0.21623058125E+02  0.10061573669E+02 -0.80249136597E+02  0.83849900608E+02  0.47000000000E+01 0. -1.
         -5    1    3    3    0  503 -0.15645253856E+02 -0.28901959542E+02 -0.84494334202E+02  0.90782596051E+02  0.47000000000E+01 0. -1.
          5    1    3    3  503    0 -0.33612083616E+01  0.10698124267E+03 -0.10477205493E+03  0.14985178510E+03  0.47000000000E+01 0. -1.
         -5    1    4    4    0  502  0.40629520343E+02 -0.88140856800E+02 -0.30188507276E+03  0.31713759745E+03  0.47000000000E+01 0.  1.
<mgrwt>
<rscale>  0 0.14131064E+03</rscale>
<asrwt>0</asrwt>
<pdfrwt beam="1">  1        2 0.93309419E-01 0.14860397E+03</pdfrwt>
<pdfrwt beam="2">  1       -2 0.54016371E-02 0.14860397E+03</pdfrwt>
<totfact> 0.83508337E+03</totfact>
</mgrwt>
</event>
<event>
 8    1  0.3629925E-004  0.2035391E+03  0.7546771E-02  0.1151004E+00
         -2   -1    0    0    0  501 -0.00000000000E+00  0.00000000000E+00  0.88058185833E+02  0.88058185833E+02  0.00000000000E+00 0.  1.
          2   -1    0    0  501    0  0.00000000000E+00 -0.00000000000E+00 -0.43579094020E+03  0.43579094020E+03  0.00000000000E+00 0. -1.
         25    2    1    2    0    0  0.73117646274E+02  0.14302721686E+03 -0.22013555296E+03  0.29981299831E+03  0.12500078928E+03 0.  0.
         23    2    1    2    0    0 -0.73117646274E+02 -0.14302721686E+03 -0.12759720141E+03  0.22403612772E+03  0.90045353887E+02 0.  0.
          5    1    3    3  502    0  0.62309219011E+02  0.16617564158E+03 -0.19365691865E+03  0.26272014534E+03  0.47000000000E+01 0.  1.
         -5    1    3    3    0  502  0.10808427263E+02 -0.23148424713E+02 -0.26478634313E+02  0.37092852973E+02  0.47000000000E+01 0.  1.
          5    1    4    4  503    0 -0.83907446479E+02 -0.71105999327E+02 -0.89044270843E+02  0.14158917644E+03  0.47000000000E+01 0. -1.
         -5    1    4    4    0  503  0.10789800205E+02 -0.71921217537E+02 -0.38552930563E+02  0.82446951280E+02  0.47000000000E+01 0.  1.
<mgrwt>
<rscale>  0 0.19850832E+03</rscale>
<asrwt>0</asrwt>
<pdfrwt beam="1">  1        2 0.67044760E-01 0.20353912E+03</pdfrwt>
<pdfrwt beam="2">  1       -2 0.13547413E-01 0.20353912E+03</pdfrwt>
<totfact> 0.29064595E+03</totfact>
</mgrwt>
</event>
<event>
 8    1  0.3629925E-004  0.1273218E+03  0.7546771E-02  0.1245569E+00
         -2   -1    0    0    0  501 -0.00000000000E+00  0.00000000000E+00  0.69315234091E+02  0.69315234091E+02  0.00000000000E+00 0.  1.
          2   -1    0    0  501    0  0.00000000000E+00 -0.00000000000E+00 -0.18721538754E+03  0.18721538754E+03  0.00000000000E+00 0. -1.
         25    2    1    2    0    0 -0.11515720719E+02  0.21338116044E+02 -0.40704987933E+02  0.13367026084E+03  0.12499166200E+03 0.  0.
         23    2    1    2    0    0  0.11515720719E+02 -0.21338116044E+02 -0.77195165519E+02  0.12286036080E+03  0.92453489146E+02 0.  0.
          5    1    4    4  502    0 -0.25915323454E+02  0.36758986062E+01 -0.72654749521E+02  0.77368720089E+02  0.47000000000E+01 0. -1.
         -5    1    4    4    0  502  0.37431044172E+02 -0.25014014650E+02 -0.45404159986E+01  0.45491640707E+02  0.47000000000E+01 0.  1.
          5    1    3    3  503    0 -0.45495957137E+02  0.47634589977E+01 -0.71276058879E+02  0.84822987608E+02  0.47000000000E+01 0.  1.
         -5    1    3    3    0  503  0.33980236418E+02  0.16574657046E+02  0.30571070946E+02  0.48847273230E+02  0.47000000000E+01 0.  1.
<mgrwt>
<rscale>  0 0.11851384E+03</rscale>
<asrwt>0</asrwt>
<pdfrwt beam="1">  1        2 0.28802367E-01 0.12732181E+03</pdfrwt>
<pdfrwt beam="2">  1       -2 0.10663882E-01 0.12732181E+03</pdfrwt>
<totfact> 0.10292856E+04</totfact>
</mgrwt>
</event>
<event>
 8    1  0.3629925E-004  0.1264137E+03  0.7546771E-02  0.1247256E+00
         -2   -1    0    0    0  501 -0.00000000000E+00  0.00000000000E+00  0.59290875113E+03  0.59290875113E+03  0.00000000000E+00 0. -1.
          2   -1    0    0  501    0  0.00000000000E+00 -0.00000000000E+00 -0.22263136556E+02  0.22263136556E+02  0.00000000000E+00 0.  1.
         25    2    1    2    0    0  0.35047412268E+01  0.18527758392E+02  0.40778666529E+03  0.42693135701E+03  0.12499943267E+03 0.  0.
         23    2    1    2    0    0 -0.35047412268E+01 -0.18527758392E+02  0.16285894929E+03  0.18824053068E+03  0.92498102605E+02 0.  0.
          5    1    3    3  502    0  0.12905596948E+01 -0.43334558867E+02  0.29484621554E+03  0.29805356961E+03  0.47000000000E+01 0.  1.
         -5    1    4    4    0  503 -0.24518396250E+02  0.24100487106E+02  0.26209149448E+02  0.43485569425E+02  0.47000000000E+01 0.  1.
          5    1    4    4  503    0  0.21013655023E+02 -0.42628245498E+02  0.13664979984E+03  0.14475496125E+03  0.47000000000E+01 0. -1.
         -5    1    3    3    0  502  0.22141815320E+01  0.61862317259E+02  0.11294044975E+03  0.12887778740E+03  0.47000000000E+01 0.  1.
<mgrwt>
<rscale>  0 0.11751388E+03</rscale>
<asrwt>0</asrwt>
<pdfrwt beam="1">  1        2 0.34250984E-02 0.12641368E+03</pdfrwt>
<pdfrwt beam="2">  1       -2 0.91216719E-01 0.12641368E+03</pdfrwt>
<totfact> 0.26354679E+03</totfact>
</mgrwt>
</event>
<event>
 8    1  0.3629925E-004  0.1331843E+03  0.7546771E-02  0.1234117E+00
          2   -1    0    0  501    0  0.00000000000E+00  0.00000000000E+00  0.74152819208E+03  0.74152819208E+03  0.00000000000E+00 0. -1.
         -2   -1    0    0    0  501 -0.00000000000E+00 -0.00000000000E+00 -0.28461032848E+02  0.28461032848E+02  0.00000000000E+00 0.  1.
         25    2    1    2    0    0 -0.37330067507E+02 -0.26833279006E+02  0.60330156102E+03  0.61782750951E+03  0.12499799671E+03 0.  0.
         23    2    1    2    0    0  0.37330067507E+02  0.26833279006E+02  0.10976559822E+03  0.15216171542E+03  0.94821634056E+02 0.  0.
          5    1    3    3  502    0 -0.78710332889E+02  0.43083716570E+01  0.30678022086E+03  0.31678079563E+03  0.47000000000E+01 0. -1.
         -5    1    4    4    0  503  0.56725290517E+02  0.89055588995E+01  0.24198350041E+02  0.62487740464E+02  0.47000000000E+01 0.  1.
          5    1    4    4  503    0 -0.19395223010E+02  0.17927720107E+02  0.85567248178E+02  0.89673974957E+02  0.47000000000E+01 0. -1.
         -5    1    3    3    0  502  0.41380265382E+02 -0.31141650663E+02  0.29652134016E+03  0.30104671388E+03  0.47000000000E+01 0. -1.
<mgrwt>
<rscale>  0 0.12561113E+03</rscale>
<asrwt>0</asrwt>
<pdfrwt beam="1">  1        2 0.11408125E+00 0.13318430E+03</pdfrwt>
<pdfrwt beam="2">  1       -2 0.43786210E-02 0.13318430E+03</pdfrwt>
<totfact> 0.89792735E+03</totfact>
</mgrwt>
</event>
<event>
 8    1  0.3629925E-004  0.1300937E+03  0.7546771E-02  0.1241423E+00
         -1   -1    0    0    0  501 -0.00000000000E+00  0.00000000000E+00  0.32149071413E+03  0.32149071413E+03  0.00000000000E+00 0.  1.
          1   -1    0    0  501    0  0.00000000000E+00 -0.00000000000E+00 -0.41042975590E+02  0.41042975590E+02  0.00000000000E+00 0. -1.
         25    2    1    2    0    0 -0.26749614398E+02  0.24154990130E+02  0.13508037408E+03  0.18753955706E+03  0.12500149031E+03 0.  0.
         23    2    1    2    0    0  0.26749614398E+02 -0.24154990130E+02  0.14536736446E+03  0.17499413266E+03  0.90511161734E+02 0.  0.
          5    1    4    4  502    0  0.30186330781E+02  0.29847521311E+02  0.56223346163E+02  0.70606258563E+02  0.47000000000E+01 0. -1.
         -5    1    4    4    0  502 -0.34367163830E+01 -0.54002511441E+02  0.89144018295E+02  0.10438787410E+03  0.47000000000E+01 0.  1.
          5    1    3    3  503    0  0.29526888021E+02  0.11820020381E+02 -0.80798292608E+01  0.33150017178E+02  0.47000000000E+01 0. -1.
         -5    1    3    3    0  503 -0.56276502419E+02  0.12334969749E+02  0.14316020334E+03  0.15438953988E+03  0.47000000000E+01 0. -1.
<mgrwt>
<rscale>  0 0.12102019E+03</rscale>
<asrwt>0</asrwt>
<pdfrwt beam="1">  1        1 0.63143042E-02 0.13009373E+03</pdfrwt>
<pdfrwt beam="2">  1       -1 0.49460108E-01 0.13009373E+03</pdfrwt>
<totfact> 0.48054442E+03</totfact>
</mgrwt>
</event>
<event>
 8    1  0.3629925E-004  0.1275170E+03  0.7546771E-02  0.1245531E+00
          1   -1    0    0  501    0  0.00000000000E+00  0.00000000000E+00  0.29268139769E+02  0.29268139769E+02  0.00000000000E+00 0.  1.
         -1   -1    0    0    0  501 -0.00000000000E+00 -0.00000000000E+00 -0.69329830106E+03  0.69329830106E+03  0.00000000000E+00 0. -1.
         25    2    1    2    0    0 -0.28179446115E+01 -0.25063198858E+02 -0.13762601999E+03  0.18762061503E+03  0.12499787621E+03 0.  0.
         23    2    1    2    0    0  0.28179446115E+01  0.25063198858E+02 -0.52640414130E+03  0.53494582580E+03  0.91812917478E+02 0.  0.
          5    1    4    4  502    0  0.14131646476E+02  0.53694071748E+02 -0.43101577511E+03  0.43460262904E+03  0.47000000000E+01 0.  1.
         -5    1    3    3    0  503  0.52591506816E+02 -0.39294320941E+02 -0.97301276794E+02  0.11747143786E+03  0.47000000000E+01 0. -1.
          5    1    3    3  503    0 -0.55409451427E+02  0.14231122083E+02 -0.40324743196E+02  0.70149177166E+02  0.47000000000E+01 0. -1.
         -5    1    4    4    0  502 -0.11313701864E+02 -0.28630872890E+02 -0.95388366191E+02  0.10034319676E+03  0.47000000000E+01 0. -1.
<mgrwt>
<rscale>  0 0.11853626E+03</rscale>
<asrwt>0</asrwt>
<pdfrwt beam="1">  1        1 0.45027911E-02 0.12751695E+03</pdfrwt>
<pdfrwt beam="2">  1       -1 0.10666127E+00 0.12751695E+03</pdfrwt>
<totfact> 0.16305987E+03</totfact>
</mgrwt>
</event>
<event>
 8    1  0.3629925E-004  0.1420014E+03  0.7546771E-02  0.1221811E+00
         -1   -1    0    0    0  501 -0.00000000000E+00  0.00000000000E+00  0.87422469246E+02  0.87422469246E+02  0.00000000000E+00 0.  1.
          1   -1    0    0  501    0  0.00000000000E+00 -0.00000000000E+00 -0.18576658226E+03  0.18576658226E+03  0.00000000000E+00 0. -1.
         25    2    1    2    0    0  0.42386668822E+02 -0.52367749241E+02 -0.45024825366E+02  0.14896860224E+03  0.12500159479E+03 0.  0.
         23    2    1    2    0    0 -0.42386668822E+02  0.52367749241E+02 -0.53319287651E+02  0.12422044927E+03  0.89714896906E+02 0.  0.
          5    1    4    4  502    0  0.88970364545E+01  0.54876266210E+02 -0.95805942768E+01  0.56607770117E+02  0.47000000000E+01 0. -1.
         -5    1    3    3    0  503  0.36089548037E+01 -0.76808420199E+02 -0.62991875195E+02  0.99511930485E+02  0.47000000000E+01 0.  1.
          5    1    3    3  503    0  0.38777714018E+02  0.24440670958E+02  0.17967049829E+02  0.49456671753E+02  0.47000000000E+01 0.  1.
         -5    1    4    4    0  502 -0.51283705276E+02 -0.25085169692E+01 -0.43738693374E+02  0.67612679153E+02  0.47000000000E+01 0.  1.
<mgrwt>
<rscale>  0 0.13387922E+03</rscale>
<asrwt>0</asrwt>
<pdfrwt beam="1">  1        1 0.28579474E-01 0.14200144E+03</pdfrwt>
<pdfrwt beam="2">  1       -1 0.13449611E-01 0.14200144E+03</pdfrwt>
<totfact> 0.58895593E+03</totfact>
</mgrwt>
</event>
<event>
 8    1  0.3629925E-004  0.1636650E+03  0.7546771E-02  0.1191515E+00
          2   -1    0    0  501    0  0.00000000000E+00  0.00000000000E+00  0.12330650825E+03  0.12330650825E+03  0.00000000000E+00 0. -1.
         -2   -1    0    0    0  501 -0.00000000000E+00 -0.00000000000E+00 -0.18754411491E+03  0.18754411491E+03  0.00000000000E+00 0.  1.
         25    2    1    2    0    0 -0.51255409327E+02 -0.92384623956E+02 -0.35654160260E+02  0.16750355482E+03  0.12499674397E+03 0.  0.
         23    2    1    2    0    0  0.51255409327E+02  0.92384623956E+02 -0.28583446400E+02  0.14334706835E+03  0.92570691188E+02 0.  0.
          5    1    3    3  502    0 -0.50358825575E+02 -0.34005815342E+02  0.39193086312E+02  0.72460988160E+02  0.47000000000E+01 0. -1.
         -5    1    3    3    0  502 -0.89658375136E+00 -0.58378808614E+02 -0.74847246572E+02  0.95042566659E+02  0.47000000000E+01 0. -1.
          5    1    4    4  503    0  0.17137440514E+02  0.74476226800E+02  0.21925866971E+02  0.79644421450E+02  0.47000000000E+01 0. -1.
         -5    1    4    4    0  503  0.34117968813E+02  0.17908397157E+02 -0.50509313371E+02  0.63702646898E+02  0.47000000000E+01 0.  1.
<mgrwt>
<rscale>  0 0.15752934E+03</rscale>
<asrwt>0</asrwt>
<pdfrwt beam="1">  1        2 0.18970232E-01 0.16366497E+03</pdfrwt>
<pdfrwt beam="2">  1       -2 0.28852941E-01 0.16366497E+03</pdfrwt>
<totfact> 0.31518936E+03</totfact>
</mgrwt>
</event>
<event>
 8    1  0.3629925E-004  0.2410815E+03  0.7546771E-02  0.1121856E+00
         -1   -1    0    0    0  501 -0.00000000000E+00  0.00000000000E+00  0.15385467419E+03  0.15385467419E+03  0.00000000000E+00 0.  1.
          1   -1    0    0  501    0  0.00000000000E+00 -0.00000000000E+00 -0.35312641409E+03  0.35312641409E+03  0.00000000000E+00 0. -1.
         25    2    1    2    0    0 -0.20448626940E+03  0.26090867646E+02 -0.11053315651E+03  0.26521289985E+03  0.12499974325E+03 0.  0.
         23    2    1    2    0    0  0.20448626940E+03 -0.26090867646E+02 -0.88738583393E+02  0.24176818843E+03  0.89899683020E+02 0.  0.
          5    1    3    3  502    0 -0.10400083885E+03  0.19113409452E+02 -0.12450017791E+03  0.16341322224E+03  0.47000000000E+01 0. -1.
         -5    1    3    3    0  502 -0.10048543054E+03  0.69774581938E+01  0.13967021401E+02  0.10179967761E+03  0.47000000000E+01 0. -1.
          5    1    4    4  503    0  0.14492631671E+03 -0.77010605055E+00 -0.99682039714E+02  0.17596257948E+03  0.47000000000E+01 0. -1.
         -5    1    4    4    0  503  0.59559952689E+02 -0.25320761596E+02  0.10943456321E+02  0.65805608942E+02  0.47000000000E+01 0.  1.
<mgrwt>
<rscale>  0 0.23692857E+03</rscale>
<asrwt>0</asrwt>
<pdfrwt beam="1">  1        1 0.54327140E-01 0.24108153E+03</pdfrwt>
<pdfrwt beam="2">  1       -1 0.23669950E-01 0.24108153E+03</pdfrwt>
<totfact> 0.10857076E+03</totfact>
</mgrwt>
</event>
<event>
 8    1  0.3629925E-004  0.1282955E+03  0.7546771E-02  0.1244993E+00
          1   -1    0    0  501    0  0.00000000000E+00  0.00000000000E+00  0.53879769841E+02  0.53879769841E+02  0.00000000000E+00 0. -1.
         -1   -1    0    0    0  501 -0.00000000000E+00 -0.00000000000E+00 -0.23034174145E+03  0.23034174145E+03  0.00000000000E+00 0.  1.
         25    2    1    2    0    0 -0.25836323861E+02 -0.12916289273E+02 -0.10195279864E+03  0.16387219369E+03  0.12500150621E+03 0.  0.
         23    2    1    2    0    0  0.25836323861E+02  0.12916289273E+02 -0.74509172968E+02  0.12034931760E+03  0.89988861709E+02 0.  0.
          5    1    4    4  502    0  0.33125545040E+02 -0.27182733045E+02 -0.10578469635E+02  0.44386898177E+02  0.47000000000E+01 0. -1.
         -5    1    4    4    0  502 -0.72892211790E+01  0.40099022318E+02 -0.63930703332E+02  0.75962419424E+02  0.47000000000E+01 0.  1.
          5    1    3    3  503    0 -0.54939244795E+02  0.37503333615E+02 -0.36022767448E+02  0.75792812492E+02  0.47000000000E+01 0.  1.
         -5    1    3    3    0  503  0.29102920934E+02 -0.50419622888E+02 -0.65930031194E+02  0.88079381198E+02  0.47000000000E+01 0.  1.
<mgrwt>
<rscale>  0 0.11885819E+03</rscale>
<asrwt>0</asrwt>
<pdfrwt beam="1">  1        1 0.82891954E-02 0.12829545E+03</pdfrwt>
<pdfrwt beam="2">  1       -1 0.35437191E-01 0.12829545E+03</pdfrwt>
<totfact> 0.59971437E+03</totfact>
</mgrwt>
</event>
<event>
 8    1  0.3629925E-004  0.1426836E+03  0.7546771E-02  0.1217166E+00
          1   -1    0    0  501    0  0.00000000000E+00  0.00000000000E+00  0.45810485812E+03  0.45810485812E+03  0.00000000000E+00 0. -1.
         -1   -1    0    0    0  501 -0.00000000000E+00 -0.00000000000E+00 -0.41318591602E+02  0.41318591602E+02  0.00000000000E+00 0.  1.
         25    2    1    2    0    0  0.91017047274E+01 -0.68192709428E+02  0.15524108257E+03  0.21085163437E+03  0.12500212538E+03 0.  0.
         23    2    1    2    0    0 -0.91017047274E+01  0.68192709428E+02  0.26154518394E+03  0.28857181535E+03  0.10067136000E+03 0.  0.
          5    1    4    4  502    0  0.20813441247E+02 -0.19295399260E+02  0.50634195823E+02  0.58235930111E+02  0.47000000000E+01 0. -1.
         -5    1    3    3    0  503 -0.18268598399E+02 -0.12488308611E+02 -0.16616626944E+02  0.28069589067E+02  0.47000000000E+01 0. -1.
          5    1    3    3  503    0  0.27370303126E+02 -0.55704400817E+02  0.17185770952E+03  0.18278204530E+03  0.47000000000E+01 0. -1.
         -5    1    4    4    0  502 -0.29915145974E+02  0.87488108689E+02  0.21091098812E+03  0.23033588524E+03  0.47000000000E+01 0.  1.
<mgrwt>
<rscale>  0 0.13718653E+03</rscale>
<asrwt>0</asrwt>
<pdfrwt beam="1">  1        1 0.70477667E-01 0.14268363E+03</pdfrwt>
<pdfrwt beam="2">  1       -1 0.63567067E-02 0.14268363E+03</pdfrwt>
<totfact> 0.59778299E+03</totfact>
</mgrwt>
</event>
<event>
 8    1  0.3629925E-004  0.2045334E+03  0.7546771E-02  0.1149575E+00
          1   -1    0    0  501    0  0.00000000000E+00  0.00000000000E+00  0.58007530482E+03  0.58007530482E+03  0.00000000000E+00 0. -1.
         -1   -1    0    0    0  501 -0.00000000000E+00 -0.00000000000E+00 -0.68381411958E+02  0.68381411958E+02  0.00000000000E+00 0.  1.
         25    2    1    2    0    0 -0.12109718673E+03 -0.10744858747E+03  0.32283761578E+03  0.38217539968E+03  0.12499672947E+03 0.  0.
         23    2    1    2    0    0  0.12109718673E+03  0.10744858747E+03  0.18885627709E+03  0.26628131710E+03  0.95022728109E+02 0.  0.
          5    1    4    4  502    0  0.83096465477E+02  0.24090190572E+02  0.13346197505E+03  0.15912117597E+03  0.47000000000E+01 0. -1.
         -5    1    3    3    0  503 -0.42818119249E+02 -0.10723718968E+03  0.24878734158E+03  0.27431813195E+03  0.47000000000E+01 0.  1.
          5    1    3    3  503    0 -0.78279067477E+02 -0.21139779348E+00  0.74050274201E+02  0.10785726774E+03  0.47000000000E+01 0.  1.
         -5    1    4    4    0  502  0.38000721250E+02  0.83358396900E+02  0.55394302037E+02  0.10716014113E+03  0.47000000000E+01 0.  1.
<mgrwt>
<rscale>  0 0.20019406E+03</rscale>
<asrwt>0</asrwt>
<pdfrwt beam="1">  1        1 0.89242351E-01 0.20453340E+03</pdfrwt>
<pdfrwt beam="2">  1       -1 0.10520218E-01 0.20453340E+03</pdfrwt>
<totfact> 0.20620864E+03</totfact>
</mgrwt>
</event>
<event>
 8    1  0.3629925E-004  0.1263773E+03  0.7546771E-02  0.1247442E+00
         -2   -1    0    0    0  501 -0.00000000000E+00  0.00000000000E+00  0.33281724962E+02  0.33281724962E+02  0.00000000000E+00 0.  1.
          2   -1    0    0  501    0  0.00000000000E+00 -0.00000000000E+00 -0.49247277887E+03  0.49247277887E+03  0.00000000000E+00 0. -1.
         25    2    1    2    0    0 -0.70621337305E+01 -0.17066203289E+02 -0.38704974601E+03  0.40715932514E+03  0.12502032289E+03 0.  0.
         23    2    1    2    0    0  0.70621337305E+01  0.17066203289E+02 -0.72141307896E+02  0.11859517869E+03  0.92300157506E+02 0.  0.
          5    1    3    3  502    0  0.86536124238E+00  0.42000051114E+02 -0.52950931150E+02  0.67754293247E+02  0.47000000000E+01 0.  1.
         -5    1    3    3    0  502 -0.79274949728E+01 -0.59066254403E+02 -0.33409881486E+03  0.33940503189E+03  0.47000000000E+01 0.  1.
          5    1    4    4  503    0 -0.33998071868E+02  0.94242689081E+01 -0.67502601023E+02  0.76311053460E+02  0.47000000000E+01 0. -1.
         -5    1    4    4    0  503  0.41060205599E+02  0.76419343807E+01 -0.46387068729E+01  0.42284125229E+02  0.47000000000E+01 0.  1.
<mgrwt>
<rscale>  0 0.11740420E+03</rscale>
<asrwt>0</asrwt>
<pdfrwt beam="1">  1        2 0.75765049E-01 0.12637725E+03</pdfrwt>
<pdfrwt beam="2">  1       -2 0.51202650E-02 0.12637725E+03</pdfrwt>
<totfact> 0.11298967E+04</totfact>
</mgrwt>
</event>
<event>
 8    1  0.3629925E-004  0.1440616E+03  0.7546771E-02  0.1217990E+00
         -1   -1    0    0    0  501 -0.00000000000E+00  0.00000000000E+00  0.59992909025E+02  0.59992909025E+02  0.00000000000E+00 0.  1.
          1   -1    0    0  501    0  0.00000000000E+00 -0.00000000000E+00 -0.30478687085E+03  0.30478687085E+03  0.00000000000E+00 0. -1.
         25    2    1    2    0    0 -0.40816373443E+02 -0.58843528019E+02 -0.18321772019E+03  0.23307181362E+03  0.12500080072E+03 0.  0.
         23    2    1    2    0    0  0.40816373443E+02  0.58843528019E+02 -0.61576241630E+02  0.13170796625E+03  0.91797699920E+02 0.  0.
          5    1    3    3  502    0 -0.34633922705E+02  0.96023795729E+01 -0.15406579458E+03  0.15827214965E+03  0.47000000000E+01 0.  1.
         -5    1    3    3    0  502 -0.61824507376E+01 -0.68445907592E+02 -0.29151925614E+02  0.74799663971E+02  0.47000000000E+01 0.  1.
          5    1    4    4  503    0 -0.23326200590E+02  0.14403228637E+02 -0.43236716019E+02  0.51410779426E+02  0.47000000000E+01 0. -1.
         -5    1    4    4    0  503  0.64142574033E+02  0.44440299382E+02 -0.18339525612E+02  0.80297186827E+02  0.47000000000E+01 0.  1.
<mgrwt>
<rscale>  0 0.13659191E+03</rscale>
<asrwt>0</asrwt>
<pdfrwt beam="1">  1        1 0.46890287E-01 0.14406157E+03</pdfrwt>
<pdfrwt beam="2">  1       -1 0.92296784E-02 0.14406157E+03</pdfrwt>
<totfact> 0.56913721E+03</totfact>
</mgrwt>
</event>
<event>
 8    1  0.3629925E-004  0.2068489E+03  0.7546771E-02  0.1148300E+00
          1   -1    0    0  501    0  0.00000000000E+00  0.00000000000E+00  0.52534582482E+03  0.52534582482E+03  0.00000000000E+00 0. -1.
         -1   -1    0    0    0  501 -0.00000000000E+00 -0.00000000000E+00 -0.85961927479E+02  0.85961927479E+02  0.00000000000E+00 0.  1.
         25    2    1    2    0    0  0.97685703922E+02  0.13271579416E+03  0.11451773312E+03  0.23643347790E+03  0.12502199608E+03 0.  0.
         23    2    1    2    0    0 -0.97685703922E+02 -0.13271579416E+03  0.32486616422E+03  0.37487427440E+03  0.88525240355E+02 0.  0.
          5    1    3    3  502    0  0.22474536473E+02  0.17023657416E+02  0.92252611810E+02  0.96579211465E+02  0.47000000000E+01 0. -1.
         -5    1    4    4    0  503 -0.67685521761E+02 -0.74071427017E+02  0.10502442957E+03  0.14532765381E+03  0.47000000000E+01 0.  1.
          5    1    4    4  503    0 -0.30000182160E+02 -0.58644367140E+02  0.21984173465E+03  0.22954662059E+03  0.47000000000E+01 0. -1.
         -5    1    3    3    0  502  0.75211167448E+02  0.11569213674E+03  0.22265121306E+02  0.13985426643E+03  0.47000000000E+01 0. -1.
<mgrwt>
<rscale>  0 0.20171451E+03</rscale>
<asrwt>0</asrwt>
<pdfrwt beam="1">  1        1 0.80822433E-01 0.20684893E+03</pdfrwt>
<pdfrwt beam="2">  1       -1 0.13224912E-01 0.20684893E+03</pdfrwt>
<totfact> 0.16514499E+03</totfact>
</mgrwt>
</event>
<event>
 8    1  0.3629925E-004  0.1332932E+03  0.7546771E-02  0.1233624E+00
         -1   -1    0    0    0  501 -0.00000000000E+00  0.00000000000E+00  0.46584461487E+02  0.46584461487E+02  0.00000000000E+00 0.  1.
          1   -1    0    0  501    0  0.00000000000E+00 -0.00000000000E+00 -0.32956946059E+03  0.32956946059E+03  0.00000000000E+00 0. -1.
         25    2    1    2    0    0  0.16375432500E+02 -0.43293490880E+02 -0.20451176275E+03  0.24411498960E+03  0.12499834360E+03 0.  0.
         23    2    1    2    0    0 -0.16375432500E+02  0.43293490880E+02 -0.78473236354E+02  0.13203893248E+03  0.95570653048E+02 0.  0.
          5    1    3    3  502    0  0.40576799472E+00  0.42661103818E+02 -0.92275543778E+02  0.10176934905E+03  0.47000000000E+01 0. -1.
         -5    1    4    4    0  503  0.15988107352E+02 -0.23309975951E+02 -0.81048963970E+01  0.29778413342E+02  0.47000000000E+01 0.  1.
          5    1    4    4  503    0 -0.32363539853E+02  0.66603466832E+02 -0.70368339957E+02  0.10226051914E+03  0.47000000000E+01 0. -1.
         -5    1    3    3    0  502  0.15969664506E+02 -0.85954594698E+02 -0.11223621897E+03  0.14234564055E+03  0.47000000000E+01 0. -1.
<mgrwt>
<rscale>  0 0.12592919E+03</rscale>
<asrwt>0</asrwt>
<pdfrwt beam="1">  1        1 0.50702995E-01 0.13329316E+03</pdfrwt>
<pdfrwt beam="2">  1       -1 0.71668401E-02 0.13329316E+03</pdfrwt>
<totfact> 0.75322516E+03</totfact>
</mgrwt>
</event>
<event>
 8    1  0.3629925E-004  0.2151059E+03  0.7546771E-02  0.1140318E+00
         -2   -1    0    0    0  501 -0.00000000000E+00  0.00000000000E+00  0.95212946456E+02  0.95212946456E+02  0.00000000000E+00 0.  1.
          2   -1    0    0  501    0  0.00000000000E+00 -0.00000000000E+00 -0.55606391727E+03  0.55606391727E+03  0.00000000000E+00 0. -1.
         25    2    1    2    0    0  0.43104227151E+02  0.16966102687E+03 -0.98172257892E+02  0.23644946591E+03  0.12501087662E+03 0.  0.
         23    2    1    2    0    0 -0.43104227151E+02 -0.16966102687E+03 -0.36267871292E+03  0.41482739781E+03  0.99514233814E+02 0.  0.
          5    1    3    3  502    0 -0.31456688265E+02  0.50387420429E+02  0.80449116441E+01  0.60126749267E+02  0.47000000000E+01 0.  1.
         -5    1    4    4    0  503 -0.73230299619E+02 -0.12275031951E+03 -0.23002626032E+03  0.27085879746E+03  0.47000000000E+01 0.  1.
          5    1    4    4  503    0  0.30126072468E+02 -0.46910707360E+02 -0.13265245260E+03  0.14396860035E+03  0.47000000000E+01 0. -1.
         -5    1    3    3    0  502  0.74560915416E+02  0.11927360644E+03 -0.10621716954E+03  0.17632271665E+03  0.47000000000E+01 0.  1.
<mgrwt>
<rscale>  0 0.21158393E+03</rscale>
<asrwt>0</asrwt>
<pdfrwt beam="1">  1        2 0.85548296E-01 0.21510592E+03</pdfrwt>
<pdfrwt beam="2">  1       -2 0.14648146E-01 0.21510592E+03</pdfrwt>
<totfact> 0.19520846E+03</totfact>
</mgrwt>
</event>
<event>
 8    1  0.3629925E-004  0.3350700E+03  0.7546771E-02  0.1070125E+00
          2   -1    0    0  501    0  0.00000000000E+00  0.00000000000E+00  0.23251884348E+03  0.23251884348E+03  0.00000000000E+00 0. -1.
         -2   -1    0    0    0  501 -0.00000000000E+00 -0.00000000000E+00 -0.47120125916E+03  0.47120125916E+03  0.00000000000E+00 0.  1.
         25    2    1    2    0    0 -0.31087587201E+03  0.16679680396E+01 -0.15376021648E+03  0.36866531368E+03  0.12500127768E+03 0.  0.
         23    2    1    2    0    0  0.31087587201E+03 -0.16679680396E+01 -0.84922199201E+02  0.33505478896E+03  0.91669742926E+02 0.  0.
          5    1    4    4  502    0  0.85362902835E+02 -0.32814091473E+02  0.12786725453E+01  0.91582284221E+02  0.47000000000E+01 0. -1.
         -5    1    4    4    0  502  0.22551296918E+03  0.31146123433E+02 -0.86200871746E+02  0.24347250474E+03  0.47000000000E+01 0.  1.
          5    1    3    3  503    0 -0.13426231687E+03 -0.61051584963E+02 -0.69977528315E+02  0.16331751353E+03  0.47000000000E+01 0. -1.
         -5    1    3    3    0  503 -0.17661355515E+03  0.62719553002E+02 -0.83782688164E+02  0.20534780015E+03  0.47000000000E+01 0. -1.
<mgrwt>
<rscale>  0 0.33229678E+03</rscale>
<asrwt>0</asrwt>
<pdfrwt beam="1">  1        2 0.35772130E-01 0.33507001E+03</pdfrwt>
<pdfrwt beam="2">  1       -2 0.72492501E-01 0.33507001E+03</pdfrwt>
<totfact> 0.25628694E+02</totfact>
</mgrwt>
</event>
<event>
 8    1  0.3629925E-004  0.1881624E+03  0.7546771E-02  0.1165421E+00
         -2   -1    0    0    0  501 -0.00000000000E+00  0.00000000000E+00  0.14384659141E+03  0.14384659141E+03  0.00000000000E+00 0. -1.
          2   -1    0    0  501    0  0.00000000000E+00 -0.00000000000E+00 -0.66310614645E+03  0.66310614645E+03  0.00000000000E+00 0.  1.
         25    2    1    2    0    0  0.10240867622E+03  0.96409843482E+02 -0.59502446206E+03  0.62406666219E+03  0.12499077374E+03 0.  0.
         23    2    1    2    0    0 -0.10240867622E+03 -0.96409843482E+02  0.75764907019E+02  0.18288607568E+03  0.89020226104E+02 0.  0.
          5    1    4    4  502    0 -0.61205025773E+02 -0.54956717041E+01  0.50851037507E+02  0.79901036307E+02  0.47000000000E+01 0. -1.
         -5    1    4    4    0  502 -0.41203650452E+02 -0.90914171778E+02  0.24913869512E+02  0.10298503937E+03  0.47000000000E+01 0.  1.
          5    1    3    3  503    0  0.13152468045E+03  0.77341510932E+02 -0.49865041776E+03  0.52149283793E+03  0.47000000000E+01 0.  1.
         -5    1    3    3    0  503 -0.29116004227E+02  0.19068332550E+02 -0.96374044302E+02  0.10257382426E+03  0.47000000000E+01 0.  1.
<mgrwt>
<rscale>  0 0.18248338E+03</rscale>
<asrwt>0</asrwt>
<pdfrwt beam="1">  1        2 0.10201633E+00 0.18816240E+03</pdfrwt>
<pdfrwt beam="2">  1       -2 0.22130245E-01 0.18816240E+03</pdfrwt>
<totfact> 0.79311075E+02</totfact>
</mgrwt>
</event>
<event>
 8    1  0.3629925E-004  0.2154214E+03  0.7546771E-02  0.1140808E+00
         -1   -1    0    0    0  501 -0.00000000000E+00  0.00000000000E+00  0.42069247128E+02  0.42069247128E+02  0.00000000000E+00 0.  1.
          1   -1    0    0  501    0  0.00000000000E+00 -0.00000000000E+00 -0.10188248650E+04  0.10188248650E+04  0.00000000000E+00 0. -1.
         25    2    1    2    0    0 -0.17121151379E+03  0.38251597797E+02 -0.53516434531E+03  0.57689448171E+03  0.12501919596E+03 0.  0.
         23    2    1    2    0    0  0.17121151379E+03 -0.38251597797E+02 -0.44159127257E+03  0.48399963042E+03  0.92066405643E+02 0.  0.
          5    1    3    3  502    0 -0.22631603926E+02  0.52023326205E+02 -0.23311058493E+03  0.23996093593E+03  0.47000000000E+01 0. -1.
         -5    1    4    4    0  503  0.60930682399E+02 -0.31488623914E+02 -0.78046425654E+02  0.10400680771E+03  0.47000000000E+01 0.  1.
          5    1    4    4  503    0  0.11028083139E+03 -0.67629738829E+01 -0.36354484692E+03  0.37999282270E+03  0.47000000000E+01 0. -1.
         -5    1    3    3    0  502 -0.14857990986E+03 -0.13771728408E+02 -0.30205376037E+03  0.33693354578E+03  0.47000000000E+01 0. -1.
<mgrwt>
<rscale>  0 0.21096014E+03</rscale>
<asrwt>0</asrwt>
<pdfrwt beam="1">  1        1 0.15674227E+00 0.21542137E+03</pdfrwt>
<pdfrwt beam="2">  1       -1 0.64721926E-02 0.21542137E+03</pdfrwt>
<totfact> 0.18405284E+03</totfact>
</mgrwt>
</event>
<event>
 8    1  0.3629925E-004  0.1253546E+03  0.7546771E-02  0.1248907E+00
         -1   -1    0    0    0  501 -0.00000000000E+00  0.00000000000E+00  0.99754512477E+02  0.99754512477E+02  0.00000000000E+00 0.  1.
          1   -1    0    0  501    0  0.00000000000E+00 -0.00000000000E+00 -0.12031099630E+03  0.12031099630E+03  0.00000000000E+00 0. -1.
         25    2    1    2    0    0  0.57382146889E+01  0.73588006972E+01 -0.87142290726E+01  0.12565711014E+03  0.12500676976E+03 0.  0.
         23    2    1    2    0    0 -0.57382146889E+01 -0.73588006972E+01 -0.11842254755E+02  0.94408398643E+02  0.93196714970E+02 0.  0.
          5    1    4    4  502    0  0.17513483736E+01 -0.42381640712E+02 -0.31723746268E+02  0.53176656231E+02  0.47000000000E+01 0. -1.
         -5    1    4    4    0  502 -0.74895630625E+01  0.35022840015E+02  0.19881491513E+02  0.41231742412E+02  0.47000000000E+01 0.  1.
          5    1    3    3  503    0  0.48406273821E+02 -0.23086045353E+02  0.28775182692E+02  0.61042886352E+02  0.47000000000E+01 0. -1.
         -5    1    3    3    0  503 -0.42668059132E+02  0.30444846050E+02 -0.37489411765E+02  0.64614223787E+02  0.47000000000E+01 0. -1.
<mgrwt>
<rscale>  0 0.11654586E+03</rscale>
<asrwt>0</asrwt>
<pdfrwt beam="1">  1        1 0.18509384E-01 0.12535458E+03</pdfrwt>
<pdfrwt beam="2">  1       -1 0.15346848E-01 0.12535458E+03</pdfrwt>
<totfact> 0.82142727E+03</totfact>
</mgrwt>
</event>
<event>
 8    1  0.3629925E-004  0.1465370E+03  0.7546771E-02  0.1214170E+00
         -1   -1    0    0    0  501 -0.00000000000E+00  0.00000000000E+00  0.10423147199E+03  0.10423147199E+03  0.00000000000E+00 0.  1.
          1   -1    0    0  501    0  0.00000000000E+00 -0.00000000000E+00 -0.18630414452E+03  0.18630414452E+03  0.00000000000E+00 0. -1.
         25    2    1    2    0    0  0.48705740396E+02 -0.58961654813E+02 -0.87162472073E+02  0.17050042391E+03  0.12499748850E+03 0.  0.
         23    2    1    2    0    0 -0.48705740396E+02  0.58961654813E+02  0.50897995399E+01  0.12003519259E+03  0.92378652923E+02 0.  0.
          5    1    3    3  502    0 -0.24895149036E+02 -0.46031116164E+02 -0.79417291489E+02  0.95225145252E+02  0.47000000000E+01 0.  1.
         -5    1    3    3    0  502  0.73600889432E+02 -0.12930538649E+02 -0.77451805839E+01  0.75275278659E+02  0.47000000000E+01 0.  1.
          5    1    4    4  503    0 -0.45338094043E+02  0.33814875113E+02 -0.39060984022E+02  0.68897307808E+02  0.47000000000E+01 0. -1.
         -5    1    4    4    0  503 -0.33676463529E+01  0.25146779700E+02  0.44150783562E+02  0.51137884786E+02  0.47000000000E+01 0.  1.
<mgrwt>
<rscale>  0 0.13937663E+03</rscale>
<asrwt>0</asrwt>
<pdfrwt beam="1">  1        1 0.28662176E-01 0.14653702E+03</pdfrwt>
<pdfrwt beam="2">  1       -1 0.16035611E-01 0.14653702E+03</pdfrwt>
<totfact> 0.44631445E+03</totfact>
</mgrwt>
</event>
<event>
 8    1  0.3629925E-004  0.1348460E+03  0.7546771E-02  0.1232888E+00
         -2   -1    0    0    0  501 -0.00000000000E+00  0.00000000000E+00  0.25363444944E+02  0.25363444944E+02  0.00000000000E+00 0.  1.
          2   -1    0    0  501    0  0.00000000000E+00 -0.00000000000E+00 -0.64763295596E+03  0.64763295596E+03  0.00000000000E+00 0. -1.
         25    2    1    2    0    0 -0.27726900404E+02  0.42299474236E+02 -0.46674611224E+03  0.48583471580E+03  0.12500164503E+03 0.  0.
         23    2    1    2    0    0  0.27726900404E+02 -0.42299474236E+02 -0.15552339878E+03  0.18716168511E+03  0.91016164920E+02 0.  0.
          5    1    3    3  502    0  0.98642658317E+01  0.71105600124E+02 -0.38131396380E+03  0.38804089875E+03  0.47000000000E+01 0. -1.
         -5    1    3    3    0  502 -0.37591166236E+02 -0.28806125888E+02 -0.85432148436E+02  0.97793817054E+02  0.47000000000E+01 0. -1.
          5    1    4    4  503    0  0.32328806041E+02 -0.66295067104E+02 -0.86407100429E+02  0.11370340640E+03  0.47000000000E+01 0. -1.
         -5    1    4    4    0  503 -0.46019056369E+01  0.23995592869E+02 -0.69116298353E+02  0.73458278707E+02  0.47000000000E+01 0.  1.
<mgrwt>
<rscale>  0 0.12640580E+03</rscale>
<asrwt>0</asrwt>
<pdfrwt beam="1">  1        2 0.99635840E-01 0.13484598E+03</pdfrwt>
<pdfrwt beam="2">  1       -2 0.39020684E-02 0.13484598E+03</pdfrwt>
<totfact> 0.12520304E+04</totfact>
</mgrwt>
</event>
<event>
 8    1  0.3629925E-004  0.1658082E+03  0.7546771E-02  0.1189066E+00
          1   -1    0    0  501    0  0.00000000000E+00  0.00000000000E+00  0.40669571499E+03  0.40669571499E+03  0.00000000000E+00 0. -1.
         -1   -1    0    0    0  501 -0.00000000000E+00 -0.00000000000E+00 -0.66728686373E+02  0.66728686373E+02  0.00000000000E+00 0.  1.
         25    2    1    2    0    0  0.72851321433E+02  0.80990327787E+02  0.26427111826E+03  0.31198012358E+03  0.12500250129E+03 0.  0.
         23    2    1    2    0    0 -0.72851321433E+02 -0.80990327787E+02  0.75695910354E+02  0.16144427779E+03  0.92019757420E+02 0.  0.
          5    1    4    4  502    0 -0.58814482838E+01 -0.74783578867E+02  0.38687693262E+02  0.84534032862E+02  0.47000000000E+01 0. -1.
         -5    1    4    4    0  502 -0.66969873149E+02 -0.62067489204E+01  0.37008217091E+02  0.76910244923E+02  0.47000000000E+01 0.  1.
          5    1    3    3  503    0 -0.33938257749E+01  0.68954553411E+02  0.19932123153E+03  0.21099121268E+03  0.47000000000E+01 0.  1.
         -5    1    3    3    0  503  0.76245147208E+02  0.12035774376E+02  0.64949886733E+02  0.10098891090E+03  0.47000000000E+01 0.  1.
<mgrwt>
<rscale>  0 0.15967373E+03</rscale>
<asrwt>0</asrwt>
<pdfrwt beam="1">  1        1 0.62568570E-01 0.16580824E+03</pdfrwt>
<pdfrwt beam="2">  1       -1 0.10265952E-01 0.16580824E+03</pdfrwt>
<totfact> 0.33925058E+03</totfact>
</mgrwt>
</event>
<event>
 8    1  0.3629925E-004  0.1506209E+03  0.7546771E-02  0.1208930E+00
         -2   -1    0    0    0  501 -0.00000000000E+00  0.00000000000E+00  0.31455793500E+03  0.31455793500E+03  0.00000000000E+00 0.  1.
          2   -1    0    0  501    0  0.00000000000E+00 -0.00000000000E+00 -0.60197072008E+02  0.60197072008E+02  0.00000000000E+00 0. -1.
         25    2    1    2    0    0  0.75844835449E+02 -0.36202631640E+02  0.12289069117E+03  0.19439338903E+03  0.12499439236E+03 0.  0.
         23    2    1    2    0    0 -0.75844835449E+02  0.36202631640E+02  0.13147017182E+03  0.18036161797E+03  0.90459038006E+02 0.  0.
          5    1    3    3  502    0  0.53434032452E+02  0.31797927009E+02  0.10219278155E+03  0.11971532311E+03  0.47000000000E+01 0.  1.
         -5    1    3    3    0  502  0.22410802997E+02 -0.68000558649E+02  0.20697909618E+02  0.74678065924E+02  0.47000000000E+01 0.  1.
          5    1    4    4  503    0 -0.46874459475E+02 -0.15863502322E+02  0.19419960179E+02  0.53367504254E+02  0.47000000000E+01 0. -1.
         -5    1    4    4    0  503 -0.28970375975E+02  0.52066133962E+02  0.11205021164E+03  0.12699411372E+03  0.47000000000E+01 0.  1.
<mgrwt>
<rscale>  0 0.14332045E+03</rscale>
<asrwt>0</asrwt>
<pdfrwt beam="1">  1        2 0.92610882E-02 0.15062094E+03</pdfrwt>
<pdfrwt beam="2">  1       -2 0.48393528E-01 0.15062094E+03</pdfrwt>
<totfact> 0.27968510E+03</totfact>
</mgrwt>
</event>
<event>
 8    1  0.3629925E-004  0.1602005E+03  0.7546771E-02  0.1196231E+00
          1   -1    0    0  501    0  0.00000000000E+00  0.00000000000E+00  0.72027076700E+03  0.72027076700E+03  0.00000000000E+00 0. -1.
         -1   -1    0    0    0  501 -0.00000000000E+00 -0.00000000000E+00 -0.34171735391E+02  0.34171735391E+02  0.00000000000E+00 0.  1.
         25    2    1    2    0    0 -0.82182951015E+02  0.57295506378E+02  0.49618385229E+03  0.52140446549E+03  0.12500955511E+03 0.  0.
         23    2    1    2    0    0  0.82182951015E+02 -0.57295506378E+02  0.18991517931E+03  0.23303803690E+03  0.90565660261E+02 0.  0.
          5    1    4    4  502    0  0.43450554275E+02  0.16181908964E+02  0.39250222051E+02  0.60930081040E+02  0.47000000000E+01 0. -1.
         -5    1    4    4    0  502  0.38732396741E+02 -0.73477415342E+02  0.15066495726E+03  0.17210795586E+03  0.47000000000E+01 0.  1.
          5    1    3    3  503    0 -0.88074698557E+02  0.86091471202E+02  0.32369307543E+03  0.34636424617E+03  0.47000000000E+01 0. -1.
         -5    1    3    3    0  503  0.58917475417E+01 -0.28795964824E+02  0.17249077686E+03  0.17504021933E+03  0.47000000000E+01 0. -1.
<mgrwt>
<rscale>  0 0.15350513E+03</rscale>
<asrwt>0</asrwt>
<pdfrwt beam="1">  1        1 0.11081088E+00 0.16020050E+03</pdfrwt>
<pdfrwt beam="2">  1       -1 0.52571906E-02 0.16020050E+03</pdfrwt>
<totfact> 0.43180283E+03</totfact>
</mgrwt>
</event>
<event>
 8    1  0.3629925E-004  0.1462207E+03  0.7546771E-02  0.1214560E+00
         -2   -1    0    0    0  501 -0.00000000000E+00  0.00000000000E+00  0.37633416321E+02  0.37633416321E+02  0.00000000000E+00 0. -1.
          2   -1    0    0  501    0  0.00000000000E+00 -0.00000000000E+00 -0.61529250175E+03  0.61529250175E+03  0.00000000000E+00 0.  1.
         25    2    1    2    0    0 -0.75853120880E+02 -0.11487123602E+01 -0.46895699636E+03  0.49122415637E+03  0.12500196751E+03 0.  0.
         23    2    1    2    0    0  0.75853120880E+02  0.11487123602E+01 -0.10870208907E+03  0.16170176170E+03  0.92608315399E+02 0.  0.
          5    1    3    3  502    0  0.11318054599E+02  0.45574636182E+02 -0.14842734188E+03  0.15574951570E+03  0.47000000000E+01 0. -1.
         -5    1    3    3    0  502 -0.87171175479E+02 -0.46723348542E+02 -0.32052965448E+03  0.33547464067E+03  0.47000000000E+01 0. -1.
          5    1    4    4  503    0  0.62789511838E+02  0.42525038250E+02 -0.72036621895E+02  0.10470084321E+03  0.47000000000E+01 0. -1.
         -5    1    4    4    0  503  0.13063609042E+02 -0.41376325890E+02 -0.36665467173E+02  0.57000918487E+02  0.47000000000E+01 0.  1.
<mgrwt>
<rscale>  0 0.13908891E+03</rscale>
<asrwt>0</asrwt>
<pdfrwt beam="1">  1        2 0.94660380E-01 0.14622075E+03</pdfrwt>
<pdfrwt beam="2">  1       -2 0.57897567E-02 0.14622075E+03</pdfrwt>
<totfact> 0.73885970E+03</totfact>
</mgrwt>
</event>
<event>
 8    1  0.3629925E-004  0.1799750E+03  0.7546771E-02  0.1172101E+00
         -1   -1    0    0    0  501 -0.00000000000E+00  0.00000000000E+00  0.53292406368E+02  0.53292406368E+02  0.00000000000E+00 0.  1.
          1   -1    0    0  501    0  0.00000000000E+00 -0.00000000000E+00 -0.57614839654E+03  0.57614839654E+03  0.00000000000E+00 0. -1.
         25    2    1    2    0    0 -0.12048720060E+03 -0.47428085588E+02 -0.33734558270E+03  0.38235200445E+03  0.12499769730E+03 0.  0.
         23    2    1    2    0    0  0.12048720060E+03  0.47428085588E+02 -0.18551040748E+03  0.24708879846E+03  0.99358815579E+02 0.  0.
          5    1    3    3  502    0 -0.13295421829E+02  0.37236168378E+02 -0.11119753909E+03  0.11811131689E+03  0.47000000000E+01 0. -1.
         -5    1    3    3    0  502 -0.10719177877E+03 -0.84664253965E+02 -0.22614804360E+03  0.26424068756E+03  0.47000000000E+01 0. -1.
          5    1    4    4  503    0  0.79692510217E+02  0.39512454439E+02 -0.18493026639E+03  0.20526427762E+03  0.47000000000E+01 0. -1.
         -5    1    4    4    0  503  0.40794690379E+02  0.79156311487E+01 -0.58014108322E+00  0.41824520837E+02  0.47000000000E+01 0.  1.
<mgrwt>
<rscale>  0 0.17562990E+03</rscale>
<asrwt>0</asrwt>
<pdfrwt beam="1">  1        1 0.88638224E-01 0.17997503E+03</pdfrwt>
<pdfrwt beam="2">  1       -1 0.81988309E-02 0.17997503E+03</pdfrwt>
<totfact> 0.30401143E+03</totfact>
</mgrwt>
</event>
<event>
 8    1  0.3629925E-004  0.1344602E+03  0.7546771E-02  0.1233244E+00
          1   -1    0    0  501    0  0.00000000000E+00  0.00000000000E+00  0.46650938739E+02  0.46650938739E+02  0.00000000000E+00 0. -1.
         -1   -1    0    0    0  501 -0.00000000000E+00 -0.00000000000E+00 -0.34550010419E+03  0.34550010419E+03  0.00000000000E+00 0.  1.
         25    2    1    2    0    0  0.46601967104E+02 -0.16799351371E+02 -0.99799482811E+02  0.16744997916E+03  0.12500238880E+03 0.  0.
         23    2    1    2    0    0 -0.46601967104E+02  0.16799351371E+02 -0.19904968264E+03  0.22470106377E+03  0.91737834920E+02 0.  0.
          5    1    3    3  502    0  0.46871322931E+02  0.23130729877E+02 -0.11344146336E+03  0.12499202850E+03  0.47000000000E+01 0. -1.
         -5    1    3    3    0  502 -0.26935582700E+00 -0.39930081247E+02  0.13641980553E+02  0.42457950662E+02  0.47000000000E+01 0. -1.
          5    1    4    4  503    0 -0.62023456285E+02 -0.18885656610E+02 -0.11952149667E+03  0.13605533919E+03  0.47000000000E+01 0. -1.
         -5    1    4    4    0  503  0.15421489181E+02  0.35685007980E+02 -0.79528185972E+02  0.88645724585E+02  0.47000000000E+01 0.  1.
<mgrwt>
<rscale>  0 0.12617493E+03</rscale>
<asrwt>0</asrwt>
<pdfrwt beam="1">  1        1 0.71770673E-02 0.13446025E+03</pdfrwt>
<pdfrwt beam="2">  1       -1 0.53153864E-01 0.13446025E+03</pdfrwt>
<totfact> 0.35496239E+03</totfact>
</mgrwt>
</event>
<event>
 8    1  0.3629925E-004  0.1888460E+03  0.7546771E-02  0.1164633E+00
          2   -1    0    0  501    0  0.00000000000E+00  0.00000000000E+00  0.11032846668E+04  0.11032846668E+04  0.00000000000E+00 0. -1.
         -2   -1    0    0    0  501 -0.00000000000E+00 -0.00000000000E+00 -0.30826763330E+02  0.30826763330E+02  0.00000000000E+00 0.  1.
         25    2    1    2    0    0 -0.13446441350E+03  0.44232680072E+02  0.71107785286E+03  0.73572721174E+03  0.12500243510E+03 0.  0.
         23    2    1    2    0    0  0.13446441350E+03 -0.44232680072E+02  0.36138005066E+03  0.39838421844E+03  0.89873444382E+02 0.  0.
          5    1    3    3  502    0 -0.26604184869E+02 -0.10902053252E+02  0.23180470799E+02  0.37229848833E+02  0.47000000000E+01 0.  1.
         -5    1    3    3    0  502 -0.10786022863E+03  0.55134733324E+02  0.68789738206E+03  0.69849736290E+03  0.47000000000E+01 0.  1.
          5    1    4    4  503    0  0.10112428768E+03 -0.28688677808E+02  0.33926315059E+03  0.35520520427E+03  0.47000000000E+01 0. -1.
         -5    1    4    4    0  503  0.33340125815E+02 -0.15544002264E+02  0.22116900063E+02  0.43179014163E+02  0.47000000000E+01 0.  1.
<mgrwt>
<rscale>  0 0.18331460E+03</rscale>
<asrwt>0</asrwt>
<pdfrwt beam="1">  1        2 0.16973607E+00 0.18884601E+03</pdfrwt>
<pdfrwt beam="2">  1       -2 0.47425798E-02 0.18884601E+03</pdfrwt>
<totfact> 0.47757066E+03</totfact>
</mgrwt>
</event>
<event>
 8    1  0.3629925E-004  0.1315058E+03  0.7546771E-02  0.1238486E+00
         -2   -1    0    0    0  501 -0.00000000000E+00  0.00000000000E+00  0.24597126909E+02  0.24597126909E+02  0.00000000000E+00 0.  1.
          2   -1    0    0  501    0  0.00000000000E+00 -0.00000000000E+00 -0.55720589340E+03  0.55720589340E+03  0.00000000000E+00 0. -1.
         25    2    1    2    0    0 -0.37370697174E+02 -0.16682254159E+02 -0.25944793429E+03  0.29087283411E+03  0.12497563123E+03 0.  0.
         23    2    1    2    0    0  0.37370697174E+02  0.16682254159E+02 -0.27316083220E+03  0.29093018620E+03  0.91371036906E+02 0.  0.
          5    1    4    4  502    0 -0.99050901404E+01 -0.30881698308E+02 -0.96340423333E+02  0.10176127588E+03  0.47000000000E+01 0. -1.
         -5    1    4    4    0  502  0.47275787315E+02  0.47563952467E+02 -0.17682040887E+03  0.18916891032E+03  0.47000000000E+01 0.  1.
          5    1    3    3  503    0 -0.82286475914E+02  0.21542149029E+01 -0.15662074792E+03  0.17699676110E+03  0.47000000000E+01 0.  1.
         -5    1    3    3    0  503  0.44915778739E+02 -0.18836469062E+02 -0.10282718638E+03  0.11387607301E+03  0.47000000000E+01 0.  1.
<mgrwt>
<rscale>  0 0.12283900E+03</rscale>
<asrwt>0</asrwt>
<pdfrwt beam="1">  1        2 0.85723977E-01 0.13150580E+03</pdfrwt>
<pdfrwt beam="2">  1       -2 0.37841737E-02 0.13150580E+03</pdfrwt>
<totfact> 0.15519538E+04</totfact>
</mgrwt>
</event>
<event>
 8    1  0.3629925E-004  0.1621383E+03  0.7546771E-02  0.1193078E+00
          1   -1    0    0  501    0  0.00000000000E+00  0.00000000000E+00  0.37556437687E+03  0.37556437687E+03  0.00000000000E+00 0. -1.
         -1   -1    0    0    0  501 -0.00000000000E+00 -0.00000000000E+00 -0.10256426481E+03  0.10256426481E+03  0.00000000000E+00 0.  1.
         25    2    1    2    0    0  0.91801494199E+02  0.47282038929E+02 -0.10134956418E+02  0.16245470920E+03  0.12500283860E+03 0.  0.
         23    2    1    2    0    0 -0.91801494199E+02 -0.47282038929E+02  0.28313506848E+03  0.31567393248E+03  0.93922622958E+02 0.  0.
          5    1    4    4  502    0 -0.15356410164E+02  0.25974541468E+02  0.39054579946E+02  0.49576671453E+02  0.47000000000E+01 0.  1.
         -5    1    4    4    0  502 -0.76445084035E+02 -0.73256580397E+02  0.24408048853E+03  0.26609726103E+03  0.47000000000E+01 0. -1.
          5    1    3    3  503    0  0.19780807409E+02  0.56379201561E+02 -0.51282339114E+02  0.78878786853E+02  0.47000000000E+01 0.  1.
         -5    1    3    3    0  503  0.72020686791E+02 -0.90971626315E+01  0.41147382696E+02  0.83575922349E+02  0.47000000000E+01 0.  1.
<mgrwt>
<rscale>  0 0.15618002E+03</rscale>
<asrwt>0</asrwt>
<pdfrwt beam="1">  1        1 0.57779134E-01 0.16213826E+03</pdfrwt>
<pdfrwt beam="2">  1       -1 0.15779118E-01 0.16213826E+03</pdfrwt>
<totfact> 0.19201221E+03</totfact>
</mgrwt>
</event>
<event>
 8    1  0.3629925E-004  0.1910011E+03  0.7546771E-02  0.1162420E+00
          1   -1    0    0  501    0  0.00000000000E+00  0.00000000000E+00  0.22424694118E+03  0.22424694118E+03  0.00000000000E+00 0. -1.
         -1   -1    0    0    0  501 -0.00000000000E+00 -0.00000000000E+00 -0.14581822083E+03  0.14581822083E+03  0.00000000000E+00 0.  1.
         25    2    1    2    0    0  0.10204812542E+03  0.10219186606E+03  0.37457324042E+02  0.19463937381E+03  0.12499774927E+03 0.  0.
         23    2    1    2    0    0 -0.10204812542E+03 -0.10219186606E+03  0.40971396309E+02  0.17542578819E+03  0.90766483110E+02 0.  0.
          5    1    3    3  502    0  0.94100257101E+02  0.12074193255E+03  0.59575456626E+02  0.16433136552E+03  0.47000000000E+01 0.  1.
         -5    1    4    4    0  503 -0.28079210419E+02  0.14784008867E+02  0.85903161164E+01  0.33209825457E+02  0.47000000000E+01 0.  1.
          5    1    4    4  503    0 -0.73968915002E+02 -0.11697587493E+03  0.32381080192E+02  0.14221596273E+03  0.47000000000E+01 0. -1.
         -5    1    3    3    0  502  0.79478683191E+01 -0.18550066489E+02 -0.22118132584E+02  0.30308008291E+02  0.47000000000E+01 0.  1.
<mgrwt>
<rscale>  0 0.18567579E+03</rscale>
<asrwt>0</asrwt>
<pdfrwt beam="1">  1        1 0.34499529E-01 0.19100114E+03</pdfrwt>
<pdfrwt beam="2">  1       -1 0.22433572E-01 0.19100114E+03</pdfrwt>
<totfact> 0.20882633E+03</totfact>
</mgrwt>
</event>
<event>
 8    1  0.3629925E-004  0.1729467E+03  0.7546771E-02  0.1180903E+00
          1   -1    0    0  501    0  0.00000000000E+00  0.00000000000E+00  0.34591180298E+03  0.34591180298E+03  0.00000000000E+00 0. -1.
         -1   -1    0    0    0  501 -0.00000000000E+00 -0.00000000000E+00 -0.82119971422E+02  0.82119971422E+02  0.00000000000E+00 0.  1.
         25    2    1    2    0    0  0.11943218956E+03 -0.47040445636E+01  0.80614514687E+02  0.19081206953E+03  0.12499747982E+03 0.  0.
         23    2    1    2    0    0 -0.11943218956E+03  0.47040445636E+01  0.18317731687E+03  0.23721970486E+03  0.91831819227E+02 0.  0.
          5    1    3    3  502    0 -0.10058204505E+02  0.21870347145E+02  0.49027340994E+02  0.54820158036E+02  0.47000000000E+01 0. -1.
         -5    1    4    4    0  503 -0.24744011510E+02  0.12083086798E+00 -0.57099877336E+01  0.25825852660E+02  0.47000000000E+01 0.  1.
          5    1    4    4  503    0 -0.94688178054E+02  0.45832136956E+01  0.18888730460E+03  0.21139385220E+03  0.47000000000E+01 0. -1.
         -5    1    3    3    0  502  0.12949039407E+03 -0.26574391708E+02  0.31587173693E+02  0.13599191150E+03  0.47000000000E+01 0. -1.
<mgrwt>
<rscale>  0 0.16710267E+03</rscale>
<asrwt>0</asrwt>
<pdfrwt beam="1">  1        1 0.53217199E-01 0.17294666E+03</pdfrwt>
<pdfrwt beam="2">  1       -1 0.12633842E-01 0.17294666E+03</pdfrwt>
<totfact> 0.30243637E+03</totfact>
</mgrwt>
</event>
<event>
 8    1  0.3629925E-004  0.1813269E+03  0.7546771E-02  0.1171761E+00
         -2   -1    0    0    0  501 -0.00000000000E+00  0.00000000000E+00  0.11968010185E+04  0.11968010185E+04  0.00000000000E+00 0.  1.
          2   -1    0    0  501    0  0.00000000000E+00 -0.00000000000E+00 -0.29411877694E+02  0.29411877694E+02  0.00000000000E+00 0. -1.
         25    2    1    2    0    0  0.75563650243E+02 -0.10745459566E+03  0.36145378510E+03  0.40438630310E+03  0.12499235179E+03 0.  0.
         23    2    1    2    0    0 -0.75563650243E+02  0.10745459566E+03  0.80593535573E+03  0.82182659312E+03  0.92794375736E+02 0.  0.
          5    1    3    3  502    0 -0.15212314675E+02 -0.63517419719E+02  0.22694623990E+03  0.23620449388E+03  0.47000000000E+01 0. -1.
         -5    1    4    4    0  503 -0.54722008931E+02  0.40898242537E+01  0.29647663349E+03  0.30154885032E+03  0.47000000000E+01 0.  1.
          5    1    4    4  503    0 -0.20841641312E+02  0.10336477141E+03  0.50945872224E+03  0.52027774280E+03  0.47000000000E+01 0. -1.
         -5    1    3    3    0  502  0.90775964917E+02 -0.43937175946E+02  0.13450754520E+03  0.16818180922E+03  0.47000000000E+01 0. -1.
<mgrwt>
<rscale>  0 0.17597065E+03</rscale>
<asrwt>0</asrwt>
<pdfrwt beam="1">  1        2 0.45249052E-02 0.18132690E+03</pdfrwt>
<pdfrwt beam="2">  1       -2 0.18412320E+00 0.18132690E+03</pdfrwt>
<totfact> 0.32567775E+02</totfact>
</mgrwt>
</event>
<event>
 8    1  0.3629925E-004  0.1892173E+03  0.7546771E-02  0.1163945E+00
          2   -1    0    0  501    0  0.00000000000E+00  0.00000000000E+00  0.12188509683E+03  0.12188509683E+03  0.00000000000E+00 0. -1.
         -2   -1    0    0    0  501 -0.00000000000E+00 -0.00000000000E+00 -0.28781884911E+03  0.28781884911E+03  0.00000000000E+00 0.  1.
         25    2    1    2    0    0  0.99122692219E+02 -0.10174954539E+03 -0.27995439725E+02  0.19127708762E+03  0.12499960601E+03 0.  0.
         23    2    1    2    0    0 -0.99122692219E+02  0.10174954539E+03 -0.13793831255E+03  0.21842685832E+03  0.92222753532E+02 0.  0.
          5    1    3    3  502    0  0.10094339341E+03 -0.50799696199E+02 -0.62800555416E+02  0.12936837932E+03  0.47000000000E+01 0.  1.
         -5    1    3    3    0  502 -0.18207011875E+01 -0.50949849187E+02  0.34805115691E+02  0.61908708299E+02  0.47000000000E+01 0.  1.
          5    1    4    4  503    0 -0.16107381441E+01  0.21459047951E+02  0.97024047102E+01  0.24068898469E+02  0.47000000000E+01 0. -1.
         -5    1    4    4    0  503 -0.97511954075E+02  0.80290497435E+02 -0.14764071726E+03  0.19435795985E+03  0.47000000000E+01 0.  1.
<mgrwt>
<rscale>  0 0.18404510E+03</rscale>
<asrwt>0</asrwt>
<pdfrwt beam="1">  1        2 0.18751553E-01 0.18921728E+03</pdfrwt>
<pdfrwt beam="2">  1       -2 0.44279823E-01 0.18921728E+03</pdfrwt>
<totfact> 0.14456924E+03</totfact>
</mgrwt>
</event>
<event>
 8    1  0.3629925E-004  0.4308432E+03  0.7546771E-02  0.1034399E+00
         -1   -1    0    0    0  501 -0.00000000000E+00  0.00000000000E+00  0.22879835432E+03  0.22879835432E+03  0.00000000000E+00 0. -1.
          1   -1    0    0  501    0  0.00000000000E+00 -0.00000000000E+00 -0.81797418518E+03  0.81797418518E+03  0.00000000000E+00 0.  1.
         25    2    1    2    0    0  0.16742243399E+03  0.37680046591E+03 -0.39049492211E+03  0.58147414410E+03  0.12496813012E+03 0.  0.
         23    2    1    2    0    0 -0.16742243399E+03 -0.37680046591E+03 -0.19868090875E+03  0.46529839540E+03  0.83783236679E+02 0.  0.
          5    1    4    4  502    0 -0.97443444017E+02 -0.13678620881E+03 -0.10582805341E+03  0.19856323575E+03  0.47000000000E+01 0. -1.
         -5    1    3    3    0  503  0.14033639816E+03  0.34826954888E+03 -0.39063716807E+03  0.54185373524E+03  0.47000000000E+01 0.  1.
          5    1    3    3  503    0  0.27086035832E+02  0.28530917032E+02  0.14224595397E+00  0.39620408854E+02  0.47000000000E+01 0.  1.
         -5    1    4    4    0  502 -0.69978989971E+02 -0.24001425710E+03 -0.92852855331E+02  0.26673515965E+03  0.47000000000E+01 0.  1.
<mgrwt>
<rscale>  0 0.42829683E+03</rscale>
<asrwt>0</asrwt>
<pdfrwt beam="1">  1        1 0.12584218E+00 0.43084324E+03</pdfrwt>
<pdfrwt beam="2">  1       -1 0.35199748E-01 0.43084324E+03</pdfrwt>
<totfact> 0.17059189E+02</totfact>
</mgrwt>
</event>
<event>
 8    1  0.3629925E-004  0.1393975E+03  0.7546771E-02  0.1221695E+00
         -2   -1    0    0    0  501 -0.00000000000E+00  0.00000000000E+00  0.12087686603E+03  0.12087686603E+03  0.00000000000E+00 0.  1.
          2   -1    0    0  501    0  0.00000000000E+00 -0.00000000000E+00 -0.27602505237E+03  0.27602505237E+03  0.00000000000E+00 0. -1.
         25    2    1    2    0    0  0.53256143261E+02  0.31171065605E+02 -0.22077799371E+03  0.26110260951E+03  0.12499519215E+03 0.  0.
         23    2    1    2    0    0 -0.53256143261E+02 -0.31171065605E+02  0.65629807375E+02  0.13579930889E+03  0.10161854434E+03 0.  0.
          5    1    3    3  502    0  0.78484837319E+02  0.33959609716E+01 -0.20596644942E+03  0.22048961547E+03  0.47000000000E+01 0.  1.
         -5    1    3    3    0  502 -0.25228694058E+02  0.27775104634E+02 -0.14811544290E+02  0.40612994048E+02  0.47000000000E+01 0.  1.
          5    1    4    4  503    0  0.18897625902E+02 -0.80401668630E+01 -0.14377859503E+02  0.25506418639E+02  0.47000000000E+01 0. -1.
         -5    1    4    4    0  503 -0.72153769162E+02 -0.23130898742E+02  0.80007666878E+02  0.11029289025E+03  0.47000000000E+01 0.  1.
<mgrwt>
<rscale>  0 0.13395995E+03</rscale>
<asrwt>0</asrwt>
<pdfrwt beam="1">  1        2 0.42465393E-01 0.13939745E+03</pdfrwt>
<pdfrwt beam="2">  1       -2 0.18596441E-01 0.13939745E+03</pdfrwt>
<totfact> 0.27683728E+03</totfact>
</mgrwt>
</event>
<event>
 8    1  0.3629925E-004  0.1299449E+03  0.7546771E-02  0.1241235E+00
         -2   -1    0    0    0  501 -0.00000000000E+00  0.00000000000E+00  0.17227415772E+02  0.17227415772E+02  0.00000000000E+00 0.  1.
          2   -1    0    0  501    0  0.00000000000E+00 -0.00000000000E+00 -0.76829423492E+03  0.76829423492E+03  0.00000000000E+00 0. -1.
         25    2    1    2    0    0  0.14657212538E+02 -0.32351001914E+02 -0.47837340709E+03  0.49570836521E+03  0.12499698207E+03 0.  0.
         23    2    1    2    0    0 -0.14657212538E+02  0.32351001914E+02 -0.27269341206E+03  0.28981328548E+03  0.91480174114E+02 0.  0.
          5    1    3    3  502    0  0.64787190887E+02 -0.43751321764E+02 -0.28994363350E+03  0.30033474469E+03  0.47000000000E+01 0.  1.
         -5    1    4    4    0  503  0.17259071746E+02  0.39052532932E+02 -0.55732072508E+02  0.70364265021E+02  0.47000000000E+01 0.  1.
          5    1    4    4  503    0 -0.31916284284E+02 -0.67015310182E+01 -0.21696133955E+03  0.21944902046E+03  0.47000000000E+01 0. -1.
         -5    1    3    3    0  502 -0.50129978349E+02  0.11400319850E+02 -0.18842977359E+03  0.19537362053E+03  0.47000000000E+01 0.  1.
<mgrwt>
<rscale>  0 0.12113590E+03</rscale>
<asrwt>0</asrwt>
<pdfrwt beam="1">  1        2 0.11819911E+00 0.12994486E+03</pdfrwt>
<pdfrwt beam="2">  1       -2 0.26503717E-02 0.12994486E+03</pdfrwt>
<totfact> 0.18010873E+04</totfact>
</mgrwt>
</event>
<event>
 8    1  0.3629925E-004  0.1301080E+03  0.7546771E-02  0.1241585E+00
          1   -1    0    0  501    0  0.00000000000E+00  0.00000000000E+00  0.27994707469E+03  0.27994707469E+03  0.00000000000E+00 0. -1.
         -1   -1    0    0    0  501 -0.00000000000E+00 -0.00000000000E+00 -0.48382909341E+02  0.48382909341E+02  0.00000000000E+00 0.  1.
         25    2    1    2    0    0  0.38440582937E+01 -0.35975961683E+02  0.16719661674E+03  0.21185563304E+03  0.12497621373E+03 0.  0.
         23    2    1    2    0    0 -0.38440582937E+01  0.35975961683E+02  0.64367548610E+02  0.11647435099E+03  0.90078002431E+02 0.  0.
          5    1    3    3  502    0  0.24826071804E+02 -0.66412959558E+02  0.15833813313E+03  0.17355134526E+03  0.47000000000E+01 0. -1.
         -5    1    3    3    0  502 -0.20982013510E+02  0.30436997875E+02  0.88584836140E+01  0.38304287783E+02  0.47000000000E+01 0. -1.
          5    1    4    4  503    0  0.19478477513E+02  0.31722857984E+02  0.79534619099E+02  0.87940868998E+02  0.47000000000E+01 0. -1.
         -5    1    4    4    0  503 -0.23322535807E+02  0.42531036986E+01 -0.15167070489E+02  0.28533481995E+02  0.47000000000E+01 0.  1.
<mgrwt>
<rscale>  0 0.12092115E+03</rscale>
<asrwt>0</asrwt>
<pdfrwt beam="1">  1        1 0.43068780E-01 0.13010803E+03</pdfrwt>
<pdfrwt beam="2">  1       -1 0.74435247E-02 0.13010803E+03</pdfrwt>
<totfact> 0.86932455E+03</totfact>
</mgrwt>
</event>
<event>
 8    1  0.3629925E-004  0.1798852E+03  0.7546771E-02  0.1173325E+00
         -2   -1    0    0    0  501 -0.00000000000E+00  0.00000000000E+00  0.42190016949E+02  0.42190016949E+02  0.00000000000E+00 0.  1.
          2   -1    0    0  501    0  0.00000000000E+00 -0.00000000000E+00 -0.68039523686E+03  0.68039523686E+03  0.00000000000E+00 0. -1.
         25    2    1    2    0    0 -0.74839323740E+02 -0.10550258519E+03 -0.34112037221E+03  0.38564464955E+03  0.12500786988E+03 0.  0.
         23    2    1    2    0    0  0.74839323740E+02  0.10550258519E+03 -0.29708484770E+03  0.33694060426E+03  0.92400455660E+02 0.  0.
          5    1    3    3  502    0 -0.16784551680E+02 -0.97824841556E+02 -0.11483358399E+03  0.15185605952E+03  0.47000000000E+01 0. -1.
         -5    1    4    4    0  503 -0.17051002338E+02  0.46268647528E+02 -0.93282101184E+02  0.10561801374E+03  0.47000000000E+01 0.  1.
          5    1    4    4  503    0  0.91890326078E+02  0.59233937658E+02 -0.20380274652E+03  0.23132259052E+03  0.47000000000E+01 0. -1.
         -5    1    3    3    0  502 -0.58054772060E+02 -0.76777436303E+01 -0.22628678822E+03  0.23378859003E+03  0.47000000000E+01 0. -1.
<mgrwt>
<rscale>  0 0.17440997E+03</rscale>
<asrwt>0</asrwt>
<pdfrwt beam="1">  1        2 0.10467619E+00 0.17988521E+03</pdfrwt>
<pdfrwt beam="2">  1       -2 0.64907717E-02 0.17988521E+03</pdfrwt>
<totfact> 0.55756292E+03</totfact>
</mgrwt>
</event>
<event>
 8    1  0.3629925E-004  0.1391323E+03  0.7546771E-02  0.1226218E+00
         -1   -1    0    0    0  501 -0.00000000000E+00  0.00000000000E+00  0.44401717539E+02  0.44401717539E+02  0.00000000000E+00 0.  1.
          1   -1    0    0  501    0  0.00000000000E+00 -0.00000000000E+00 -0.38035898945E+03  0.38035898945E+03  0.00000000000E+00 0. -1.
         25    2    1    2    0    0  0.61028226042E+02  0.24436219277E+01 -0.12338653886E+03  0.18596245249E+03  0.12500952005E+03 0.  0.
         23    2    1    2    0    0 -0.61028226042E+02 -0.24436219277E+01 -0.21257073305E+03  0.23879825450E+03  0.90043734588E+02 0.  0.
          5    1    4    4  502    0 -0.35699736445E+02 -0.36122611092E+02 -0.17454188038E+03  0.18184133804E+03  0.47000000000E+01 0. -1.
         -5    1    3    3    0  503  0.91554054848E+02 -0.20665823432E+02 -0.59171065308E+02  0.11105190762E+03  0.47000000000E+01 0. -1.
          5    1    3    3  503    0 -0.30525828806E+02  0.23109445360E+02 -0.64215473551E+02  0.74910544869E+02  0.47000000000E+01 0. -1.
         -5    1    4    4    0  502 -0.25328489597E+02  0.33678989165E+02 -0.38028852670E+02  0.56956916453E+02  0.47000000000E+01 0.  1.
<mgrwt>
<rscale>  0 0.13083745E+03</rscale>
<asrwt>0</asrwt>
<pdfrwt beam="1">  1        1 0.58516765E-01 0.13913230E+03</pdfrwt>
<pdfrwt beam="2">  1       -1 0.68310337E-02 0.13913230E+03</pdfrwt>
<totfact> 0.67864368E+03</totfact>
</mgrwt>
</event>
<event>
 8    1  0.3629925E-004  0.1565550E+03  0.7546771E-02  0.1200354E+00
          1   -1    0    0  501    0  0.00000000000E+00  0.00000000000E+00  0.40113760221E+02  0.40113760221E+02  0.00000000000E+00 0. -1.
         -1   -1    0    0    0  501 -0.00000000000E+00 -0.00000000000E+00 -0.56071928911E+03  0.56071928911E+03  0.00000000000E+00 0.  1.
         25    2    1    2    0    0  0.80791536937E+02 -0.48552586051E+02 -0.19982463222E+03  0.25384909017E+03  0.12499940353E+03 0.  0.
         23    2    1    2    0    0 -0.80791536937E+02  0.48552586051E+02 -0.32078089667E+03  0.34698395917E+03  0.92805485820E+02 0.  0.
          5    1    4    4  502    0 -0.83367909405E+02  0.98055524435E+01 -0.15172336506E+03  0.17346015878E+03  0.47000000000E+01 0. -1.
         -5    1    3    3    0  503  0.35542592115E+02 -0.86469946194E+02 -0.14818513201E+03  0.17527478654E+03  0.47000000000E+01 0. -1.
          5    1    3    3  503    0  0.45248944823E+02  0.37917360143E+02 -0.51639500212E+02  0.78574303624E+02  0.47000000000E+01 0. -1.
         -5    1    4    4    0  502  0.25763724676E+01  0.38747033607E+02 -0.16905753161E+03  0.17352380039E+03  0.47000000000E+01 0.  1.
<mgrwt>
<rscale>  0 0.15009707E+03</rscale>
<asrwt>0</asrwt>
<pdfrwt beam="1">  1        1 0.61713483E-02 0.15655503E+03</pdfrwt>
<pdfrwt beam="2">  1       -1 0.86264498E-01 0.15655503E+03</pdfrwt>
<totfact> 0.16949048E+03</totfact>
</mgrwt>
</event>
<event>
 8    1  0.3629925E-004  0.3739289E+03  0.7546771E-02  0.1054391E+00
         -2   -1    0    0    0  501 -0.00000000000E+00  0.00000000000E+00  0.15913356146E+04  0.15913356146E+04  0.00000000000E+00 0.  1.
          2   -1    0    0  501    0  0.00000000000E+00 -0.00000000000E+00 -0.10182937961E+03  0.10182937961E+03  0.00000000000E+00 0. -1.
         25    2    1    2    0    0 -0.35077261218E+03 -0.33999971537E+02  0.41087035862E+03  0.55555131720E+03  0.12500156374E+03 0.  0.
         23    2    1    2    0    0  0.35077261218E+03  0.33999971537E+02  0.10786358764E+04  0.11376136770E+04  0.80697588544E+02 0.  0.
          5    1    3    3  502    0 -0.17175171688E+03  0.16484165315E+02  0.11984609029E+03  0.21013223293E+03  0.47000000000E+01 0. -1.
         -5    1    4    4    0  503  0.87278512732E+02 -0.63175592590E+01  0.37656759458E+03  0.38662991817E+03  0.47000000000E+01 0.  1.
          5    1    4    4  503    0  0.26349409945E+03  0.40317530796E+02  0.70206828183E+03  0.75098375887E+03  0.47000000000E+01 0. -1.
         -5    1    3    3    0  502 -0.17902089530E+03 -0.50484136852E+02  0.29102426833E+03  0.34541908428E+03  0.47000000000E+01 0. -1.
<mgrwt>
<rscale>  0 0.37079184E+03</rscale>
<asrwt>0</asrwt>
<pdfrwt beam="1">  1        2 0.15666060E-01 0.37392889E+03</pdfrwt>
<pdfrwt beam="2">  1       -2 0.24482084E+00 0.37392889E+03</pdfrwt>
<totfact> 0.28042174E+01</totfact>
</mgrwt>
</event>
<event>
 8    1  0.3629925E-004  0.1396075E+03  0.7546771E-02  0.1224949E+00
         -3   -1    0    0    0  501 -0.00000000000E+00  0.00000000000E+00  0.14260130756E+03  0.14260130756E+03  0.00000000000E+00 0.  1.
          3   -1    0    0  501    0  0.00000000000E+00 -0.00000000000E+00 -0.11000054743E+03  0.11000054743E+03  0.00000000000E+00 0. -1.
         25    2    1    2    0    0  0.16718876921E+02 -0.59864034328E+02  0.12006589410E+02  0.14012284819E+03  0.12500812351E+03 0.  0.
         23    2    1    2    0    0 -0.16718876921E+02  0.59864034328E+02  0.20594170724E+02  0.11247900680E+03  0.91455910973E+02 0.  0.
          5    1    3    3  502    0 -0.37186242186E+02  0.19681638191E+02  0.11682137809E+02  0.43917488926E+02  0.47000000000E+01 0. -1.
         -5    1    3    3    0  502  0.53905119107E+02 -0.79545672519E+02  0.32445160086E+00  0.96205359265E+02  0.47000000000E+01 0. -1.
          5    1    4    4  503    0 -0.61510213846E+01 -0.23558282700E+02 -0.30965726407E+01  0.24990128251E+02  0.47000000000E+01 0. -1.
         -5    1    4    4    0  503 -0.10567855537E+02  0.83422317029E+02  0.23690743364E+02  0.87488878552E+02  0.47000000000E+01 0.  1.
<mgrwt>
<rscale>  0 0.13170382E+03</rscale>
<asrwt>0</asrwt>
<pdfrwt beam="1">  1        3 0.16923161E-01 0.13960750E+03</pdfrwt>
<pdfrwt beam="2">  1       -3 0.21938663E-01 0.13960750E+03</pdfrwt>
<totfact> 0.13238784E+03</totfact>
</mgrwt>
</event>
<event>
 8    1  0.3629925E-004  0.1274741E+03  0.7546771E-02  0.1245546E+00
         -2   -1    0    0    0  501 -0.00000000000E+00  0.00000000000E+00  0.16748666213E+02  0.16748666213E+02  0.00000000000E+00 0.  1.
          2   -1    0    0  501    0  0.00000000000E+00 -0.00000000000E+00 -0.74746728572E+03  0.74746728572E+03  0.00000000000E+00 0. -1.
         25    2    1    2    0    0 -0.22802156453E+02 -0.10208553826E+02 -0.45374367231E+03  0.47130984040E+03  0.12500197032E+03 0.  0.
         23    2    1    2    0    0  0.22802156453E+02  0.10208553826E+02 -0.27697494720E+03  0.29290611154E+03  0.91949529035E+02 0.  0.
          5    1    3    3  502    0 -0.11117164837E+02  0.50715253715E+02 -0.10693710206E+03  0.11896748341E+03  0.47000000000E+01 0.  1.
         -5    1    3    3    0  502 -0.11684991616E+02 -0.60923807541E+02 -0.34680657025E+03  0.35234235698E+03  0.47000000000E+01 0.  1.
          5    1    4    4  503    0  0.20517511706E+02  0.31775058088E+02 -0.26492924143E+03  0.26765689897E+03  0.47000000000E+01 0. -1.
         -5    1    4    4    0  503  0.22846447472E+01 -0.21566504262E+02 -0.12045705772E+02  0.25249212567E+02  0.47000000000E+01 0.  1.
<mgrwt>
<rscale>  0 0.11852786E+03</rscale>
<asrwt>0</asrwt>
<pdfrwt beam="1">  1        2 0.11499496E+00 0.12747410E+03</pdfrwt>
<pdfrwt beam="2">  1       -2 0.25767181E-02 0.12747410E+03</pdfrwt>
<totfact> 0.19376076E+04</totfact>
</mgrwt>
</event>
<event>
 8    1  0.3629925E-004  0.1473055E+03  0.7546771E-02  0.1211741E+00
         -2   -1    0    0    0  501 -0.00000000000E+00  0.00000000000E+00  0.58291675732E+02  0.58291675732E+02  0.00000000000E+00 0.  1.
          2   -1    0    0  501    0  0.00000000000E+00 -0.00000000000E+00 -0.35659617016E+03  0.35659617016E+03  0.00000000000E+00 0. -1.
         25    2    1    2    0    0 -0.53343549497E+02 -0.56825150396E+02 -0.90938613327E+02  0.17311481929E+03  0.12499710906E+03 0.  0.
         23    2    1    2    0    0  0.53343549497E+02  0.56825150396E+02 -0.20736588111E+03  0.24177302661E+03  0.96845008951E+02 0.  0.
          5    1    3    3  502    0  0.26533613128E+02 -0.61021983209E+02 -0.48245228499E+02  0.82325009161E+02  0.47000000000E+01 0.  1.
         -5    1    3    3    0  502 -0.79877162625E+02  0.41968328135E+01 -0.42693384828E+02  0.90789810126E+02  0.47000000000E+01 0.  1.
          5    1    4    4  503    0  0.64801003271E+01  0.50510892538E+02 -0.17959238152E+03  0.18673204189E+03  0.47000000000E+01 0. -1.
         -5    1    4    4    0  503  0.46863449169E+02  0.63142578579E+01 -0.27773499581E+02  0.55040984723E+02  0.47000000000E+01 0.  1.
<mgrwt>
<rscale>  0 0.14118640E+03</rscale>
<asrwt>0</asrwt>
<pdfrwt beam="1">  1        2 0.54860950E-01 0.14730550E+03</pdfrwt>
<pdfrwt beam="2">  1       -2 0.89679500E-02 0.14730550E+03</pdfrwt>
<totfact> 0.68592990E+03</totfact>
</mgrwt>
</event>
<event>
 8    1  0.3629925E-004  0.1306751E+03  0.7546771E-02  0.1240308E+00
         -1   -1    0    0    0  501 -0.00000000000E+00  0.00000000000E+00  0.15692324264E+03  0.15692324264E+03  0.00000000000E+00 0.  1.
          1   -1    0    0  501    0  0.00000000000E+00 -0.00000000000E+00 -0.87563376598E+02  0.87563376598E+02  0.00000000000E+00 0. -1.
         25    2    1    2    0    0  0.32143290567E+02  0.20424750865E+02  0.13426123322E+02  0.13136302846E+03  0.12500249151E+03 0.  0.
         23    2    1    2    0    0 -0.32143290567E+02 -0.20424750865E+02  0.55933742721E+02  0.11312359078E+03  0.90653194311E+02 0.  0.
          5    1    3    3  502    0 -0.36928598136E+02  0.24977672484E+02 -0.25736606101E+02  0.51692053322E+02  0.47000000000E+01 0. -1.
         -5    1    4    4    0  503  0.12101413945E+02  0.16490679312E+02  0.50940523805E+02  0.55094588565E+02  0.47000000000E+01 0.  1.
          5    1    4    4  503    0 -0.44244704511E+02 -0.36915430177E+02  0.49932189161E+01  0.58029002211E+02  0.47000000000E+01 0. -1.
         -5    1    3    3    0  502  0.69071888703E+02 -0.45529216190E+01  0.39162729423E+02  0.79670975142E+02  0.47000000000E+01 0. -1.
<mgrwt>
<rscale>  0 0.12170650E+03</rscale>
<asrwt>0</asrwt>
<pdfrwt beam="1">  1        1 0.13471289E-01 0.13067511E+03</pdfrwt>
<pdfrwt beam="2">  1       -1 0.24142037E-01 0.13067511E+03</pdfrwt>
<totfact> 0.60137515E+03</totfact>
</mgrwt>
</event>
<event>
 8    1  0.3629925E-004  0.1544818E+03  0.7546771E-02  0.1202802E+00
          2   -1    0    0  501    0  0.00000000000E+00  0.00000000000E+00  0.80958388586E+02  0.80958388586E+02  0.00000000000E+00 0. -1.
         -2   -1    0    0    0  501 -0.00000000000E+00 -0.00000000000E+00 -0.25105972702E+03  0.25105972702E+03  0.00000000000E+00 0.  1.
         25    2    1    2    0    0  0.88687665577E+02 -0.19411501313E+02 -0.88050904615E+02  0.17781331406E+03  0.12498921732E+03 0.  0.
         23    2    1    2    0    0 -0.88687665577E+02  0.19411501313E+02 -0.82050433823E+02  0.15420480155E+03  0.93832503544E+02 0.  0.
          5    1    4    4  502    0 -0.88032134167E+02 -0.55354244794E+01 -0.25067017004E+02  0.91819077058E+02  0.47000000000E+01 0. -1.
         -5    1    4    4    0  502 -0.65553140933E+00  0.24946925793E+02 -0.56983416818E+02  0.62385724491E+02  0.47000000000E+01 0.  1.
          5    1    3    3  503    0  0.24977235047E+02 -0.10386598713E+02  0.31608932850E+02  0.41868345315E+02  0.47000000000E+01 0.  1.
         -5    1    3    3    0  503  0.63710430529E+02 -0.90249026000E+01 -0.11965983747E+03  0.13594496875E+03  0.47000000000E+01 0.  1.
<mgrwt>
<rscale>  0 0.14811990E+03</rscale>
<asrwt>0</asrwt>
<pdfrwt beam="1">  1        2 0.12455137E-01 0.15448176E+03</pdfrwt>
<pdfrwt beam="2">  1       -2 0.38624573E-01 0.15448176E+03</pdfrwt>
<totfact> 0.30110036E+03</totfact>
</mgrwt>
</event>
<event>
 8    1  0.3629925E-004  0.1471099E+03  0.7546771E-02  0.1213794E+00
          2   -1    0    0  501    0  0.00000000000E+00  0.00000000000E+00  0.47381392312E+02  0.47381392312E+02  0.00000000000E+00 0. -1.
         -2   -1    0    0    0  501 -0.00000000000E+00 -0.00000000000E+00 -0.41946713594E+03  0.41946713594E+03  0.00000000000E+00 0.  1.
         25    2    1    2    0    0 -0.22208897108E+02 -0.74314533988E+02 -0.12763907420E+03  0.19476406643E+03  0.12500169294E+03 0.  0.
         23    2    1    2    0    0  0.22208897108E+02  0.74314533988E+02 -0.24444666943E+03  0.27208446182E+03  0.90883965014E+02 0.  0.
          5    1    4    4  502    0 -0.25085661690E+02  0.60819222072E+02 -0.10350475890E+03  0.12273383116E+03  0.47000000000E+01 0. -1.
         -5    1    4    4    0  502  0.47294558798E+02  0.13495311915E+02 -0.14094191053E+03  0.14935063066E+03  0.47000000000E+01 0.  1.
          5    1    3    3  503    0 -0.65384137494E+02 -0.79143002421E+02 -0.97682587823E+02  0.14178391387E+03  0.47000000000E+01 0.  1.
         -5    1    3    3    0  503  0.43175240386E+02  0.48284684332E+01 -0.29956486377E+02  0.52980152565E+02  0.47000000000E+01 0.  1.
<mgrwt>
<rscale>  0 0.13965494E+03</rscale>
<asrwt>0</asrwt>
<pdfrwt beam="1">  1        2 0.72894453E-02 0.14710985E+03</pdfrwt>
<pdfrwt beam="2">  1       -2 0.64533403E-01 0.14710985E+03</pdfrwt>
<totfact> 0.21044938E+03</totfact>
</mgrwt>
</event>
<event>
 8    1  0.3629925E-004  0.1321697E+03  0.7546771E-02  0.1237162E+00
         -1   -1    0    0    0  501 -0.00000000000E+00  0.00000000000E+00  0.10353901991E+03  0.10353901991E+03  0.00000000000E+00 0.  1.
          1   -1    0    0  501    0  0.00000000000E+00 -0.00000000000E+00 -0.19613030414E+03  0.19613030414E+03  0.00000000000E+00 0. -1.
         25    2    1    2    0    0  0.38335910463E+02 -0.19468708154E+02  0.35019677772E+02  0.13673043836E+03  0.12498064776E+03 0.  0.
         23    2    1    2    0    0 -0.38335910463E+02  0.19468708154E+02 -0.12761096200E+03  0.16293888568E+03  0.91737943162E+02 0.  0.
          5    1    3    3  502    0 -0.32943942355E+01 -0.22821560335E+02 -0.42483137402E+02  0.48565251086E+02  0.47000000000E+01 0.  1.
         -5    1    3    3    0  502  0.41630304698E+02  0.33528521820E+01  0.77502815174E+02  0.88165187274E+02  0.47000000000E+01 0.  1.
          5    1    4    4  503    0 -0.43570207743E+02 -0.18110227105E+01 -0.13286638837E+03  0.13991858334E+03  0.47000000000E+01 0. -1.
         -5    1    4    4    0  503  0.52342972797E+01  0.21279730864E+02  0.52554263639E+01  0.23020302342E+02  0.47000000000E+01 0.  1.
<mgrwt>
<rscale>  0 0.12367056E+03</rscale>
<asrwt>0</asrwt>
<pdfrwt beam="1">  1        1 0.30173893E-01 0.13216972E+03</pdfrwt>
<pdfrwt beam="2">  1       -1 0.15929080E-01 0.13216972E+03</pdfrwt>
<totfact> 0.42063991E+03</totfact>
</mgrwt>
</event>
<event>
 8    1  0.3629925E-004  0.1474702E+03  0.7546771E-02  0.1212914E+00
         -2   -1    0    0    0  501 -0.00000000000E+00  0.00000000000E+00  0.20446751340E+02  0.20446751340E+02  0.00000000000E+00 0.  1.
          2   -1    0    0  501    0  0.00000000000E+00 -0.00000000000E+00 -0.89715011697E+03  0.89715011697E+03  0.00000000000E+00 0. -1.
         25    2    1    2    0    0  0.73783687741E+02 -0.26046551942E+02 -0.41837383760E+03  0.44360356672E+03  0.12500000388E+03 0.  0.
         23    2    1    2    0    0 -0.73783687741E+02  0.26046551942E+02 -0.45832952803E+03  0.47399330159E+03  0.92093638473E+02 0.  0.
          5    1    3    3  502    0  0.84962148731E+02  0.38488782958E+01 -0.39418016573E+03  0.40327840711E+03  0.47000000000E+01 0. -1.
         -5    1    3    3    0  502 -0.11178460990E+02 -0.29895430238E+02 -0.24193671870E+02  0.40325159612E+02  0.47000000000E+01 0. -1.
          5    1    4    4  503    0 -0.48431318034E+02  0.58547060028E+02 -0.34525664705E+03  0.35354998676E+03  0.47000000000E+01 0. -1.
         -5    1    4    4    0  503 -0.25352369707E+02 -0.32500508086E+02 -0.11307288098E+03  0.12044331483E+03  0.47000000000E+01 0.  1.
<mgrwt>
<rscale>  0 0.14030916E+03</rscale>
<asrwt>0</asrwt>
<pdfrwt beam="1">  1        2 0.13802311E+00 0.14747019E+03</pdfrwt>
<pdfrwt beam="2">  1       -2 0.31456536E-02 0.14747019E+03</pdfrwt>
<totfact> 0.11611878E+04</totfact>
</mgrwt>
</event>
<event>
 8    1  0.3629925E-004  0.1293145E+03  0.7546771E-02  0.1242517E+00
         -2   -1    0    0    0  501 -0.00000000000E+00  0.00000000000E+00  0.20181348924E+03  0.20181348924E+03  0.00000000000E+00 0. -1.
          2   -1    0    0  501    0  0.00000000000E+00 -0.00000000000E+00 -0.63465003005E+02  0.63465003005E+02  0.00000000000E+00 0.  1.
         25    2    1    2    0    0 -0.88576241667E+01  0.31954194631E+02  0.80082925494E+02  0.15210362619E+03  0.12499084000E+03 0.  0.
         23    2    1    2    0    0  0.88576241667E+01 -0.31954194631E+02  0.58265560742E+02  0.11317486606E+03  0.91181942722E+02 0.  0.
          5    1    3    3  502    0 -0.33929646792E+02  0.55264158421E+01 -0.23696224094E+02  0.42016225911E+02  0.47000000000E+01 0.  1.
         -5    1    3    3    0  502  0.25072022626E+02  0.26427778789E+02  0.10377914959E+03  0.11008740028E+03  0.47000000000E+01 0.  1.
          5    1    4    4  503    0 -0.37098627452E+02 -0.16763500115E+02  0.48639217393E+02  0.63601781135E+02  0.47000000000E+01 0. -1.
         -5    1    4    4    0  503  0.45956251618E+02 -0.15190694516E+02  0.96263433486E+01  0.49573084925E+02  0.47000000000E+01 0.  1.
<mgrwt>
<rscale>  0 0.12035255E+03</rscale>
<asrwt>0</asrwt>
<pdfrwt beam="1">  1        2 0.97638467E-02 0.12931449E+03</pdfrwt>
<pdfrwt beam="2">  1       -2 0.31048229E-01 0.12931449E+03</pdfrwt>
<totfact> 0.59855154E+03</totfact>
</mgrwt>
</event>
<event>
 8    1  0.3629925E-004  0.1393563E+03  0.7546771E-02  0.1224785E+00
         -2   -1    0    0    0  501 -0.00000000000E+00  0.00000000000E+00  0.18402756862E+02  0.18402756862E+02  0.00000000000E+00 0.  1.
          2   -1    0    0  501    0  0.00000000000E+00 -0.00000000000E+00 -0.86121118034E+03  0.86121118034E+03  0.00000000000E+00 0. -1.
         25    2    1    2    0    0  0.51271286259E+02 -0.34136852712E+02 -0.43147496910E+03  0.45342125209E+03  0.12500445345E+03 0.  0.
         23    2    1    2    0    0 -0.51271286259E+02  0.34136852712E+02 -0.41133345437E+03  0.42619268510E+03  0.93010346960E+02 0.  0.
          5    1    3    3  502    0 -0.93938772399E+01  0.32261718042E+02 -0.23314045767E+03  0.23559632082E+03  0.47000000000E+01 0.  1.
         -5    1    3    3    0  502  0.60665163499E+02 -0.66398570753E+02 -0.19833451143E+03  0.21782493127E+03  0.47000000000E+01 0.  1.
          5    1    4    4  503    0  0.26693553636E+02  0.52863194531E+01 -0.12402384693E+03  0.12706099160E+03  0.47000000000E+01 0. -1.
         -5    1    4    4    0  503 -0.77964839895E+02  0.28850533259E+02 -0.28730960744E+03  0.29913169350E+03  0.47000000000E+01 0.  1.
<mgrwt>
<rscale>  0 0.13181636E+03</rscale>
<asrwt>0</asrwt>
<pdfrwt beam="1">  1        2 0.13249403E+00 0.13935632E+03</pdfrwt>
<pdfrwt beam="2">  1       -2 0.28311933E-02 0.13935632E+03</pdfrwt>
<totfact> 0.14245240E+04</totfact>
</mgrwt>
</event>
<event>
 8    1  0.3629925E-004  0.1307647E+03  0.7546771E-02  0.1238461E+00
          1   -1    0    0  501    0  0.00000000000E+00  0.00000000000E+00  0.12252281721E+03  0.12252281721E+03  0.00000000000E+00 0. -1.
         -1   -1    0    0    0  501 -0.00000000000E+00 -0.00000000000E+00 -0.11109074082E+03  0.11109074082E+03  0.00000000000E+00 0.  1.
         25    2    1    2    0    0  0.35934923551E+02 -0.13542811084E+02 -0.24750826827E+01  0.13078810947E+03  0.12499870832E+03 0.  0.
         23    2    1    2    0    0 -0.35934923551E+02  0.13542811084E+02  0.13907159072E+02  0.10282544856E+03  0.94365975516E+02 0.  0.
          5    1    4    4  502    0 -0.53042752180E+02 -0.19299572946E+02  0.27674408246E+02  0.63039431680E+02  0.47000000000E+01 0. -1.
         -5    1    3    3    0  503  0.63707408358E+02 -0.23553802374E+02 -0.42928306964E+02  0.80488166986E+02  0.47000000000E+01 0. -1.
          5    1    3    3  503    0 -0.27772484806E+02  0.10010991290E+02  0.40453224281E+02  0.50299942482E+02  0.47000000000E+01 0. -1.
         -5    1    4    4    0  502  0.17107828629E+02  0.32842384031E+02 -0.13767249174E+02  0.39786016878E+02  0.47000000000E+01 0.  1.
<mgrwt>
<rscale>  0 0.12285442E+03</rscale>
<asrwt>0</asrwt>
<pdfrwt beam="1">  1        1 0.18849664E-01 0.13076469E+03</pdfrwt>
<pdfrwt beam="2">  1       -1 0.17090883E-01 0.13076469E+03</pdfrwt>
<totfact> 0.67968130E+03</totfact>
</mgrwt>
</event>
<event>
 8    1  0.3629925E-004  0.2113608E+03  0.7546771E-02  0.1144203E+00
          1   -1    0    0  501    0  0.00000000000E+00  0.00000000000E+00  0.13234950477E+03  0.13234950477E+03  0.00000000000E+00 0. -1.
         -1   -1    0    0    0  501 -0.00000000000E+00 -0.00000000000E+00 -0.32544503785E+03  0.32544503785E+03  0.00000000000E+00 0.  1.
         25    2    1    2    0    0 -0.14387670319E+03  0.91365693702E+02 -0.49814900373E+02  0.21715181349E+03  0.12500076039E+03 0.  0.
         23    2    1    2    0    0  0.14387670319E+03 -0.91365693702E+02 -0.14328063270E+03  0.24064272913E+03  0.91276435448E+02 0.  0.
          5    1    4    4  502    0  0.63861152820E+02  0.91856115802E+01 -0.45150392820E+02  0.78887706719E+02  0.47000000000E+01 0. -1.
         -5    1    3    3    0  503  0.24253933429E+01  0.61214382210E+02 -0.21122777588E+02  0.64971877418E+02  0.47000000000E+01 0.  1.
          5    1    3    3  503    0 -0.14630209653E+03  0.30151311492E+02 -0.28692122785E+02  0.15217993608E+03  0.47000000000E+01 0.  1.
         -5    1    4    4    0  502  0.80015550368E+02 -0.10055130528E+03 -0.98130239880E+02  0.16175502241E+03  0.47000000000E+01 0.  1.
<mgrwt>
<rscale>  0 0.20670341E+03</rscale>
<asrwt>0</asrwt>
<pdfrwt beam="1">  1        1 0.20361463E-01 0.21136080E+03</pdfrwt>
<pdfrwt beam="2">  1       -1 0.50068467E-01 0.21136080E+03</pdfrwt>
<totfact> 0.10189966E+03</totfact>
</mgrwt>
</event>
<event>
 8    1  0.3629925E-004  0.3158260E+03  0.7546771E-02  0.1078914E+00
         -1   -1    0    0    0  501 -0.00000000000E+00  0.00000000000E+00  0.13629400426E+04  0.13629400426E+04  0.00000000000E+00 0.  1.
          1   -1    0    0  501    0  0.00000000000E+00 -0.00000000000E+00 -0.72307164245E+02  0.72307164245E+02  0.00000000000E+00 0. -1.
         25    2    1    2    0    0  0.90884083378E+02 -0.27543235157E+03  0.76598853964E+03  0.82854361692E+03  0.12499274135E+03 0.  0.
         23    2    1    2    0    0 -0.90884083378E+02  0.27543235157E+03  0.52464433868E+03  0.60670358988E+03  0.93352380606E+02 0.  0.
          5    1    3    3  502    0 -0.29252180903E+01 -0.52728188883E+02  0.28888495114E+03  0.29370976115E+03  0.47000000000E+01 0. -1.
         -5    1    3    3    0  502  0.93809301468E+02 -0.22270416268E+03  0.47710358850E+03  0.53483385577E+03  0.47000000000E+01 0. -1.
          5    1    4    4  503    0 -0.70328562674E+02  0.11366067288E+03  0.30558677937E+03  0.33357191880E+03  0.47000000000E+01 0. -1.
         -5    1    4    4    0  503 -0.20555520704E+02  0.16177167868E+03  0.21905755931E+03  0.27313167108E+03  0.47000000000E+01 0.  1.
<mgrwt>
<rscale>  0 0.31300510E+03</rscale>
<asrwt>0</asrwt>
<pdfrwt beam="1">  1        1 0.11124180E-01 0.31582603E+03</pdfrwt>
<pdfrwt beam="2">  1       -1 0.20968306E+00 0.31582603E+03</pdfrwt>
<totfact> 0.79690525E+01</totfact>
</mgrwt>
</event>
<event>
 8    1  0.3629925E-004  0.1305424E+03  0.7546771E-02  0.1236903E+00
         -3   -1    0    0    0  501 -0.00000000000E+00  0.00000000000E+00  0.35593311031E+03  0.35593311031E+03  0.00000000000E+00 0.  1.
          3   -1    0    0  501    0  0.00000000000E+00 -0.00000000000E+00 -0.48987624897E+02  0.48987624897E+02  0.00000000000E+00 0. -1.
         25    2    1    2    0    0  0.30705919756E+02  0.21755844172E+02  0.25646796757E+03  0.28777968785E+03  0.12500064036E+03 0.  0.
         23    2    1    2    0    0 -0.30705919756E+02 -0.21755844172E+02  0.50477517845E+02  0.11714104735E+03  0.98781956363E+02 0.  0.
          5    1    3    3  502    0  0.57285619809E+02 -0.34640776843E+02  0.14965340278E+03  0.16401175757E+03  0.47000000000E+01 0. -1.
         -5    1    3    3    0  502 -0.26579700052E+02  0.56396621015E+02  0.10681456479E+03  0.12376793029E+03  0.47000000000E+01 0. -1.
          5    1    4    4  503    0  0.22149945150E+02 -0.23761298466E+02 -0.12178794273E+02  0.35009033190E+02  0.47000000000E+01 0. -1.
         -5    1    4    4    0  503 -0.52855864906E+02  0.20054542939E+01  0.62656312118E+02  0.82132014161E+02  0.47000000000E+01 0.  1.
<mgrwt>
<rscale>  0 0.12383406E+03</rscale>
<asrwt>0</asrwt>
<pdfrwt beam="1">  1        3 0.75365579E-02 0.13054245E+03</pdfrwt>
<pdfrwt beam="2">  1       -3 0.54758939E-01 0.13054245E+03</pdfrwt>
<totfact> 0.89664164E+02</totfact>
</mgrwt>
</event>
<event>
 8    1  0.3629925E-004  0.2076719E+03  0.7546771E-02  0.1147187E+00
         -4   -1    0    0    0  501 -0.00000000000E+00  0.00000000000E+00  0.52404783041E+02  0.52404783041E+02  0.00000000000E+00 0.  1.
          4   -1    0    0  501    0  0.00000000000E+00 -0.00000000000E+00 -0.75383018755E+03  0.75383018755E+03  0.00000000000E+00 0. -1.
         25    2    1    2    0    0 -0.12234590031E+03  0.11195367648E+03 -0.36122700100E+03  0.41666840610E+03  0.12500187754E+03 0.  0.
         23    2    1    2    0    0  0.12234590031E+03 -0.11195367648E+03 -0.34019840350E+03  0.38956656449E+03  0.92330977585E+02 0.  0.
          5    1    4    4  502    0  0.60935171161E+02 -0.43998619832E+02 -0.24935471590E+03  0.26047809500E+03  0.47000000000E+01 0. -1.
         -5    1    3    3    0  503 -0.16090714883E+02  0.67379499699E+02 -0.23789114964E+03  0.24781686214E+03  0.47000000000E+01 0.  1.
          5    1    3    3  503    0 -0.10625518543E+03  0.44574176778E+02 -0.12333585137E+03  0.16885154396E+03  0.47000000000E+01 0.  1.
         -5    1    4    4    0  502  0.61410729148E+02 -0.67955056646E+02 -0.90843687602E+02  0.12908846949E+03  0.47000000000E+01 0.  1.
<mgrwt>
<rscale>  0 0.20305423E+03</rscale>
<asrwt>0</asrwt>
<pdfrwt beam="1">  1        4 0.11597388E+00 0.20767189E+03</pdfrwt>
<pdfrwt beam="2">  1       -4 0.80622743E-02 0.20767189E+03</pdfrwt>
<totfact> 0.11727263E+02</totfact>
</mgrwt>
</event>
<event>
 8    1  0.3629925E-004  0.1578107E+03  0.7546771E-02  0.1198714E+00
         -2   -1    0    0    0  501 -0.00000000000E+00  0.00000000000E+00  0.57527437111E+02  0.57527437111E+02  0.00000000000E+00 0.  1.
          2   -1    0    0  501    0  0.00000000000E+00 -0.00000000000E+00 -0.38344440823E+03  0.38344440823E+03  0.00000000000E+00 0. -1.
         25    2    1    2    0    0 -0.59515390262E+02  0.75757543338E+02 -0.21758948759E+03  0.26879246879E+03  0.12499167619E+03 0.  0.
         23    2    1    2    0    0  0.59515390262E+02 -0.75757543338E+02 -0.10832748353E+03  0.17217937655E+03  0.92895677891E+02 0.  0.
          5    1    4    4  502    0  0.21839656308E+02 -0.42815141279E+01 -0.84941035697E+02  0.87933904134E+02  0.47000000000E+01 0. -1.
         -5    1    4    4    0  502  0.37675733954E+02 -0.71476029210E+02 -0.23386447834E+02  0.84245472418E+02  0.47000000000E+01 0.  1.
          5    1    3    3  503    0 -0.23379446063E+02  0.55726527045E+02 -0.21895185066E+03  0.22718725145E+03  0.47000000000E+01 0. -1.
         -5    1    3    3    0  503 -0.36135944199E+02  0.20031016293E+02  0.13623630676E+01  0.41605217341E+02  0.47000000000E+01 0. -1.
<mgrwt>
<rscale>  0 0.15144046E+03</rscale>
<asrwt>0</asrwt>
<pdfrwt beam="1">  1        2 0.58991451E-01 0.15781067E+03</pdfrwt>
<pdfrwt beam="2">  1       -2 0.88503745E-02 0.15781067E+03</pdfrwt>
<totfact> 0.65065083E+03</totfact>
</mgrwt>
</event>
<event>
 8    1  0.3629925E-004  0.2289938E+03  0.7546771E-02  0.1130068E+00
          2   -1    0    0  501    0  0.00000000000E+00  0.00000000000E+00  0.11325081933E+03  0.11325081933E+03  0.00000000000E+00 0. -1.
         -2   -1    0    0    0  501 -0.00000000000E+00 -0.00000000000E+00 -0.45328367675E+03  0.45328367675E+03  0.00000000000E+00 0.  1.
         25    2    1    2    0    0 -0.10644863439E+03  0.15962935465E+03 -0.11636911301E+03  0.25686555402E+03  0.12500119901E+03 0.  0.
         23    2    1    2    0    0  0.10644863439E+03 -0.15962935465E+03 -0.22366374441E+03  0.30966894206E+03  0.95165857758E+02 0.  0.
          5    1    4    4  502    0 -0.27616442255E+01 -0.74512697750E+02 -0.92313320154E+02  0.11875861183E+03  0.47000000000E+01 0. -1.
         -5    1    4    4    0  502  0.10921027862E+03 -0.85116656898E+02 -0.13135042425E+03  0.19091033023E+03  0.47000000000E+01 0.  1.
          5    1    3    3  503    0 -0.28170762576E+02  0.62517934239E+01  0.21446299192E+02  0.36258937300E+02  0.47000000000E+01 0.  1.
         -5    1    3    3    0  503 -0.78277871818E+02  0.15337756122E+03 -0.13781541220E+03  0.22060661672E+03  0.47000000000E+01 0.  1.
<mgrwt>
<rscale>  0 0.22519467E+03</rscale>
<asrwt>0</asrwt>
<pdfrwt beam="1">  1        2 0.17423203E-01 0.22899376E+03</pdfrwt>
<pdfrwt beam="2">  1       -2 0.69735949E-01 0.22899376E+03</pdfrwt>
<totfact> 0.62652791E+02</totfact>
</mgrwt>
</event>
<event>
 8    1  0.3629925E-004  0.2016304E+03  0.7546771E-02  0.1152375E+00
         -1   -1    0    0    0  501 -0.00000000000E+00  0.00000000000E+00  0.94830184696E+03  0.94830184696E+03  0.00000000000E+00 0.  1.
          1   -1    0    0  501    0  0.00000000000E+00 -0.00000000000E+00 -0.40470616202E+02  0.40470616202E+02  0.00000000000E+00 0. -1.
         25    2    1    2    0    0  0.14980820578E+03  0.50858198697E+02  0.56619912451E+03  0.60102932386E+03  0.12500297857E+03 0.  0.
         23    2    1    2    0    0 -0.14980820578E+03 -0.50858198697E+02  0.34163210624E+03  0.38774313930E+03  0.92753388957E+02 0.  0.
          5    1    3    3  502    0  0.13038372199E+03 -0.39754128079E+01  0.27986287798E+03  0.30880582788E+03  0.47000000000E+01 0.  1.
         -5    1    4    4    0  503 -0.12813130841E+03 -0.12773087928E+02  0.30251904301E+03  0.32881703933E+03  0.47000000000E+01 0.  1.
          5    1    4    4  503    0 -0.21676897367E+02 -0.38085110770E+02  0.39113063231E+02  0.58926099966E+02  0.47000000000E+01 0. -1.
         -5    1    3    3    0  502  0.19424483791E+02  0.54833611505E+02  0.28633624654E+03  0.29222349598E+03  0.47000000000E+01 0.  1.
<mgrwt>
<rscale>  0 0.19690712E+03</rscale>
<asrwt>0</asrwt>
<pdfrwt beam="1">  1        1 0.62262493E-02 0.20163035E+03</pdfrwt>
<pdfrwt beam="2">  1       -1 0.14589258E+00 0.20163035E+03</pdfrwt>
<totfact> 0.49853026E+02</totfact>
</mgrwt>
</event>
<event>
 8    1  0.3629925E-004  0.1422719E+03  0.7546771E-02  0.1221793E+00
         -3   -1    0    0    0  501 -0.00000000000E+00  0.00000000000E+00  0.73865450591E+02  0.73865450591E+02  0.00000000000E+00 0.  1.
          3   -1    0    0  501    0  0.00000000000E+00 -0.00000000000E+00 -0.31807670307E+03  0.31807670307E+03  0.00000000000E+00 0. -1.
         25    2    1    2    0    0  0.40266239882E+02  0.54719390182E+02 -0.24152428498E+03  0.28031282573E+03  0.12500287315E+03 0.  0.
         23    2    1    2    0    0 -0.40266239882E+02 -0.54719390182E+02 -0.26869674933E+01  0.11162932793E+03  0.88534204258E+02 0.  0.
          5    1    3    3  502    0  0.61747561069E+01 -0.28657719951E+02 -0.14577694137E+03  0.14876961774E+03  0.47000000000E+01 0. -1.
         -5    1    3    3    0  502  0.34091483775E+02  0.83377110133E+02 -0.95747343612E+02  0.13154320799E+03  0.47000000000E+01 0. -1.
          5    1    4    4  503    0 -0.30113051150E+02 -0.14396679431E+02 -0.42245562348E+02  0.54044775569E+02  0.47000000000E+01 0. -1.
         -5    1    4    4    0  503 -0.10153188732E+02 -0.40322710751E+02  0.39558594855E+02  0.57584552361E+02  0.47000000000E+01 0.  1.
<mgrwt>
<rscale>  0 0.13389135E+03</rscale>
<asrwt>0</asrwt>
<pdfrwt beam="1">  1        3 0.48934877E-01 0.14227192E+03</pdfrwt>
<pdfrwt beam="2">  1       -3 0.11363916E-01 0.14227192E+03</pdfrwt>
<totfact> 0.57982192E+02</totfact>
</mgrwt>
</event>
<event>
 8    1  0.3629925E-004  0.1276799E+03  0.7546771E-02  0.1246996E+00
         -1   -1    0    0    0  501 -0.00000000000E+00  0.00000000000E+00  0.17376378935E+02  0.17376378935E+02  0.00000000000E+00 0.  1.
          1   -1    0    0  501    0  0.00000000000E+00 -0.00000000000E+00 -0.74102213549E+03  0.74102213549E+03  0.00000000000E+00 0. -1.
         25    2    1    2    0    0  0.20693918692E+02  0.15786646294E+02 -0.32336921184E+03  0.34766335113E+03  0.12499880831E+03 0.  0.
         23    2    1    2    0    0 -0.20693918692E+02 -0.15786646294E+02 -0.40027654472E+03  0.41073516330E+03  0.88343679170E+02 0.  0.
          5    1    4    4  502    0 -0.10499138580E+02 -0.43674208793E+02 -0.34381975220E+03  0.34677338483E+03  0.47000000000E+01 0. -1.
         -5    1    4    4    0  502 -0.10194780113E+02  0.27887562499E+02 -0.56456792515E+02  0.63961778468E+02  0.47000000000E+01 0.  1.
          5    1    3    3  503    0 -0.51671180632E+01 -0.43676182176E+02 -0.22794637761E+03  0.23219808152E+03  0.47000000000E+01 0.  1.
         -5    1    3    3    0  503  0.25861036756E+02  0.59462828470E+02 -0.95422834237E+02  0.11546526961E+03  0.47000000000E+01 0.  1.
<mgrwt>
<rscale>  0 0.11766698E+03</rscale>
<asrwt>0</asrwt>
<pdfrwt beam="1">  1        1 0.11400338E+00 0.12767991E+03</pdfrwt>
<pdfrwt beam="2">  1       -1 0.26732897E-02 0.12767991E+03</pdfrwt>
<totfact> 0.11045603E+04</totfact>
</mgrwt>
</event>
<event>
 8    1  0.3629925E-004  0.1317762E+03  0.7546771E-02  0.1238094E+00
         -2   -1    0    0    0  501 -0.00000000000E+00  0.00000000000E+00  0.44650651535E+03  0.44650651535E+03  0.00000000000E+00 0.  1.
          2   -1    0    0  501    0  0.00000000000E+00 -0.00000000000E+00 -0.62084571588E+02  0.62084571588E+02  0.00000000000E+00 0. -1.
         25    2    1    2    0    0  0.38891529447E+02  0.15030359474E+02  0.23326853414E+02  0.13382494039E+03  0.12500603910E+03 0.  0.
         23    2    1    2    0    0 -0.38891529447E+02 -0.15030359474E+02  0.36109509035E+03  0.37476614655E+03  0.91222461904E+02 0.  0.
          5    1    3    3  502    0  0.77994675855E+02  0.36126686414E+02  0.74358541183E+01  0.86404217833E+02  0.47000000000E+01 0. -1.
         -5    1    3    3    0  502 -0.39103146407E+02 -0.21096326939E+02  0.15890999296E+02  0.47420722558E+02  0.47000000000E+01 0. -1.
          5    1    4    4  503    0 -0.68324305605E+02 -0.15216186636E+02  0.26699754297E+03  0.27606071981E+03  0.47000000000E+01 0.  1.
         -5    1    4    4    0  503  0.29432776158E+02  0.18582716168E+00  0.94097547386E+02  0.98705426741E+02  0.47000000000E+01 0. -1.
<mgrwt>
<rscale>  0 0.12308427E+03</rscale>
<asrwt>0</asrwt>
<pdfrwt beam="1">  1        2 0.95514728E-02 0.13177622E+03</pdfrwt>
<pdfrwt beam="2">  1       -2 0.68693308E-01 0.13177622E+03</pdfrwt>
<totfact> 0.13089958E+03</totfact>
</mgrwt>
</event>
<event>
 8    1  0.3629925E-004  0.1483728E+03  0.7546771E-02  0.1211285E+00
         -2   -1    0    0    0  501 -0.00000000000E+00  0.00000000000E+00  0.19189962237E+03  0.19189962237E+03  0.00000000000E+00 0.  1.
          2   -1    0    0  501    0  0.00000000000E+00 -0.00000000000E+00 -0.99516968711E+02  0.99516968711E+02  0.00000000000E+00 0. -1.
         25    2    1    2    0    0  0.68995992433E+02 -0.40363356658E+02  0.78324885694E+02  0.16777743265E+03  0.12499932662E+03 0.  0.
         23    2    1    2    0    0 -0.68995992433E+02  0.40363356658E+02  0.14057767963E+02  0.12363915843E+03  0.93270430062E+02 0.  0.
          5    1    4    4  502    0 -0.47973479977E+02 -0.24362964625E+02  0.12333885063E+02  0.55400573527E+02  0.47000000000E+01 0. -1.
         -5    1    3    3    0  503  0.81254402782E+02  0.21397307802E+02  0.34684951765E+02  0.91023396067E+02  0.47000000000E+01 0.  1.
          5    1    3    3  503    0 -0.12258410349E+02 -0.61760664460E+02  0.43639933930E+02  0.76754036585E+02  0.47000000000E+01 0.  1.
         -5    1    4    4    0  502 -0.21022512457E+02  0.64726321283E+02  0.17238828998E+01  0.68238584900E+02  0.47000000000E+01 0.  1.
<mgrwt>
<rscale>  0 0.14152993E+03</rscale>
<asrwt>0</asrwt>
<pdfrwt beam="1">  1        2 0.15310303E-01 0.14837277E+03</pdfrwt>
<pdfrwt beam="2">  1       -2 0.29523019E-01 0.14837277E+03</pdfrwt>
<totfact> 0.38554851E+03</totfact>
</mgrwt>
</event>
<event>
 8    1  0.3629925E-004  0.1257765E+03  0.7546771E-02  0.1250227E+00
          1   -1    0    0  501    0  0.00000000000E+00  0.00000000000E+00  0.61840997644E+02  0.61840997644E+02  0.00000000000E+00 0. -1.
         -1   -1    0    0    0  501 -0.00000000000E+00 -0.00000000000E+00 -0.23751983957E+03  0.23751983957E+03  0.00000000000E+00 0.  1.
         25    2    1    2    0    0 -0.12723874700E+02 -0.56571992728E+01 -0.16638568677E+03  0.20857594543E+03  0.12500330940E+03 0.  0.
         23    2    1    2    0    0  0.12723874700E+02  0.56571992728E+01 -0.92931551623E+01  0.90784891787E+02  0.89227983015E+02 0.  0.
          5    1    4    4  502    0  0.31035641954E+02  0.38365673287E+02  0.61915614744E+01  0.49955594199E+02  0.47000000000E+01 0. -1.
         -5    1    3    3    0  503 -0.68783972018E+02 -0.76750486490E+01 -0.87433182775E+02  0.11161000237E+03  0.47000000000E+01 0.  1.
          5    1    3    3  503    0  0.56060097318E+02  0.20178493762E+01 -0.78952503992E+02  0.96965943063E+02  0.47000000000E+01 0.  1.
         -5    1    4    4    0  502 -0.18311767254E+02 -0.32708474014E+02 -0.15484716637E+02  0.40829297589E+02  0.47000000000E+01 0.  1.
<mgrwt>
<rscale>  0 0.11577937E+03</rscale>
<asrwt>0</asrwt>
<pdfrwt beam="1">  1        1 0.95139997E-02 0.12577650E+03</pdfrwt>
<pdfrwt beam="2">  1       -1 0.36541513E-01 0.12577650E+03</pdfrwt>
<totfact> 0.47284661E+03</totfact>
</mgrwt>
</event>
<event>
 8    1  0.3629925E-004  0.1738439E+03  0.7546771E-02  0.1180076E+00
         -1   -1    0    0    0  501 -0.00000000000E+00  0.00000000000E+00  0.19332472432E+03  0.19332472432E+03  0.00000000000E+00 0.  1.
          1   -1    0    0  501    0  0.00000000000E+00 -0.00000000000E+00 -0.15646665411E+03  0.15646665411E+03  0.00000000000E+00 0. -1.
         25    2    1    2    0    0  0.56369017332E+02  0.10685627567E+03 -0.42606890472E+02  0.17898895240E+03  0.12500387275E+03 0.  0.
         23    2    1    2    0    0 -0.56369017332E+02 -0.10685627567E+03  0.79464960686E+02  0.17080242603E+03  0.90901369600E+02 0.  0.
          5    1    3    3  502    0 -0.33375716158E+02  0.67891381589E+02 -0.15656360339E+02  0.77397608116E+02  0.47000000000E+01 0. -1.
         -5    1    4    4    0  503 -0.58668047669E+02 -0.81900824722E+02  0.96940864768E+02  0.13989033623E+03  0.47000000000E+01 0.  1.
          5    1    4    4  503    0  0.22990303369E+01 -0.24955450945E+02 -0.17475904082E+02  0.30912089800E+02  0.47000000000E+01 0. -1.
         -5    1    3    3    0  502  0.89744733490E+02  0.38964894079E+02 -0.26950530133E+02  0.10159134429E+03  0.47000000000E+01 0. -1.
<mgrwt>
<rscale>  0 0.16788088E+03</rscale>
<asrwt>0</asrwt>
<pdfrwt beam="1">  1        1 0.24071793E-01 0.17384389E+03</pdfrwt>
<pdfrwt beam="2">  1       -1 0.29742265E-01 0.17384389E+03</pdfrwt>
<totfact> 0.20487084E+03</totfact>
</mgrwt>
</event>
<event>
 8    1  0.3629925E-004  0.1369937E+03  0.7546771E-02  0.1228641E+00
          1   -1    0    0  501    0  0.00000000000E+00  0.00000000000E+00  0.25340242798E+03  0.25340242798E+03  0.00000000000E+00 0. -1.
         -1   -1    0    0    0  501 -0.00000000000E+00 -0.00000000000E+00 -0.61809179901E+02  0.61809179901E+02  0.00000000000E+00 0.  1.
         25    2    1    2    0    0 -0.54149340993E+02 -0.14611745401E+02  0.75657208739E+02  0.15649695613E+03  0.12498651851E+03 0.  0.
         23    2    1    2    0    0  0.54149340993E+02  0.14611745401E+02  0.11593603934E+03  0.15871465176E+03  0.92755168212E+02 0.  0.
          5    1    4    4  502    0  0.75877296340E+02 -0.76040913063E+01  0.89245919235E+02  0.11748238338E+03  0.47000000000E+01 0. -1.
         -5    1    4    4    0  502 -0.21727955347E+02  0.22215836707E+02  0.26690120108E+02  0.41232268377E+02  0.47000000000E+01 0.  1.
          5    1    3    3  503    0 -0.18483290129E+02 -0.80256452121E+01  0.10660082191E+03  0.10859036894E+03  0.47000000000E+01 0.  1.
         -5    1    3    3    0  503 -0.35666050864E+02 -0.65861001885E+01 -0.30943613170E+02  0.47906587187E+02  0.47000000000E+01 0.  1.
<mgrwt>
<rscale>  0 0.12920415E+03</rscale>
<asrwt>0</asrwt>
<pdfrwt beam="1">  1        1 0.38984988E-01 0.13699374E+03</pdfrwt>
<pdfrwt beam="2">  1       -1 0.95091048E-02 0.13699374E+03</pdfrwt>
<totfact> 0.68135718E+03</totfact>
</mgrwt>
</event>
<event>
 8    1  0.3629925E-004  0.1327341E+03  0.7546771E-02  0.1234882E+00
          1   -1    0    0  501    0  0.00000000000E+00  0.00000000000E+00  0.99271067420E+03  0.99271067420E+03  0.00000000000E+00 0. -1.
         -1   -1    0    0    0  501 -0.00000000000E+00 -0.00000000000E+00 -0.14209526369E+02  0.14209526369E+02  0.00000000000E+00 0.  1.
         25    2    1    2    0    0 -0.27733125863E+02  0.35003998056E+02  0.54445685419E+03  0.56040307121E+03  0.12499571990E+03 0.  0.
         23    2    1    2    0    0  0.27733125863E+02 -0.35003998056E+02  0.43404429364E+03  0.44651712936E+03  0.94808711733E+02 0.  0.
          5    1    4    4  502    0  0.58339485044E+02 -0.23880863330E+02  0.18940247668E+03  0.19967268046E+03  0.47000000000E+01 0.  1.
         -5    1    3    3    0  503 -0.44527568153E+02 -0.18245237274E+02  0.87041674264E+02  0.99568750457E+02  0.47000000000E+01 0.  1.
          5    1    3    3  503    0  0.16794442290E+02  0.53249235330E+02  0.45741517993E+03  0.46083432075E+03  0.47000000000E+01 0.  1.
         -5    1    4    4    0  502 -0.30606359182E+02 -0.11123134726E+02  0.24464181696E+03  0.24684444890E+03  0.47000000000E+01 0. -1.
<mgrwt>
<rscale>  0 0.12512020E+03</rscale>
<asrwt>0</asrwt>
<pdfrwt beam="1">  1        1 0.15272466E+00 0.13273408E+03</pdfrwt>
<pdfrwt beam="2">  1       -1 0.21860818E-02 0.13273408E+03</pdfrwt>
<totfact> 0.93956337E+03</totfact>
</mgrwt>
</event>
<event>
 8    1  0.3629925E-004  0.1291014E+03  0.7546771E-02  0.1243005E+00
         -1   -1    0    0    0  501 -0.00000000000E+00  0.00000000000E+00  0.57286190880E+02  0.57286190880E+02  0.00000000000E+00 0.  1.
          1   -1    0    0  501    0  0.00000000000E+00 -0.00000000000E+00 -0.24185978790E+03  0.24185978790E+03  0.00000000000E+00 0. -1.
         25    2    1    2    0    0  0.32192723104E+02  0.22700876937E+01 -0.14674637040E+03  0.19545247059E+03  0.12500258524E+03 0.  0.
         23    2    1    2    0    0 -0.32192723104E+02 -0.22700876937E+01 -0.37827226621E+02  0.10369350819E+03  0.90994064902E+02 0.  0.
          5    1    4    4  502    0 -0.51779278465E+02  0.28169187465E+02 -0.30226172108E+02  0.66410151943E+02  0.47000000000E+01 0. -1.
         -5    1    4    4    0  502  0.19586555361E+02 -0.30439275159E+02 -0.76010545134E+01  0.37283356244E+02  0.47000000000E+01 0.  1.
          5    1    3    3  503    0  0.52086397917E+02 -0.46579356409E+02 -0.11207687183E+03  0.13215878514E+03  0.47000000000E+01 0.  1.
         -5    1    3    3    0  503 -0.19893674813E+02  0.48849444102E+02 -0.34669498568E+02  0.63293685448E+02  0.47000000000E+01 0.  1.
<mgrwt>
<rscale>  0 0.12005593E+03</rscale>
<asrwt>0</asrwt>
<pdfrwt beam="1">  1        1 0.37209198E-01 0.12910140E+03</pdfrwt>
<pdfrwt beam="2">  1       -1 0.88132602E-02 0.12910140E+03</pdfrwt>
<totfact> 0.80670957E+03</totfact>
</mgrwt>
</event>
<event>
 8    1  0.3629925E-004  0.2519347E+03  0.7546771E-02  0.1114511E+00
         -2   -1    0    0    0  501 -0.00000000000E+00  0.00000000000E+00  0.26093295806E+03  0.26093295806E+03  0.00000000000E+00 0.  1.
          2   -1    0    0  501    0  0.00000000000E+00 -0.00000000000E+00 -0.23702036577E+03  0.23702036577E+03  0.00000000000E+00 0. -1.
         25    2    1    2    0    0 -0.17173594643E+03  0.13547546451E+03 -0.33492264898E+02  0.25415122112E+03  0.12499709840E+03 0.  0.
         23    2    1    2    0    0  0.17173594643E+03 -0.13547546451E+03  0.57404857190E+02  0.24380210271E+03  0.91089576104E+02 0.  0.
          5    1    3    3  502    0 -0.79408557414E+02  0.76236658277E+02 -0.78709271927E+02  0.13540674482E+03  0.47000000000E+01 0.  1.
         -5    1    3    3    0  502 -0.92327389021E+02  0.59238806232E+02  0.45217007030E+02  0.11874447630E+03  0.47000000000E+01 0.  1.
          5    1    4    4  503    0  0.94701142023E+02 -0.19574825076E+02  0.13229107770E+02  0.97716832581E+02  0.47000000000E+01 0. -1.
         -5    1    4    4    0  503  0.77034804412E+02 -0.11590063943E+03  0.44175749420E+02  0.14608527013E+03  0.47000000000E+01 0.  1.
<mgrwt>
<rscale>  0 0.24810133E+03</rscale>
<asrwt>0</asrwt>
<pdfrwt beam="1">  1        2 0.36464672E-01 0.25193474E+03</pdfrwt>
<pdfrwt beam="2">  1       -2 0.40143532E-01 0.25193474E+03</pdfrwt>
<totfact> 0.83742365E+02</totfact>
</mgrwt>
</event>
<event>
 8    1  0.3629925E-004  0.1697198E+03  0.7546771E-02  0.1184139E+00
         -1   -1    0    0    0  501 -0.00000000000E+00  0.00000000000E+00  0.20121409132E+03  0.20121409132E+03  0.00000000000E+00 0.  1.
          1   -1    0    0  501    0  0.00000000000E+00 -0.00000000000E+00 -0.23931880703E+03  0.23931880703E+03  0.00000000000E+00 0. -1.
         25    2    1    2    0    0  0.33887883581E+02 -0.10968772797E+03 -0.17131603858E+03  0.24115140662E+03  0.12500011808E+03 0.  0.
         23    2    1    2    0    0 -0.33887883581E+02  0.10968772797E+03  0.13321132288E+03  0.19938149173E+03  0.93957098603E+02 0.  0.
          5    1    3    3  502    0  0.55838495544E+02 -0.55533346669E+02 -0.23784564230E+02  0.82399548983E+02  0.47000000000E+01 0. -1.
         -5    1    3    3    0  502 -0.21950611963E+02 -0.54154381305E+02 -0.14753147435E+03  0.15875185764E+03  0.47000000000E+01 0. -1.
          5    1    4    4  503    0  0.30482862357E+01  0.33051739223E+02 -0.79931515945E+01  0.34462878392E+02  0.47000000000E+01 0. -1.
         -5    1    4    4    0  503 -0.36936169816E+02  0.76635988751E+02  0.14120447447E+03  0.16491861333E+03  0.47000000000E+01 0.  1.
<mgrwt>
<rscale>  0 0.16410481E+03</rscale>
<asrwt>0</asrwt>
<pdfrwt beam="1">  1        1 0.36818278E-01 0.16971982E+03</pdfrwt>
<pdfrwt beam="2">  1       -1 0.30956014E-01 0.16971982E+03</pdfrwt>
<totfact> 0.11229670E+03</totfact>
</mgrwt>
</event>
<event>
 8    1  0.3629925E-004  0.1258593E+03  0.7546771E-02  0.1248498E+00
         -1   -1    0    0    0  501 -0.00000000000E+00  0.00000000000E+00  0.14699902677E+02  0.14699902677E+02  0.00000000000E+00 0.  1.
          1   -1    0    0  501    0  0.00000000000E+00 -0.00000000000E+00 -0.81886347406E+03  0.81886347406E+03  0.00000000000E+00 0. -1.
         25    2    1    2    0    0  0.14438031439E+02 -0.26293316840E+01 -0.44125383837E+03  0.45885238037E+03  0.12500074782E+03 0.  0.
         23    2    1    2    0    0 -0.14438031439E+02  0.26293316840E+01 -0.36290973301E+03  0.37471099637E+03  0.92138408642E+02 0.  0.
          5    1    3    3  502    0 -0.41258872104E+02  0.36045337479E+02 -0.14967820852E+03  0.15945913893E+03  0.47000000000E+01 0.  1.
         -5    1    3    3    0  502  0.55696903543E+02 -0.38674669163E+02 -0.29157562985E+03  0.29939324144E+03  0.47000000000E+01 0.  1.
          5    1    4    4  503    0 -0.48330682833E+02 -0.18817282451E+02 -0.22888014588E+03  0.23472996442E+03  0.47000000000E+01 0. -1.
         -5    1    4    4    0  503  0.33892651394E+02  0.21446614135E+02 -0.13402958714E+03  0.13998103195E+03  0.47000000000E+01 0.  1.
<mgrwt>
<rscale>  0 0.11678421E+03</rscale>
<asrwt>0</asrwt>
<pdfrwt beam="1">  1        1 0.12597901E+00 0.12585927E+03</pdfrwt>
<pdfrwt beam="2">  1       -1 0.22615232E-02 0.12585927E+03</pdfrwt>
<totfact> 0.12116256E+04</totfact>
</mgrwt>
</event>
<event>
 8    1  0.3629925E-004  0.1251276E+03  0.7546771E-02  0.1252310E+00
         -3   -1    0    0    0  501 -0.00000000000E+00  0.00000000000E+00  0.45280255511E+03  0.45280255511E+03  0.00000000000E+00 0.  1.
          3   -1    0    0  501    0  0.00000000000E+00 -0.00000000000E+00 -0.27011647528E+02  0.27011647528E+02  0.00000000000E+00 0. -1.
         25    2    1    2    0    0 -0.24023724093E+01 -0.50458051564E+01  0.31063978928E+03  0.33489400372E+03  0.12500273397E+03 0.  0.
         23    2    1    2    0    0  0.24023724093E+01  0.50458051564E+01  0.11515111831E+03  0.14492019892E+03  0.87811459766E+02 0.  0.
          5    1    3    3  502    0 -0.36865107728E+02  0.24202839059E+02  0.37733856155E+02  0.58230125250E+02  0.47000000000E+01 0.  1.
         -5    1    4    4    0  503 -0.18804703950E+02 -0.35622836984E+02  0.66515683840E+02  0.77903976806E+02  0.47000000000E+01 0.  1.
          5    1    4    4  503    0  0.21207076359E+02  0.40668642141E+02  0.48635434466E+02  0.67016222118E+02  0.47000000000E+01 0. -1.
         -5    1    3    3    0  502  0.34462735319E+02 -0.29248644215E+02  0.27290593312E+03  0.27666387847E+03  0.47000000000E+01 0.  1.
<mgrwt>
<rscale>  0 0.11458349E+03</rscale>
<asrwt>0</asrwt>
<pdfrwt beam="1">  1        3 0.41556384E-02 0.12512760E+03</pdfrwt>
<pdfrwt beam="2">  1       -3 0.69661926E-01 0.12512760E+03</pdfrwt>
<totfact> 0.13948427E+03</totfact>
</mgrwt>
</event>
<event>
 8    1  0.3629925E-004  0.1435627E+03  0.7546771E-02  0.1217238E+00
          2   -1    0    0  501    0  0.00000000000E+00  0.00000000000E+00  0.18898166754E+03  0.18898166754E+03  0.00000000000E+00 0. -1.
         -2   -1    0    0    0  501 -0.00000000000E+00 -0.00000000000E+00 -0.92084427993E+02  0.92084427993E+02  0.00000000000E+00 0.  1.
         25    2    1    2    0    0  0.70605591282E+02 -0.65076333965E+00  0.63374987376E+02  0.15692881107E+03  0.12499875881E+03 0.  0.
         23    2    1    2    0    0 -0.70605591282E+02  0.65076333965E+00  0.33522252168E+02  0.12413728446E+03  0.96440401233E+02 0.  0.
          5    1    3    3  502    0 -0.13858418810E+02  0.18623289427E+02 -0.24052859372E+02  0.33756669340E+02  0.47000000000E+01 0. -1.
         -5    1    3    3    0  502  0.84464010092E+02 -0.19274052766E+02  0.87427846748E+02  0.12317214173E+03  0.47000000000E+01 0. -1.
          5    1    4    4  503    0 -0.24064395838E+02 -0.37161210161E+02 -0.14869085728E+02  0.46938581126E+02  0.47000000000E+01 0. -1.
         -5    1    4    4    0  503 -0.46541195443E+02  0.37811973501E+02  0.48391337896E+02  0.77198703336E+02  0.47000000000E+01 0.  1.
<mgrwt>
<rscale>  0 0.13713439E+03</rscale>
<asrwt>0</asrwt>
<pdfrwt beam="1">  1        2 0.29074103E-01 0.14356275E+03</pdfrwt>
<pdfrwt beam="2">  1       -2 0.14166835E-01 0.14356275E+03</pdfrwt>
<totfact> 0.65232027E+03</totfact>
</mgrwt>
</event>
<event>
 8    1  0.3629925E-004  0.1276695E+03  0.7546771E-02  0.1245223E+00
          1   -1    0    0  501    0  0.00000000000E+00  0.00000000000E+00  0.96625744323E+02  0.96625744323E+02  0.00000000000E+00 0. -1.
         -1   -1    0    0    0  501 -0.00000000000E+00 -0.00000000000E+00 -0.14056152305E+03  0.14056152305E+03  0.00000000000E+00 0.  1.
         25    2    1    2    0    0 -0.22119114002E+02 -0.13643749472E+02 -0.58824666312E+02  0.14056970642E+03  0.12499637552E+03 0.  0.
         23    2    1    2    0    0  0.22119114002E+02  0.13643749472E+02  0.14888887584E+02  0.96617560953E+02  0.91857863067E+02 0.  0.
          5    1    3    3  502    0  0.22501481991E+02 -0.31369228053E+02 -0.79175418019E+02  0.88211008264E+02  0.47000000000E+01 0. -1.
         -5    1    3    3    0  502 -0.44620595993E+02  0.17725478581E+02  0.20350751707E+02  0.52358698157E+02  0.47000000000E+01 0. -1.
          5    1    4    4  503    0  0.15749833401E+02  0.52214082288E+02  0.16613885735E+02  0.57205583998E+02  0.47000000000E+01 0. -1.
         -5    1    4    4    0  503  0.63692806008E+01 -0.38570332816E+02 -0.17249981507E+01  0.39411976955E+02  0.47000000000E+01 0.  1.
<mgrwt>
<rscale>  0 0.11872021E+03</rscale>
<asrwt>0</asrwt>
<pdfrwt beam="1">  1        1 0.14865499E-01 0.12766950E+03</pdfrwt>
<pdfrwt beam="2">  1       -1 0.21624850E-01 0.12766950E+03</pdfrwt>
<totfact> 0.63188564E+03</totfact>
</mgrwt>
</event>
<event>
 8    1  0.3629925E-004  0.3236969E+03  0.7546771E-02  0.1075296E+00
          2   -1    0    0  501    0  0.00000000000E+00  0.00000000000E+00  0.16763753424E+04  0.16763753424E+04  0.00000000000E+00 0. -1.
         -2   -1    0    0    0  501 -0.00000000000E+00 -0.00000000000E+00 -0.10593342520E+03  0.10593342520E+03  0.00000000000E+00 0.  1.
         25    2    1    2    0    0  0.29180023744E+03  0.63308565952E+02  0.13782254117E+04  0.14157277079E+04  0.12499721822E+03 0.  0.
         23    2    1    2    0    0 -0.29180023744E+03 -0.63308565952E+02  0.19221650554E+03  0.36658105967E+03  0.90989753326E+02 0.  0.
          5    1    3    3  502    0  0.69044498023E+02 -0.10861613296E+02  0.15399961678E+03  0.16918359649E+03  0.47000000000E+01 0. -1.
         -5    1    4    4    0  503 -0.25204199399E+03 -0.24613779697E+02  0.17653751461E+03  0.30873708710E+03  0.47000000000E+01 0.  1.
          5    1    4    4  503    0 -0.39758243454E+02 -0.38694786255E+02  0.15678990924E+02  0.57843972567E+02  0.47000000000E+01 0. -1.
         -5    1    3    3    0  502  0.22275573942E+03  0.74170179248E+02  0.12242257949E+04  0.12465441114E+04  0.47000000000E+01 0. -1.
<mgrwt>
<rscale>  0 0.32076942E+03</rscale>
<asrwt>0</asrwt>
<pdfrwt beam="1">  1        2 0.25790388E+00 0.32369686E+03</pdfrwt>
<pdfrwt beam="2">  1       -2 0.16297451E-01 0.32369686E+03</pdfrwt>
<totfact> 0.32637037E+02</totfact>
</mgrwt>
</event>
<event>
 8    1  0.3629925E-004  0.1258361E+03  0.7546771E-02  0.1249238E+00
          1   -1    0    0  501    0  0.00000000000E+00  0.00000000000E+00  0.34813124876E+03  0.34813124876E+03  0.00000000000E+00 0. -1.
         -1   -1    0    0    0  501 -0.00000000000E+00 -0.00000000000E+00 -0.34234192553E+02  0.34234192553E+02  0.00000000000E+00 0.  1.
         25    2    1    2    0    0  0.52223054829E+01  0.13580254057E+02  0.19429431041E+03  0.23148435955E+03  0.12499213530E+03 0.  0.
         23    2    1    2    0    0 -0.52223054829E+01 -0.13580254057E+02  0.11960274580E+03  0.15088108176E+03  0.90821738895E+02 0.  0.
          5    1    4    4  502    0 -0.23897160369E+02  0.28433445597E+02  0.85829296028E+02  0.93639164664E+02  0.47000000000E+01 0. -1.
         -5    1    3    3    0  503 -0.43032578276E+02  0.85197151539E+01  0.17256218979E+03  0.17811285098E+03  0.47000000000E+01 0. -1.
          5    1    3    3  503    0  0.48254883759E+02  0.50605389026E+01  0.21732120616E+02  0.53371508570E+02  0.47000000000E+01 0. -1.
         -5    1    4    4    0  502  0.18674854886E+02 -0.42013699653E+02  0.33773449771E+02  0.57241917097E+02  0.47000000000E+01 0.  1.
<mgrwt>
<rscale>  0 0.11635287E+03</rscale>
<asrwt>0</asrwt>
<pdfrwt beam="1">  1        1 0.53558651E-01 0.12583612E+03</pdfrwt>
<pdfrwt beam="2">  1       -1 0.52667991E-02 0.12583612E+03</pdfrwt>
<totfact> 0.11085104E+04</totfact>
</mgrwt>
</event>
<event>
 8    1  0.3629925E-004  0.1438407E+03  0.7546771E-02  0.1218378E+00
          2   -1    0    0  501    0  0.00000000000E+00  0.00000000000E+00  0.32342559833E+03  0.32342559833E+03  0.00000000000E+00 0. -1.
         -2   -1    0    0    0  501 -0.00000000000E+00 -0.00000000000E+00 -0.65676462046E+02  0.65676462046E+02  0.00000000000E+00 0.  1.
         25    2    1    2    0    0  0.46166499178E+02 -0.54179088366E+02  0.52097913935E+02  0.15298479569E+03  0.12499374310E+03 0.  0.
         23    2    1    2    0    0 -0.46166499178E+02  0.54179088366E+02  0.20565122235E+03  0.23611726468E+03  0.91609050669E+02 0.  0.
          5    1    4    4  502    0 -0.14765200298E+01  0.31869262227E+02  0.17363041912E+03  0.17659966713E+03  0.47000000000E+01 0. -1.
         -5    1    3    3    0  503 -0.22473772531E+02  0.11357232549E+02  0.51998990576E+02  0.57965871026E+02  0.47000000000E+01 0.  1.
          5    1    3    3  503    0  0.68640271709E+02 -0.65536320915E+02  0.98923359123E-01  0.95018924668E+02  0.47000000000E+01 0.  1.
         -5    1    4    4    0  502 -0.44689979148E+02  0.22309826139E+02  0.32020803221E+02  0.59517597545E+02  0.47000000000E+01 0.  1.
<mgrwt>
<rscale>  0 0.13631315E+03</rscale>
<asrwt>0</asrwt>
<pdfrwt beam="1">  1        2 0.49757784E-01 0.14384073E+03</pdfrwt>
<pdfrwt beam="2">  1       -2 0.10104071E-01 0.14384073E+03</pdfrwt>
<totfact> 0.63030052E+03</totfact>
</mgrwt>
</event>
<event>
 8    1  0.3629925E-004  0.1624138E+03  0.7546771E-02  0.1192576E+00
         -2   -1    0    0    0  501 -0.00000000000E+00  0.00000000000E+00  0.14779066668E+03  0.14779066668E+03  0.00000000000E+00 0.  1.
          2   -1    0    0  501    0  0.00000000000E+00 -0.00000000000E+00 -0.20576045836E+03  0.20576045836E+03  0.00000000000E+00 0. -1.
         25    2    1    2    0    0 -0.62717475801E+02 -0.82576693041E+02 -0.11808495490E+03  0.20080414604E+03  0.12500342591E+03 0.  0.
         23    2    1    2    0    0  0.62717475801E+02  0.82576693041E+02  0.60115163215E+02  0.15274697900E+03  0.94685874033E+02 0.  0.
          5    1    4    4  502    0  0.13285329871E+02  0.63062297469E+02 -0.92080297509E+01  0.65270446327E+02  0.47000000000E+01 0. -1.
         -5    1    3    3    0  503 -0.61317509914E+02 -0.51085074296E+02 -0.15214772840E+01  0.79962033059E+02  0.47000000000E+01 0.  1.
          5    1    3    3  503    0 -0.13999658867E+01 -0.31491618745E+02 -0.11656347762E+03  0.12084211298E+03  0.47000000000E+01 0.  1.
         -5    1    4    4    0  502  0.49432145930E+02  0.19514395572E+02  0.69323192966E+02  0.87476532674E+02  0.47000000000E+01 0.  1.
<mgrwt>
<rscale>  0 0.15661183E+03</rscale>
<asrwt>0</asrwt>
<pdfrwt beam="1">  1        2 0.31655455E-01 0.16241382E+03</pdfrwt>
<pdfrwt beam="2">  1       -2 0.22737026E-01 0.16241382E+03</pdfrwt>
<totfact> 0.27116851E+03</totfact>
</mgrwt>
</event>
<event>
 8    1  0.3629925E-004  0.1649227E+03  0.7546771E-02  0.1190286E+00
         -2   -1    0    0    0  501 -0.00000000000E+00  0.00000000000E+00  0.32628458132E+02  0.32628458132E+02  0.00000000000E+00 0.  1.
          2   -1    0    0  501    0  0.00000000000E+00 -0.00000000000E+00 -0.78652058982E+03  0.78652058982E+03  0.00000000000E+00 0. -1.
         25    2    1    2    0    0  0.60706576020E+02 -0.88817000796E+02 -0.28261871590E+03  0.32721985338E+03  0.12500298343E+03 0.  0.
         23    2    1    2    0    0 -0.60706576020E+02  0.88817000796E+02 -0.47127341579E+03  0.49192919458E+03  0.91224733718E+02 0.  0.
          5    1    4    4  502    0  0.17452053315E+02  0.38487574165E+02 -0.21765993101E+03  0.22177421649E+03  0.47000000000E+01 0. -1.
         -5    1    4    4    0  502 -0.78158629335E+02  0.50329426631E+02 -0.25361348478E+03  0.27015497809E+03  0.47000000000E+01 0.  1.
          5    1    3    3  503    0 -0.89775905797E+01 -0.68907793104E+02 -0.22184523048E+03  0.23252156324E+03  0.47000000000E+01 0. -1.
         -5    1    3    3    0  503  0.69684166600E+02 -0.19909207692E+02 -0.60773485415E+02  0.94698290138E+02  0.47000000000E+01 0. -1.
<mgrwt>
<rscale>  0 0.15860074E+03</rscale>
<asrwt>0</asrwt>
<pdfrwt beam="1">  1        2 0.12100316E+00 0.16492269E+03</pdfrwt>
<pdfrwt beam="2">  1       -2 0.50197630E-02 0.16492269E+03</pdfrwt>
<totfact> 0.68828791E+03</totfact>
</mgrwt>
</event>
<event>
 8    1  0.3629925E-004  0.1753569E+03  0.7546771E-02  0.1178428E+00
         -1   -1    0    0    0  501 -0.00000000000E+00  0.00000000000E+00  0.81518056218E+02  0.81518056218E+02  0.00000000000E+00 0.  1.
          1   -1    0    0  501    0  0.00000000000E+00 -0.00000000000E+00 -0.33846815268E+03  0.33846815268E+03  0.00000000000E+00 0. -1.
         25    2    1    2    0    0 -0.12107444054E+03  0.21619391789E+02 -0.10473713696E+03  0.20425449382E+03  0.12499444842E+03 0.  0.
         23    2    1    2    0    0  0.12107444054E+03 -0.21619391789E+02 -0.15221295950E+03  0.21573171508E+03  0.90801814942E+02 0.  0.
          5    1    3    3  502    0 -0.14755691474E+02  0.16302528317E+02 -0.94580084087E+02  0.97216177492E+02  0.47000000000E+01 0.  1.
         -5    1    4    4    0  503 -0.16829020529E+01 -0.27547899458E+02 -0.16151714445E+02  0.32321615111E+02  0.47000000000E+01 0.  1.
          5    1    4    4  503    0  0.12275734259E+03  0.59285076685E+01 -0.13606124506E+03  0.18341009997E+03  0.47000000000E+01 0. -1.
         -5    1    3    3    0  502 -0.10631874906E+03  0.53168634728E+01 -0.10157052873E+02  0.10703831633E+03  0.47000000000E+01 0.  1.
<mgrwt>
<rscale>  0 0.16944457E+03</rscale>
<asrwt>0</asrwt>
<pdfrwt beam="1">  1        1 0.52072024E-01 0.17535687E+03</pdfrwt>
<pdfrwt beam="2">  1       -1 0.12541239E-01 0.17535687E+03</pdfrwt>
<totfact> 0.31456141E+03</totfact>
</mgrwt>
</event>
<event>
 8    1  0.3629925E-004  0.1358970E+03  0.7546771E-02  0.1229980E+00
         -3   -1    0    0    0  501 -0.00000000000E+00  0.00000000000E+00  0.33851606608E+02  0.33851606608E+02  0.00000000000E+00 0.  1.
          3   -1    0    0  501    0  0.00000000000E+00 -0.00000000000E+00 -0.44055835078E+03  0.44055835078E+03  0.00000000000E+00 0. -1.
         25    2    1    2    0    0 -0.52340958617E+02 -0.10156790873E+02 -0.23889898804E+03  0.27484671542E+03  0.12500101656E+03 0.  0.
         23    2    1    2    0    0  0.52340958617E+02  0.10156790873E+02 -0.16780775613E+03  0.19956324196E+03  0.93932466038E+02 0.  0.
          5    1    4    4  502    0 -0.99862500359E+01  0.37302198350E+02 -0.74197241623E+02  0.83776487489E+02  0.47000000000E+01 0. -1.
         -5    1    3    3    0  503 -0.75812535561E+02  0.35053568532E+02 -0.13096637038E+03  0.15540454751E+03  0.47000000000E+01 0.  1.
          5    1    3    3  503    0  0.23471576944E+02 -0.45210359404E+02 -0.10793261765E+03  0.11944216791E+03  0.47000000000E+01 0.  1.
         -5    1    4    4    0  502  0.62327208653E+02 -0.27145407477E+02 -0.93610514508E+02  0.11578675448E+03  0.47000000000E+01 0.  1.
<mgrwt>
<rscale>  0 0.12831364E+03</rscale>
<asrwt>0</asrwt>
<pdfrwt beam="1">  1        3 0.67778199E-01 0.13589698E+03</pdfrwt>
<pdfrwt beam="2">  1       -3 0.52079401E-02 0.13589698E+03</pdfrwt>
<totfact> 0.10510905E+03</totfact>
</mgrwt>
</event>
<event>
 8    1  0.3629925E-004  0.1822728E+03  0.7546771E-02  0.1170953E+00
         -3   -1    0    0    0  501 -0.00000000000E+00  0.00000000000E+00  0.30960381413E+03  0.30960381413E+03  0.00000000000E+00 0.  1.
          3   -1    0    0  501    0  0.00000000000E+00 -0.00000000000E+00 -0.10868507246E+03  0.10868507246E+03  0.00000000000E+00 0. -1.
         25    2    1    2    0    0  0.33743451615E+02  0.12829543528E+03  0.17908876378E+03  0.25553112133E+03  0.12500011766E+03 0.  0.
         23    2    1    2    0    0 -0.33743451615E+02 -0.12829543528E+03  0.21829977893E+02  0.16275776525E+03  0.91734415435E+02 0.  0.
          5    1    4    4  502    0 -0.65280627889E+02 -0.79690697410E+02  0.12341845321E+02  0.10385845549E+03  0.47000000000E+01 0. -1.
         -5    1    4    4    0  502  0.31537176274E+02 -0.48604737871E+02  0.94881325712E+01  0.58899309763E+02  0.47000000000E+01 0.  1.
          5    1    3    3  503    0 -0.77088627602E+01  0.13752865728E+03  0.15076266421E+03  0.20426705329E+03  0.47000000000E+01 0. -1.
         -5    1    3    3    0  503  0.41452314375E+02 -0.92332220016E+01  0.28326099571E+02  0.51264068044E+02  0.47000000000E+01 0. -1.
<mgrwt>
<rscale>  0 0.17678333E+03</rscale>
<asrwt>0</asrwt>
<pdfrwt beam="1">  1        3 0.16720781E-01 0.18227279E+03</pdfrwt>
<pdfrwt beam="2">  1       -3 0.47631356E-01 0.18227279E+03</pdfrwt>
<totfact> 0.32709064E+02</totfact>
</mgrwt>
</event>
<event>
 8    1  0.3629925E-004  0.1848437E+03  0.7546771E-02  0.1167354E+00
          2   -1    0    0  501    0  0.00000000000E+00  0.00000000000E+00  0.21616751109E+03  0.21616751109E+03  0.00000000000E+00 0. -1.
         -2   -1    0    0    0  501 -0.00000000000E+00 -0.00000000000E+00 -0.14992978516E+03  0.14992978516E+03  0.00000000000E+00 0.  1.
         25    2    1    2    0    0  0.13226514296E+03 -0.32398180121E+02 -0.19159597450E+01  0.18485367542E+03  0.12499400105E+03 0.  0.
         23    2    1    2    0    0 -0.13226514296E+03  0.32398180121E+02  0.68153685669E+02  0.18124362082E+03  0.98288428117E+02 0.  0.
          5    1    4    4  502    0 -0.29467305921E+02  0.36921127563E+02 -0.13995770336E+02  0.49492053565E+02  0.47000000000E+01 0. -1.
         -5    1    4    4    0  502 -0.10279783704E+03 -0.45229474416E+01  0.82149456005E+02  0.13175156726E+03  0.47000000000E+01 0.  1.
          5    1    3    3  503    0  0.53545377832E+02  0.49256324179E+01 -0.59486210555E+02  0.80324769456E+02  0.47000000000E+01 0.  1.
         -5    1    3    3    0  503  0.78719765129E+02 -0.37323812539E+02  0.57570250810E+02  0.10452890597E+03  0.47000000000E+01 0.  1.
<mgrwt>
<rscale>  0 0.18046502E+03</rscale>
<asrwt>0</asrwt>
<pdfrwt beam="1">  1        2 0.33256540E-01 0.18484375E+03</pdfrwt>
<pdfrwt beam="2">  1       -2 0.23066121E-01 0.18484375E+03</pdfrwt>
<totfact> 0.25204009E+03</totfact>
</mgrwt>
</event>
<event>
 8    1  0.3629925E-004  0.1522898E+03  0.7546771E-02  0.1206288E+00
          1   -1    0    0  501    0  0.00000000000E+00  0.00000000000E+00  0.45657430063E+03  0.45657430063E+03  0.00000000000E+00 0. -1.
         -1   -1    0    0    0  501 -0.00000000000E+00 -0.00000000000E+00 -0.44046066765E+02  0.44046066765E+02  0.00000000000E+00 0.  1.
         25    2    1    2    0    0  0.65213915749E+02  0.57573643702E+02  0.27093615275E+03  0.31080312121E+03  0.12499840810E+03 0.  0.
         23    2    1    2    0    0 -0.65213915749E+02 -0.57573643702E+02  0.14159208111E+03  0.18981724618E+03  0.91731620823E+02 0.  0.
          5    1    4    4  502    0 -0.22356261995E+02 -0.71659131653E+02  0.11447406243E+03  0.13697165608E+03  0.47000000000E+01 0. -1.
         -5    1    4    4    0  502 -0.42857653755E+02  0.14085487951E+02  0.27118018676E+02  0.52845590100E+02  0.47000000000E+01 0.  1.
          5    1    3    3  503    0  0.43584046723E+02  0.90631734368E+02  0.24046729694E+03  0.26069194714E+03  0.47000000000E+01 0. -1.
         -5    1    3    3    0  503  0.21629869026E+02 -0.33058090666E+02  0.30468855811E+02  0.50111174073E+02  0.47000000000E+01 0. -1.
<mgrwt>
<rscale>  0 0.14536435E+03</rscale>
<asrwt>0</asrwt>
<pdfrwt beam="1">  1        1 0.70242197E-01 0.15228979E+03</pdfrwt>
<pdfrwt beam="2">  1       -1 0.67763183E-02 0.15228979E+03</pdfrwt>
<totfact> 0.54748545E+03</totfact>
</mgrwt>
</event>
<event>
 8    1  0.3629925E-004  0.2982209E+03  0.7546771E-02  0.1087751E+00
          1   -1    0    0  501    0  0.00000000000E+00  0.00000000000E+00  0.33510406526E+03  0.33510406526E+03  0.00000000000E+00 0. -1.
         -1   -1    0    0    0  501 -0.00000000000E+00 -0.00000000000E+00 -0.42559501637E+03  0.42559501637E+03  0.00000000000E+00 0.  1.
         25    2    1    2    0    0 -0.95023562768E+02  0.25354125944E+03 -0.28706429419E+03  0.41393431321E+03  0.12499223550E+03 0.  0.
         23    2    1    2    0    0  0.95023562768E+02 -0.25354125944E+03  0.19657334308E+03  0.34676476842E+03  0.91060846072E+02 0.  0.
          5    1    3    3  502    0 -0.80745346768E+01  0.11751368800E+03 -0.19545188303E+03  0.22825028709E+03  0.47000000000E+01 0. -1.
         -5    1    3    3    0  502 -0.86949028091E+02  0.13602757144E+03 -0.91612411160E+02  0.18568402612E+03  0.47000000000E+01 0. -1.
          5    1    4    4  503    0  0.63139178164E+02 -0.17031420535E+03  0.18042939633E+03  0.25606706431E+03  0.47000000000E+01 0.  1.
         -5    1    4    4    0  503  0.31884384604E+02 -0.83227054090E+02  0.16143946748E+02  0.90697704109E+02  0.47000000000E+01 0. -1.
<mgrwt>
<rscale>  0 0.29503122E+03</rscale>
<asrwt>0</asrwt>
<pdfrwt beam="1">  1        1 0.51554472E-01 0.29822090E+03</pdfrwt>
<pdfrwt beam="2">  1       -1 0.65476156E-01 0.29822090E+03</pdfrwt>
<totfact> 0.18749003E+02</totfact>
</mgrwt>
</event>
<event>
 8    1  0.3629925E-004  0.1605808E+03  0.7546771E-02  0.1195957E+00
         -2   -1    0    0    0  501 -0.00000000000E+00  0.00000000000E+00  0.57187454910E+02  0.57187454910E+02  0.00000000000E+00 0.  1.
          2   -1    0    0  501    0  0.00000000000E+00 -0.00000000000E+00 -0.38280791699E+03  0.38280791699E+03  0.00000000000E+00 0. -1.
         25    2    1    2    0    0 -0.10051161061E+03  0.76307449438E+01 -0.16502042473E+03  0.23025623241E+03  0.12500151939E+03 0.  0.
         23    2    1    2    0    0  0.10051161061E+03 -0.76307449438E+01 -0.16060003735E+03  0.20973913949E+03  0.89651115451E+02 0.  0.
          5    1    3    3  502    0 -0.64828934134E+02  0.52958674567E+02 -0.40861392017E+02  0.93269262196E+02  0.47000000000E+01 0.  1.
         -5    1    4    4    0  503  0.90131650596E+02 -0.28583207425E+02 -0.15996465722E+03  0.18588032641E+03  0.47000000000E+01 0. -1.
          5    1    4    4  503    0  0.10379960012E+02  0.20952462482E+02 -0.63538013307E+00  0.23858813085E+02  0.47000000000E+01 0.  1.
         -5    1    3    3    0  502 -0.35682676474E+02 -0.45327929624E+02 -0.12415903272E+03  0.13698697022E+03  0.47000000000E+01 0.  1.
<mgrwt>
<rscale>  0 0.15373529E+03</rscale>
<asrwt>0</asrwt>
<pdfrwt beam="1">  1        2 0.58893526E-01 0.16058080E+03</pdfrwt>
<pdfrwt beam="2">  1       -2 0.87980700E-02 0.16058080E+03</pdfrwt>
<totfact> 0.65854330E+03</totfact>
</mgrwt>
</event>
<event>
 8    1  0.3629925E-004  0.1292610E+03  0.7546771E-02  0.1241822E+00
         -4   -1    0    0    0  501 -0.00000000000E+00  0.00000000000E+00  0.15435157554E+04  0.15435157554E+04  0.00000000000E+00 0.  1.
          4   -1    0    0  501    0  0.00000000000E+00 -0.00000000000E+00 -0.87884334208E+01  0.87884334208E+01  0.00000000000E+00 0. -1.
         25    2    1    2    0    0 -0.19581310979E+02  0.26426291289E+02  0.70538503321E+03  0.71713070155E+03  0.12500648548E+03 0.  0.
         23    2    1    2    0    0  0.19581310979E+02 -0.26426291289E+02  0.82934228880E+03  0.83517348731E+03  0.92867353228E+02 0.  0.
          5    1    3    3  502    0  0.43133617280E+02 -0.16737828091E+02  0.16645935943E+03  0.17283365463E+03  0.47000000000E+01 0.  1.
         -5    1    4    4    0  503  0.38027611151E+02  0.23593566536E+02  0.38133345166E+03  0.38397922723E+03  0.47000000000E+01 0.  1.
          5    1    4    4  503    0 -0.18446300172E+02 -0.50019857825E+02  0.44800883715E+03  0.45119426008E+03  0.47000000000E+01 0. -1.
         -5    1    3    3    0  502 -0.62714928259E+02  0.43164119380E+02  0.53892567378E+03  0.54429704692E+03  0.47000000000E+01 0.  1.
<mgrwt>
<rscale>  0 0.12077618E+03</rscale>
<asrwt>0</asrwt>
<pdfrwt beam="1">  1        4 0.13520679E-02 0.12926097E+03</pdfrwt>
<pdfrwt beam="2">  1       -4 0.23746375E+00 0.12926097E+03</pdfrwt>
<totfact> 0.26782673E+02</totfact>
</mgrwt>
</event>
<event>
 8    1  0.3629925E-004  0.1613764E+03  0.7546771E-02  0.1193891E+00
          3   -1    0    0  501    0  0.00000000000E+00  0.00000000000E+00  0.65655132577E+02  0.65655132577E+02  0.00000000000E+00 0. -1.
         -3   -1    0    0    0  501 -0.00000000000E+00 -0.00000000000E+00 -0.34579905172E+03  0.34579905172E+03  0.00000000000E+00 0.  1.
         25    2    1    2    0    0  0.52373904136E+02  0.87606195161E+02 -0.13449706858E+03  0.21007571065E+03  0.12499788591E+03 0.  0.
         23    2    1    2    0    0 -0.52373904136E+02 -0.87606195161E+02 -0.14564685057E+03  0.20137847365E+03  0.94458526907E+02 0.  0.
          5    1    3    3  502    0 -0.30920473093E+02  0.68487142384E+02 -0.71184802161E+02  0.10361433485E+03  0.47000000000E+01 0.  1.
         -5    1    3    3    0  502  0.83294377229E+02  0.19119052777E+02 -0.63312266417E+02  0.10646137579E+03  0.47000000000E+01 0.  1.
          5    1    4    4  503    0 -0.48913361913E+02 -0.88360607622E+01 -0.21779128264E+02  0.54470298066E+02  0.47000000000E+01 0. -1.
         -5    1    4    4    0  503 -0.34605422233E+01 -0.78770134399E+02 -0.12386772230E+03  0.14690817559E+03  0.47000000000E+01 0.  1.
<mgrwt>
<rscale>  0 0.15548478E+03</rscale>
<asrwt>0</asrwt>
<pdfrwt beam="1">  1        3 0.10100789E-01 0.16137640E+03</pdfrwt>
<pdfrwt beam="2">  1       -3 0.53199855E-01 0.16137640E+03</pdfrwt>
<totfact> 0.60699811E+02</totfact>
</mgrwt>
</event>
<event>
 8    1  0.3629925E-004  0.1404046E+03  0.7546771E-02  0.1225061E+00
          1   -1    0    0  501    0  0.00000000000E+00  0.00000000000E+00  0.17331224025E+03  0.17331224025E+03  0.00000000000E+00 0. -1.
         -1   -1    0    0    0  501 -0.00000000000E+00 -0.00000000000E+00 -0.95460200592E+02  0.95460200592E+02  0.00000000000E+00 0.  1.
         25    2    1    2    0    0 -0.58085251604E+02 -0.26761110396E+02  0.77385394275E+02  0.16031826846E+03  0.12499357772E+03 0.  0.
         23    2    1    2    0    0  0.58085251604E+02  0.26761110396E+02  0.46664538284E+00  0.10845417238E+03  0.87590160782E+02 0.  0.
          5    1    4    4  502    0  0.60573579443E+02  0.18741810271E+00  0.30516208676E+02  0.67989136221E+02  0.47000000000E+01 0. -1.
         -5    1    3    3    0  503 -0.22101079495E+02 -0.60007550985E+02  0.89054916238E+02  0.10973710401E+03  0.47000000000E+01 0. -1.
          5    1    3    3  503    0 -0.35984172109E+02  0.33246440590E+02 -0.11669521963E+02  0.50581164450E+02  0.47000000000E+01 0. -1.
         -5    1    4    4    0  502 -0.24883278388E+01  0.26573692293E+02 -0.30049563293E+02  0.40465036162E+02  0.47000000000E+01 0.  1.
<mgrwt>
<rscale>  0 0.13162747E+03</rscale>
<asrwt>0</asrwt>
<pdfrwt beam="1">  1        1 0.26663422E-01 0.14040459E+03</pdfrwt>
<pdfrwt beam="2">  1       -1 0.14686185E-01 0.14040459E+03</pdfrwt>
<totfact> 0.55950806E+03</totfact>
</mgrwt>
</event>
<event>
 8    1  0.3629925E-004  0.1320406E+03  0.7546771E-02  0.1237154E+00
         -1   -1    0    0    0  501 -0.00000000000E+00  0.00000000000E+00  0.28140325780E+03  0.28140325780E+03  0.00000000000E+00 0.  1.
          1   -1    0    0  501    0  0.00000000000E+00 -0.00000000000E+00 -0.49724501877E+02  0.49724501877E+02  0.00000000000E+00 0. -1.
         25    2    1    2    0    0 -0.39438887958E+02 -0.15973251374E+02  0.10486187819E+03  0.16861414270E+03  0.12499657986E+03 0.  0.
         23    2    1    2    0    0  0.39438887958E+02  0.15973251374E+02  0.12681687774E+03  0.16251361698E+03  0.92290761087E+02 0.  0.
          5    1    4    4  502    0  0.86825528944E+01  0.25367696440E+02 -0.41843287145E+01  0.27540975913E+02  0.47000000000E+01 0. -1.
         -5    1    4    4    0  502  0.30756335064E+02 -0.93944450663E+01  0.13100120645E+03  0.13497264107E+03  0.47000000000E+01 0.  1.
          5    1    3    3  503    0 -0.38961751091E+02  0.51140923264E+02  0.45663146204E+02  0.78997626557E+02  0.47000000000E+01 0.  1.
         -5    1    3    3    0  503 -0.47713686768E+00 -0.67114174638E+02  0.59198731981E+02  0.89616516140E+02  0.47000000000E+01 0.  1.
<mgrwt>
<rscale>  0 0.12367543E+03</rscale>
<asrwt>0</asrwt>
<pdfrwt beam="1">  1        1 0.76499235E-02 0.13204058E+03</pdfrwt>
<pdfrwt beam="2">  1       -1 0.43292808E-01 0.13204058E+03</pdfrwt>
<totfact> 0.47181576E+03</totfact>
</mgrwt>
</event>
<event>
 8    1  0.3629925E-004  0.1361909E+03  0.7546771E-02  0.1230738E+00
          2   -1    0    0  501    0  0.00000000000E+00  0.00000000000E+00  0.14910793041E+04  0.14910793041E+04  0.00000000000E+00 0.  1.
         -2   -1    0    0    0  501 -0.00000000000E+00 -0.00000000000E+00 -0.99872847289E+01  0.99872847289E+01  0.00000000000E+00 0. -1.
         25    2    1    2    0    0 -0.43626436610E+02  0.31924829565E+02  0.93278771956E+03  0.94267751829E+03  0.12500205208E+03 0.  0.
         23    2    1    2    0    0  0.43626436610E+02 -0.31924829565E+02  0.54830429977E+03  0.55838907049E+03  0.90765016308E+02 0.  0.
          5    1    3    3  502    0  0.42204237363E+02 -0.19281873955E+01  0.35759929430E+03  0.36011700993E+03  0.47000000000E+01 0. -1.
         -5    1    3    3    0  502 -0.85830673973E+02  0.33853016961E+02  0.57518842526E+03  0.58256050836E+03  0.47000000000E+01 0. -1.
          5    1    4    4  503    0  0.64687748171E+02 -0.46705169645E+01  0.26051762553E+03  0.26851041266E+03  0.47000000000E+01 0. -1.
         -5    1    4    4    0  503 -0.21061311561E+02 -0.27254312601E+02  0.28778667424E+03  0.28987865784E+03  0.47000000000E+01 0.  1.
<mgrwt>
<rscale>  0 0.12781236E+03</rscale>
<asrwt>0</asrwt>
<pdfrwt beam="1">  1        2 0.22939664E+00 0.13619095E+03</pdfrwt>
<pdfrwt beam="2">  1       -2 0.15365065E-02 0.13619095E+03</pdfrwt>
<totfact> 0.15219684E+04</totfact>
</mgrwt>
</event>
<event>
 8    1  0.3629925E-004  0.2339302E+03  0.7546771E-02  0.1126767E+00
         -2   -1    0    0    0  501 -0.00000000000E+00  0.00000000000E+00  0.93533615890E+02  0.93533615890E+02  0.00000000000E+00 0.  1.
          2   -1    0    0  501    0  0.00000000000E+00 -0.00000000000E+00 -0.56039072734E+03  0.56039072734E+03  0.00000000000E+00 0. -1.
         25    2    1    2    0    0 -0.19430093617E+03  0.36684543869E+02 -0.29440213254E+03  0.37602655225E+03  0.12499897119E+03 0.  0.
         23    2    1    2    0    0  0.19430093617E+03 -0.36684543869E+02 -0.17245497891E+03  0.27789779098E+03  0.91585222196E+02 0.  0.
          5    1    4    4  502    0  0.71656398010E+02  0.15679015487E+02 -0.10556409145E+03  0.12863257094E+03  0.47000000000E+01 0. -1.
         -5    1    4    4    0  502  0.12264453816E+03 -0.52363559356E+02 -0.66890887462E+02  0.14926522004E+03  0.47000000000E+01 0.  1.
          5    1    3    3  503    0 -0.82483768722E+02  0.21990360124E+00 -0.22428643908E+03  0.23901907291E+03  0.47000000000E+01 0. -1.
         -5    1    3    3    0  503 -0.11181716745E+03  0.36464640268E+02 -0.70115693464E+02  0.13700747934E+03  0.47000000000E+01 0. -1.
<mgrwt>
<rscale>  0 0.22981903E+03</rscale>
<asrwt>0</asrwt>
<pdfrwt beam="1">  1        2 0.86213957E-01 0.23393023E+03</pdfrwt>
<pdfrwt beam="2">  1       -2 0.14389787E-01 0.23393023E+03</pdfrwt>
<totfact> 0.19957648E+03</totfact>
</mgrwt>
</event>
<event>
 8    1  0.3629925E-004  0.1792358E+03  0.7546771E-02  0.1174504E+00
          2   -1    0    0  501    0  0.00000000000E+00  0.00000000000E+00  0.11318579980E+03  0.11318579980E+03  0.00000000000E+00 0. -1.
         -2   -1    0    0    0  501 -0.00000000000E+00 -0.00000000000E+00 -0.28747554545E+03  0.28747554545E+03  0.00000000000E+00 0.  1.
         25    2    1    2    0    0  0.40921617770E+02  0.12176404837E+03 -0.16550697217E+03  0.24396318703E+03  0.12499766603E+03 0.  0.
         23    2    1    2    0    0 -0.40921617770E+02 -0.12176404837E+03 -0.87827734874E+01  0.15669815822E+03  0.89309089137E+02 0.  0.
          5    1    3    3  502    0  0.32046462552E+02  0.35911359147E+02 -0.14809216702E+03  0.15578825825E+03  0.47000000000E+01 0.  1.
         -5    1    4    4    0  503  0.10898646795E+02 -0.60185935177E+02 -0.36578536876E+02  0.71422732061E+02  0.47000000000E+01 0.  1.
          5    1    4    4  503    0 -0.51820264564E+02 -0.61578113193E+02  0.27795763388E+02  0.85275426157E+02  0.47000000000E+01 0. -1.
         -5    1    3    3    0  502  0.88751552177E+01  0.85852689223E+02 -0.17414805155E+02  0.88174928781E+02  0.47000000000E+01 0.  1.
<mgrwt>
<rscale>  0 0.17324622E+03</rscale>
<asrwt>0</asrwt>
<pdfrwt beam="1">  1        2 0.17413200E-01 0.17923582E+03</pdfrwt>
<pdfrwt beam="2">  1       -2 0.44227007E-01 0.17923582E+03</pdfrwt>
<totfact> 0.15754337E+03</totfact>
</mgrwt>
</event>
<event>
 8    1  0.3629925E-004  0.1356554E+03  0.7546771E-02  0.1232013E+00
         -2   -1    0    0    0  501 -0.00000000000E+00  0.00000000000E+00  0.12843583151E+03  0.12843583151E+03  0.00000000000E+00 0. -1.
          2   -1    0    0  501    0  0.00000000000E+00 -0.00000000000E+00 -0.11540460316E+03  0.11540460316E+03  0.00000000000E+00 0.  1.
         25    2    1    2    0    0 -0.32716743151E+02 -0.41293499087E+02 -0.13668866776E+02  0.13634231873E+03  0.12500740622E+03 0.  0.
         23    2    1    2    0    0  0.32716743151E+02  0.41293499087E+02  0.26700095127E+02  0.10749811595E+03  0.89818770326E+02 0.  0.
          5    1    3    3  502    0 -0.49549393317E+01 -0.73072099748E+02 -0.42699434002E+02  0.84908273151E+02  0.47000000000E+01 0. -1.
         -5    1    3    3    0  502 -0.27761803819E+02  0.31778600661E+02  0.29030567225E+02  0.51434045580E+02  0.47000000000E+01 0. -1.
          5    1    4    4  503    0  0.56278355307E+02  0.44429043985E+02  0.37405445086E+02  0.81008953502E+02  0.47000000000E+01 0. -1.
         -5    1    4    4    0  503 -0.23561612156E+02 -0.31355448977E+01 -0.10705349959E+02  0.26489162443E+02  0.47000000000E+01 0.  1.
<mgrwt>
<rscale>  0 0.12697589E+03</rscale>
<asrwt>0</asrwt>
<pdfrwt beam="1">  1        2 0.17754554E-01 0.13565541E+03</pdfrwt>
<pdfrwt beam="2">  1       -2 0.19759359E-01 0.13565541E+03</pdfrwt>
<totfact> 0.64943176E+03</totfact>
</mgrwt>
</event>
<event>
 8    1  0.3629925E-004  0.1326782E+03  0.7546771E-02  0.1235050E+00
          1   -1    0    0  501    0  0.00000000000E+00  0.00000000000E+00  0.59980732716E+03  0.59980732716E+03  0.00000000000E+00 0. -1.
         -1   -1    0    0    0  501 -0.00000000000E+00 -0.00000000000E+00 -0.25012003839E+02  0.25012003839E+02  0.00000000000E+00 0.  1.
         25    2    1    2    0    0 -0.36645374082E+02 -0.25212247239E+02  0.24204206185E+03  0.27602147186E+03  0.12499980949E+03 0.  0.
         23    2    1    2    0    0  0.36645374082E+02  0.25212247239E+02  0.33275326148E+03  0.34879785914E+03  0.94639699200E+02 0.  0.
          5    1    3    3  502    0 -0.79887558412E+02 -0.31169363604E+02  0.13128247848E+03  0.15687807486E+03  0.47000000000E+01 0. -1.
         -5    1    4    4    0  503  0.58568083906E+02 -0.12193072279E+02  0.21543096041E+03  0.22363246671E+03  0.47000000000E+01 0.  1.
          5    1    4    4  503    0 -0.21922709824E+02  0.37405319517E+02  0.11732230107E+03  0.12516539243E+03  0.47000000000E+01 0. -1.
         -5    1    3    3    0  502  0.43242184330E+02  0.59571163650E+01  0.11075958337E+03  0.11914339700E+03  0.47000000000E+01 0. -1.
<mgrwt>
<rscale>  0 0.12501237E+03</rscale>
<asrwt>0</asrwt>
<pdfrwt beam="1">  1        1 0.92278040E-01 0.13267816E+03</pdfrwt>
<pdfrwt beam="2">  1       -1 0.38480010E-02 0.13267816E+03</pdfrwt>
<totfact> 0.87654953E+03</totfact>
</mgrwt>
</event>
<event>
 8    1  0.3629925E-004  0.1522906E+03  0.7546771E-02  0.1206263E+00
         -1   -1    0    0    0  501 -0.00000000000E+00  0.00000000000E+00  0.66080204544E+03  0.66080204544E+03  0.00000000000E+00 0.  1.
          1   -1    0    0  501    0  0.00000000000E+00 -0.00000000000E+00 -0.38898835349E+02  0.38898835349E+02  0.00000000000E+00 0. -1.
         25    2    1    2    0    0  0.24839325602E+02 -0.83372714052E+02  0.50500615846E+03  0.52746909987E+03  0.12499771876E+03 0.  0.
         23    2    1    2    0    0 -0.24839325602E+02  0.83372714052E+02  0.11689705164E+03  0.17223178092E+03  0.91819737163E+02 0.  0.
          5    1    4    4  502    0  0.21470256628E+02 -0.42003371192E+01  0.43271872176E+02  0.48715086710E+02  0.47000000000E+01 0. -1.
         -5    1    3    3    0  503 -0.45225801987E+02 -0.53264012926E+02  0.16999114263E+03  0.18385186105E+03  0.47000000000E+01 0.  1.
          5    1    3    3  503    0  0.70065127590E+02 -0.30108701126E+02  0.33501501583E+03  0.34361723882E+03  0.47000000000E+01 0.  1.
         -5    1    4    4    0  502 -0.46309582231E+02  0.87573051171E+02  0.73625179462E+02  0.12351669421E+03  0.47000000000E+01 0.  1.
<mgrwt>
<rscale>  0 0.14538380E+03</rscale>
<asrwt>0</asrwt>
<pdfrwt beam="1">  1        1 0.59844367E-02 0.15229061E+03</pdfrwt>
<pdfrwt beam="2">  1       -1 0.10166184E+00 0.15229061E+03</pdfrwt>
<totfact> 0.12389776E+03</totfact>
</mgrwt>
</event>
<event>
 8    1  0.3629925E-004  0.1377886E+03  0.7546771E-02  0.1227625E+00
         -2   -1    0    0    0  501 -0.00000000000E+00  0.00000000000E+00  0.68076242577E+02  0.68076242577E+02  0.00000000000E+00 0.  1.
          2   -1    0    0  501    0  0.00000000000E+00 -0.00000000000E+00 -0.25519926418E+03  0.25519926418E+03  0.00000000000E+00 0. -1.
         25    2    1    2    0    0 -0.26455577589E+02 -0.51583986950E+02 -0.15999337904E+03  0.21114824974E+03  0.12499958694E+03 0.  0.
         23    2    1    2    0    0  0.26455577589E+02  0.51583986950E+02 -0.27129642569E+02  0.11212725702E+03  0.92063559383E+02 0.  0.
          5    1    3    3  502    0  0.27456778383E+02 -0.40245490036E+02 -0.82380761555E+01  0.49633960614E+02  0.47000000000E+01 0.  1.
         -5    1    3    3    0  502 -0.53912355972E+02 -0.11338496914E+02 -0.15175530288E+03  0.16151428912E+03  0.47000000000E+01 0.  1.
          5    1    4    4  503    0  0.21930562095E+02  0.26118021713E+02 -0.60522205245E+02  0.69628499479E+02  0.47000000000E+01 0. -1.
         -5    1    4    4    0  503  0.45250154936E+01  0.25465965237E+02  0.33392562676E+02  0.42498757544E+02  0.47000000000E+01 0.  1.
<mgrwt>
<rscale>  0 0.12988618E+03</rscale>
<asrwt>0</asrwt>
<pdfrwt beam="1">  1        2 0.39261425E-01 0.13778861E+03</pdfrwt>
<pdfrwt beam="2">  1       -2 0.10473268E-01 0.13778861E+03</pdfrwt>
<totfact> 0.76384979E+03</totfact>
</mgrwt>
</event>
<event>
 8    1  0.3629925E-004  0.3297212E+03  0.7546771E-02  0.1072402E+00
          2   -1    0    0  501    0  0.00000000000E+00  0.00000000000E+00  0.94855308663E+03  0.94855308663E+03  0.00000000000E+00 0. -1.
         -2   -1    0    0    0  501 -0.00000000000E+00 -0.00000000000E+00 -0.12407367239E+03  0.12407367239E+03  0.00000000000E+00 0.  1.
         25    2    1    2    0    0 -0.27563165753E+03  0.13083450456E+03  0.24470391173E+03  0.41060453117E+03  0.12500239351E+03 0.  0.
         23    2    1    2    0    0  0.27563165753E+03 -0.13083450456E+03  0.57977550251E+03  0.66202222785E+03  0.95096365054E+02 0.  0.
          5    1    3    3  502    0 -0.59170963600E+02 -0.18028798954E+02  0.77064826257E+02  0.98930874711E+02  0.47000000000E+01 0.  1.
         -5    1    3    3    0  502 -0.21646069393E+03  0.14886330352E+03  0.16763908547E+03  0.31167365645E+03  0.47000000000E+01 0.  1.
          5    1    4    4  503    0  0.15540627331E+03 -0.57002223158E+02  0.40370934792E+03  0.43635271378E+03  0.47000000000E+01 0. -1.
         -5    1    4    4    0  503  0.12022538422E+03 -0.73832281407E+02  0.17606615459E+03  0.22566951407E+03  0.47000000000E+01 0.  1.
<mgrwt>
<rscale>  0 0.32715710E+03</rscale>
<asrwt>0</asrwt>
<pdfrwt beam="1">  1        2 0.14593124E+00 0.32972121E+03</pdfrwt>
<pdfrwt beam="2">  1       -2 0.19088258E-01 0.32972121E+03</pdfrwt>
<totfact> 0.64430612E+02</totfact>
</mgrwt>
</event>
<event>
 8    1  0.3629925E-004  0.1326856E+03  0.7546771E-02  0.1236293E+00
          1   -1    0    0  501    0  0.00000000000E+00  0.00000000000E+00  0.60797506884E+03  0.60797506884E+03  0.00000000000E+00 0. -1.
         -1   -1    0    0    0  501 -0.00000000000E+00 -0.00000000000E+00 -0.22647670987E+02  0.22647670987E+02  0.00000000000E+00 0.  1.
         25    2    1    2    0    0  0.36319940464E+02 -0.25706015474E+02  0.33863532577E+03  0.36370229625E+03  0.12500215651E+03 0.  0.
         23    2    1    2    0    0 -0.36319940464E+02  0.25706015474E+02  0.24669207209E+03  0.26692044358E+03  0.91703911933E+02 0.  0.
          5    1    4    4  502    0  0.65180196346E+01  0.34805453758E+02  0.19827356385E+03  0.20146563060E+03  0.47000000000E+01 0. -1.
         -5    1    3    3    0  503 -0.14464788906E+01 -0.49727206894E+02  0.30075444999E+03  0.30487737961E+03  0.47000000000E+01 0. -1.
          5    1    3    3  503    0  0.37766419355E+02  0.24021191420E+02  0.37880875776E+02  0.58824916640E+02  0.47000000000E+01 0. -1.
         -5    1    4    4    0  502 -0.42837960099E+02 -0.90994382841E+01  0.48418508240E+02  0.65454812983E+02  0.47000000000E+01 0.  1.
<mgrwt>
<rscale>  0 0.12422027E+03</rscale>
<asrwt>0</asrwt>
<pdfrwt beam="1">  1        1 0.93534614E-01 0.13268563E+03</pdfrwt>
<pdfrwt beam="2">  1       -1 0.34842575E-02 0.13268563E+03</pdfrwt>
<totfact> 0.99513897E+03</totfact>
</mgrwt>
</event>
<event>
 8    1  0.3629925E-004  0.1426462E+03  0.7546771E-02  0.1220298E+00
         -1   -1    0    0    0  501 -0.00000000000E+00  0.00000000000E+00  0.16648085309E+02  0.16648085309E+02  0.00000000000E+00 0.  1.
          1   -1    0    0  501    0  0.00000000000E+00 -0.00000000000E+00 -0.10241284388E+04  0.10241284388E+04  0.00000000000E+00 0. -1.
         25    2    1    2    0    0 -0.38535169032E+02  0.56904649097E+02 -0.65066296282E+03  0.66611578218E+03  0.12499938299E+03 0.  0.
         23    2    1    2    0    0  0.38535169032E+02 -0.56904649097E+02 -0.35681739071E+03  0.37466074197E+03  0.91262932862E+02 0.  0.
          5    1    3    3  502    0 -0.73844641529E+02  0.19621957549E+02 -0.52070272551E+03  0.52629979161E+03  0.47000000000E+01 0. -1.
         -5    1    4    4    0  503  0.88743075089E+01 -0.28508115035E+02 -0.22203571180E+02  0.37504060177E+02  0.47000000000E+01 0.  1.
          5    1    4    4  503    0  0.29660861523E+02 -0.28396534062E+02 -0.33461381953E+03  0.33715668179E+03  0.47000000000E+01 0. -1.
         -5    1    3    3    0  502  0.35309472497E+02  0.37282691548E+02 -0.12996023731E+03  0.13981599057E+03  0.47000000000E+01 0. -1.
<mgrwt>
<rscale>  0 0.13494442E+03</rscale>
<asrwt>0</asrwt>
<pdfrwt beam="1">  1        1 0.15755829E+00 0.14264622E+03</pdfrwt>
<pdfrwt beam="2">  1       -1 0.25612428E-02 0.14264622E+03</pdfrwt>
<totfact> 0.71121278E+03</totfact>
</mgrwt>
</event>
<event>
 8    1  0.3629925E-004  0.1421501E+03  0.7546771E-02  0.1221177E+00
         -1   -1    0    0    0  501 -0.00000000000E+00  0.00000000000E+00  0.39223362778E+02  0.39223362778E+02  0.00000000000E+00 0.  1.
          1   -1    0    0  501    0  0.00000000000E+00 -0.00000000000E+00 -0.41688215600E+03  0.41688215600E+03  0.00000000000E+00 0. -1.
         25    2    1    2    0    0  0.12298900879E+02 -0.66554643046E+02 -0.22028069857E+03  0.26216451884E+03  0.12500346116E+03 0.  0.
         23    2    1    2    0    0 -0.12298900879E+02  0.66554643046E+02 -0.15737809465E+03  0.19394099994E+03  0.90909093649E+02 0.  0.
          5    1    4    4  502    0  0.32644644658E+02  0.58844906437E+02 -0.96155900375E+02  0.11745826074E+03  0.47000000000E+01 0. -1.
         -5    1    3    3    0  503  0.12549765025E+02 -0.96059566620E+02 -0.10442744142E+03  0.14252058610E+03  0.47000000000E+01 0. -1.
          5    1    3    3  503    0 -0.25086414673E+00  0.29504923574E+02 -0.11585325715E+03  0.11964393274E+03  0.47000000000E+01 0. -1.
         -5    1    4    4    0  502 -0.44943545537E+02  0.77097366084E+01 -0.61222194278E+02  0.76482739205E+02  0.47000000000E+01 0.  1.
<mgrwt>
<rscale>  0 0.13432386E+03</rscale>
<asrwt>0</asrwt>
<pdfrwt beam="1">  1        1 0.64135720E-01 0.14215009E+03</pdfrwt>
<pdfrwt beam="2">  1       -1 0.60343632E-02 0.14215009E+03</pdfrwt>
<totfact> 0.72861692E+03</totfact>
</mgrwt>
</event>
<event>
 8    1  0.3629925E-004  0.1288726E+03  0.7546771E-02  0.1243339E+00
         -2   -1    0    0    0  501 -0.00000000000E+00  0.00000000000E+00  0.17793935559E+03  0.17793935559E+03  0.00000000000E+00 0.  1.
          2   -1    0    0  501    0  0.00000000000E+00 -0.00000000000E+00 -0.72278148973E+02  0.72278148973E+02  0.00000000000E+00 0. -1.
         25    2    1    2    0    0  0.16235427120E+02 -0.26821360619E+02  0.74701666089E+02  0.14895800499E+03  0.12500069542E+03 0.  0.
         23    2    1    2    0    0 -0.16235427120E+02  0.26821360619E+02  0.30959540528E+02  0.10125949957E+03  0.91170272700E+02 0.  0.
          5    1    3    3  502    0  0.44163007429E+02  0.11788939101E+02  0.87989561910E+02  0.99265317787E+02  0.47000000000E+01 0. -1.
         -5    1    3    3    0  502 -0.27927580309E+02 -0.38610299720E+02 -0.13287895821E+02  0.49692687206E+02  0.47000000000E+01 0. -1.
          5    1    4    4  503    0  0.13529826479E+02  0.50352150739E+02  0.46006903746E+00  0.52351666182E+02  0.47000000000E+01 0. -1.
         -5    1    4    4    0  503 -0.29765253599E+02 -0.23530790120E+02  0.30499471490E+02  0.48907833387E+02  0.47000000000E+01 0.  1.
<mgrwt>
<rscale>  0 0.11985374E+03</rscale>
<asrwt>0</asrwt>
<pdfrwt beam="1">  1        2 0.11119715E-01 0.12887261E+03</pdfrwt>
<pdfrwt beam="2">  1       -2 0.27375285E-01 0.12887261E+03</pdfrwt>
<totfact> 0.63955534E+03</totfact>
</mgrwt>
</event>
<event>
 8    1  0.3629925E-004  0.1465448E+03  0.7546771E-02  0.1214150E+00
          3   -1    0    0  501    0  0.00000000000E+00  0.00000000000E+00  0.71341619540E+03  0.71341619540E+03  0.00000000000E+00 0. -1.
         -3   -1    0    0    0  501 -0.00000000000E+00 -0.00000000000E+00 -0.31948349041E+02  0.31948349041E+02  0.00000000000E+00 0.  1.
         25    2    1    2    0    0  0.74497328771E+02 -0.17343065203E+02  0.19270812215E+03  0.24209875510E+03  0.12499901190E+03 0.  0.
         23    2    1    2    0    0 -0.74497328771E+02  0.17343065203E+02  0.48875972421E+03  0.50326578934E+03  0.92410782943E+02 0.  0.
          5    1    3    3  502    0 -0.32559161035E+02 -0.17974762551E+02  0.68211704003E+02  0.77833910470E+02  0.47000000000E+01 0.  1.
         -5    1    3    3    0  502  0.10705648981E+03  0.63169734745E+00  0.12449641815E+03  0.16426484463E+03  0.47000000000E+01 0.  1.
          5    1    4    4  503    0 -0.67733426626E+02 -0.12319060953E+02  0.44152610906E+03  0.44688585940E+03  0.47000000000E+01 0. -1.
         -5    1    4    4    0  503 -0.67639021442E+01  0.29662126156E+02  0.47233615148E+02  0.56379929942E+02  0.47000000000E+01 0.  1.
<mgrwt>
<rscale>  0 0.13939171E+03</rscale>
<asrwt>0</asrwt>
<pdfrwt beam="1">  1        3 0.10975633E+00 0.14654483E+03</pdfrwt>
<pdfrwt beam="2">  1       -3 0.49151312E-02 0.14654483E+03</pdfrwt>
<totfact> 0.40251149E+02</totfact>
</mgrwt>
</event>
<event>
 8    1  0.3629925E-004  0.2225091E+03  0.7546771E-02  0.1135355E+00
          2   -1    0    0  501    0  0.00000000000E+00  0.00000000000E+00  0.18160978823E+04  0.18160978823E+04  0.00000000000E+00 0.  1.
         -2   -1    0    0    0  501 -0.00000000000E+00 -0.00000000000E+00 -0.25192090585E+02  0.25192090585E+02  0.00000000000E+00 0. -1.
         25    2    1    2    0    0  0.14915110222E+02 -0.18346972645E+03  0.95456746408E+03  0.98015782316E+03  0.12500685491E+03 0.  0.
         23    2    1    2    0    0 -0.14915110222E+02  0.18346972645E+03  0.83633832760E+03  0.86113214970E+03  0.90571408220E+02 0.  0.
          5    1    3    3  502    0  0.59528997288E+02 -0.43675427049E+02  0.37957565551E+03  0.38671826011E+03  0.47000000000E+01 0.  1.
         -5    1    4    4    0  503 -0.46061177227E+02  0.63814198686E+02  0.26143139220E+03  0.27306106795E+03  0.47000000000E+01 0.  1.
          5    1    4    4  503    0  0.31146067005E+02  0.11965552777E+03  0.57490693540E+03  0.58807108175E+03  0.47000000000E+01 0. -1.
         -5    1    3    3    0  502 -0.44613887067E+02 -0.13979429941E+03  0.57499180857E+03  0.59343956304E+03  0.47000000000E+01 0.  1.
<mgrwt>
<rscale>  0 0.21803645E+03</rscale>
<asrwt>0</asrwt>
<pdfrwt beam="1">  1        2 0.27939957E+00 0.22250913E+03</pdfrwt>
<pdfrwt beam="2">  1       -2 0.38757077E-02 0.22250913E+03</pdfrwt>
<totfact> 0.26774002E+03</totfact>
</mgrwt>
</event>
<event>
 8    1  0.3629925E-004  0.1488552E+03  0.7546771E-02  0.1210931E+00
         -2   -1    0    0    0  501 -0.00000000000E+00  0.00000000000E+00  0.22187484531E+02  0.22187484531E+02  0.00000000000E+00 0. -1.
          2   -1    0    0  501    0  0.00000000000E+00 -0.00000000000E+00 -0.89815469784E+03  0.89815469784E+03  0.00000000000E+00 0.  1.
         25    2    1    2    0    0  0.18982659452E+02 -0.78564622707E+02 -0.60331902332E+03  0.62141106010E+03  0.12500048162E+03 0.  0.
         23    2    1    2    0    0 -0.18982659452E+02  0.78564622707E+02 -0.27264818999E+03  0.29893112228E+03  0.92141407957E+02 0.  0.
          5    1    3    3  502    0 -0.39523076378E+01 -0.10963781370E+03 -0.45705567141E+03  0.47006174882E+03  0.47000000000E+01 0. -1.
         -5    1    4    4    0  503  0.11702772780E+02  0.27349246230E+02 -0.21042368154E+03  0.21256799363E+03  0.47000000000E+01 0.  1.
          5    1    4    4  503    0 -0.30685432232E+02  0.51215376478E+02 -0.62224508445E+02  0.86363128650E+02  0.47000000000E+01 0. -1.
         -5    1    3    3    0  502  0.22934967090E+02  0.31073190989E+02 -0.14626335191E+03  0.15134931128E+03  0.47000000000E+01 0. -1.
<mgrwt>
<rscale>  0 0.14179690E+03</rscale>
<asrwt>0</asrwt>
<pdfrwt beam="1">  1        2 0.13817766E+00 0.14885517E+03</pdfrwt>
<pdfrwt beam="2">  1       -2 0.34134588E-02 0.14885517E+03</pdfrwt>
<totfact> 0.10281777E+04</totfact>
</mgrwt>
</event>
<event>
 8    1  0.3629925E-004  0.1279663E+03  0.7546771E-02  0.1245055E+00
          4   -1    0    0  501    0  0.00000000000E+00  0.00000000000E+00  0.33472756251E+03  0.33472756251E+03  0.00000000000E+00 0. -1.
         -4   -1    0    0    0  501 -0.00000000000E+00 -0.00000000000E+00 -0.37434600791E+02  0.37434600791E+02  0.00000000000E+00 0.  1.
         25    2    1    2    0    0 -0.11681100910E+02 -0.24775477909E+02  0.15493744114E+03  0.20095017606E+03  0.12500036067E+03 0.  0.
         23    2    1    2    0    0  0.11681100910E+02  0.24775477909E+02  0.14235552058E+03  0.17121198724E+03  0.91094335229E+02 0.  0.
          5    1    3    3  502    0  0.64560170035E+01 -0.65178077170E+02  0.13885632406E+03  0.15360022992E+03  0.47000000000E+01 0.  1.
         -5    1    4    4    0  503  0.30991385336E+02  0.49224344981E+02  0.63231228878E+02  0.86045223047E+02  0.47000000000E+01 0.  1.
          5    1    4    4  503    0 -0.19310284426E+02 -0.24448867071E+02  0.79124291702E+02  0.85166764192E+02  0.47000000000E+01 0. -1.
         -5    1    3    3    0  502 -0.18137117913E+02  0.40402599261E+02  0.16081117075E+02  0.47349946141E+02  0.47000000000E+01 0.  1.
<mgrwt>
<rscale>  0 0.11882105E+03</rscale>
<asrwt>0</asrwt>
<pdfrwt beam="1">  1        4 0.51496546E-01 0.12796626E+03</pdfrwt>
<pdfrwt beam="2">  1       -4 0.57591696E-02 0.12796626E+03</pdfrwt>
<totfact> 0.11296592E+03</totfact>
</mgrwt>
</event>
<event>
 8    1  0.3629925E-004  0.1300101E+03  0.7546771E-02  0.1241069E+00
         -1   -1    0    0    0  501 -0.00000000000E+00  0.00000000000E+00  0.23615040908E+03  0.23615040908E+03  0.00000000000E+00 0.  1.
          1   -1    0    0  501    0  0.00000000000E+00 -0.00000000000E+00 -0.55605352845E+02  0.55605352845E+02  0.00000000000E+00 0. -1.
         25    2    1    2    0    0  0.24877831533E+02  0.25667641489E+02  0.90227377970E+02  0.15825170195E+03  0.12499954846E+03 0.  0.
         23    2    1    2    0    0 -0.24877831533E+02 -0.25667641489E+02  0.90317678262E+02  0.13350405997E+03  0.91587754095E+02 0.  0.
          5    1    3    3  502    0  0.42650782149E+01  0.52819834101E+02 -0.83403021834E+01  0.53849572024E+02  0.47000000000E+01 0.  1.
         -5    1    3    3    0  502  0.20612753318E+02 -0.27152192612E+02  0.98567680153E+02  0.10440212993E+03  0.47000000000E+01 0.  1.
          5    1    4    4  503    0 -0.49558037663E+02 -0.41150521475E+02  0.42509195904E+02  0.77320671564E+02  0.47000000000E+01 0. -1.
         -5    1    4    4    0  503  0.24680206130E+02  0.15482879986E+02  0.47808482359E+02  0.56183388405E+02  0.47000000000E+01 0.  1.
<mgrwt>
<rscale>  0 0.12123804E+03</rscale>
<asrwt>0</asrwt>
<pdfrwt beam="1">  1        1 0.85546698E-02 0.13001008E+03</pdfrwt>
<pdfrwt beam="2">  1       -1 0.36330832E-01 0.13001008E+03</pdfrwt>
<totfact> 0.55140720E+03</totfact>
</mgrwt>
</event>
<event>
 8    1  0.3629925E-004  0.1319189E+03  0.7546771E-02  0.1237853E+00
         -1   -1    0    0    0  501 -0.00000000000E+00  0.00000000000E+00  0.11768287202E+02  0.11768287202E+02  0.00000000000E+00 0.  1.
          1   -1    0    0  501    0  0.00000000000E+00 -0.00000000000E+00 -0.11472865187E+04  0.11472865187E+04  0.00000000000E+00 0. -1.
         25    2    1    2    0    0  0.41159666149E+02  0.90962198213E+01 -0.63985865545E+03  0.65331592012E+03  0.12500293276E+03 0.  0.
         23    2    1    2    0    0 -0.41159666149E+02 -0.90962198213E+01 -0.49565957608E+03  0.50573888581E+03  0.91195098166E+02 0.  0.
          5    1    4    4  502    0 -0.17088322308E+02  0.38601943242E+02 -0.29469187224E+03  0.29773731769E+03  0.47000000000E+01 0. -1.
         -5    1    4    4    0  502 -0.24071343841E+02 -0.47698163064E+02 -0.20096770384E+03  0.20800156812E+03  0.47000000000E+01 0.  1.
          5    1    3    3  503    0 -0.24980676535E+01 -0.52954139192E+02 -0.20121778013E+03  0.20813713325E+03  0.47000000000E+01 0.  1.
         -5    1    3    3    0  503  0.43657733803E+02  0.62050359013E+02 -0.43864087532E+03  0.44517878687E+03  0.47000000000E+01 0.  1.
<mgrwt>
<rscale>  0 0.12323525E+03</rscale>
<asrwt>0</asrwt>
<pdfrwt beam="1">  1        1 0.17650568E+00 0.13191889E+03</pdfrwt>
<pdfrwt beam="2">  1       -1 0.18105050E-02 0.13191889E+03</pdfrwt>
<totfact> 0.95657675E+03</totfact>
</mgrwt>
</event>
<event>
 8    1  0.3629925E-004  0.1250987E+03  0.7546771E-02  0.1244877E+00
         -2   -1    0    0    0  501 -0.00000000000E+00  0.00000000000E+00  0.32057746905E+03  0.32057746905E+03  0.00000000000E+00 0.  1.
          2   -1    0    0  501    0  0.00000000000E+00 -0.00000000000E+00 -0.40404317693E+02  0.40404317693E+02  0.00000000000E+00 0. -1.
         25    2    1    2    0    0  0.61807923917E+00 -0.48655052758E+01  0.14436555073E+03  0.19102646248E+03  0.12500256784E+03 0.  0.
         23    2    1    2    0    0 -0.61807923917E+00  0.48655052758E+01  0.13580760063E+03  0.16995532426E+03  0.10206396374E+03 0.  0.
          5    1    4    4  502    0 -0.49115447489E+02  0.85549089102E+01  0.89916888208E+02  0.10292060257E+03  0.47000000000E+01 0. -1.
         -5    1    3    3    0  503  0.12573773170E+02  0.36231319805E+02 -0.17709984806E+01  0.38678608327E+02  0.47000000000E+01 0.  1.
          5    1    3    3  503    0 -0.11955693931E+02 -0.41096825081E+02  0.14613654921E+03  0.15234785415E+03  0.47000000000E+01 0.  1.
         -5    1    4    4    0  502  0.48497368250E+02 -0.36894036344E+01  0.45890712418E+02  0.67034721694E+02  0.47000000000E+01 0.  1.
<mgrwt>
<rscale>  0 0.11892771E+03</rscale>
<asrwt>0</asrwt>
<pdfrwt beam="1">  1        2 0.62160491E-02 0.12509875E+03</pdfrwt>
<pdfrwt beam="2">  1       -2 0.49319609E-01 0.12509875E+03</pdfrwt>
<totfact> 0.44012622E+03</totfact>
</mgrwt>
</event>
<event>
 8    1  0.3629925E-004  0.1445111E+03  0.7546771E-02  0.1217826E+00
         -2   -1    0    0    0  501 -0.00000000000E+00  0.00000000000E+00  0.23120211021E+03  0.23120211021E+03  0.00000000000E+00 0.  1.
          2   -1    0    0  501    0  0.00000000000E+00 -0.00000000000E+00 -0.87643231226E+02  0.87643231226E+02  0.00000000000E+00 0. -1.
         25    2    1    2    0    0  0.14127257171E+02 -0.71121941488E+02  0.14109994631E+02  0.14519829170E+03  0.12500216801E+03 0.  0.
         23    2    1    2    0    0 -0.14127257171E+02  0.71121941488E+02  0.12944888435E+03  0.17364704974E+03  0.90212938468E+02 0.  0.
          5    1    4    4  502    0 -0.36157538077E+01  0.50444082489E+02  0.98612270504E+01  0.51739858259E+02  0.47000000000E+01 0. -1.
         -5    1    3    3    0  503 -0.11252840600E+02 -0.30011482875E+02 -0.53154278981E+02  0.62247754176E+02  0.47000000000E+01 0.  1.
          5    1    3    3  503    0  0.25380097771E+02 -0.41110458613E+02  0.67264273612E+02  0.82950537520E+02  0.47000000000E+01 0.  1.
         -5    1    4    4    0  502 -0.10511503364E+02  0.20677859000E+02  0.11958765730E+03  0.12190719148E+03  0.47000000000E+01 0.  1.
<mgrwt>
<rscale>  0 0.13670957E+03</rscale>
<asrwt>0</asrwt>
<pdfrwt beam="1">  1        2 0.13483574E-01 0.14451108E+03</pdfrwt>
<pdfrwt beam="2">  1       -2 0.35569555E-01 0.14451108E+03</pdfrwt>
<totfact> 0.31828860E+03</totfact>
</mgrwt>
</event>
<event>
 8    1  0.3629925E-004  0.1455113E+03  0.7546771E-02  0.1214168E+00
         -1   -1    0    0    0  501 -0.00000000000E+00  0.00000000000E+00  0.41687992439E+02  0.41687992439E+02  0.00000000000E+00 0.  1.
          1   -1    0    0  501    0  0.00000000000E+00 -0.00000000000E+00 -0.52059706788E+03  0.52059706788E+03  0.00000000000E+00 0. -1.
         25    2    1    2    0    0 -0.33303379620E+02 -0.66633794559E+02 -0.14001386964E+03  0.20193421590E+03  0.12499746473E+03 0.  0.
         23    2    1    2    0    0  0.33303379620E+02  0.66633794559E+02 -0.33889520580E+03  0.36035084441E+03  0.97229588529E+02 0.  0.
          5    1    4    4  502    0  0.20435366274E+02  0.32903628119E+02 -0.31360438688E+03  0.31602223720E+03  0.47000000000E+01 0. -1.
         -5    1    4    4    0  502  0.12868013345E+02  0.33730166440E+02 -0.25290818918E+02  0.44328607209E+02  0.47000000000E+01 0.  1.
          5    1    3    3  503    0 -0.13646211988E+02 -0.20727892695E+02 -0.14887233990E+03  0.15099976233E+03  0.47000000000E+01 0. -1.
         -5    1    3    3    0  503 -0.19657167632E+02 -0.45905901864E+02  0.88584702593E+01  0.50934453571E+02  0.47000000000E+01 0. -1.
<mgrwt>
<rscale>  0 0.13937793E+03</rscale>
<asrwt>0</asrwt>
<pdfrwt beam="1">  1        1 0.80091850E-01 0.14551132E+03</pdfrwt>
<pdfrwt beam="2">  1       -1 0.64135379E-02 0.14551132E+03</pdfrwt>
<totfact> 0.49996749E+03</totfact>
</mgrwt>
</event>
<event>
 8    1  0.3629925E-004  0.1322946E+03  0.7546771E-02  0.1238736E+00
         -1   -1    0    0    0  501 -0.00000000000E+00  0.00000000000E+00  0.29765294454E+02  0.29765294454E+02  0.00000000000E+00 0.  1.
          1   -1    0    0  501    0  0.00000000000E+00 -0.00000000000E+00 -0.49308333185E+03  0.49308333185E+03  0.00000000000E+00 0. -1.
         25    2    1    2    0    0  0.41722847178E+02 -0.11669645266E+02 -0.34390307438E+03  0.36847140455E+03  0.12499949921E+03 0.  0.
         23    2    1    2    0    0 -0.41722847178E+02  0.11669645266E+02 -0.11941496301E+03  0.15437722175E+03  0.87723523686E+02 0.  0.
          5    1    3    3  502    0 -0.17537548029E+02  0.42598079645E+02 -0.78593666754E+02  0.91220701785E+02  0.47000000000E+01 0. -1.
         -5    1    4    4    0  503 -0.48465626640E+02 -0.11220956491E+02 -0.23120634182E+02  0.55058882618E+02  0.47000000000E+01 0.  1.
          5    1    4    4  503    0  0.67427794621E+01  0.22890601758E+02 -0.96294328830E+02  0.99318339135E+02  0.47000000000E+01 0. -1.
         -5    1    3    3    0  502  0.59260395207E+02 -0.54267724911E+02 -0.26530940763E+03  0.27725070277E+03  0.47000000000E+01 0. -1.
<mgrwt>
<rscale>  0 0.12268291E+03</rscale>
<asrwt>0</asrwt>
<pdfrwt beam="1">  1        1 0.75858971E-01 0.13229456E+03</pdfrwt>
<pdfrwt beam="2">  1       -1 0.45792762E-02 0.13229456E+03</pdfrwt>
<totfact> 0.88026003E+03</totfact>
</mgrwt>
</event>
<event>
 8    1  0.3629925E-004  0.1377535E+03  0.7546771E-02  0.1224379E+00
         -1   -1    0    0    0  501 -0.00000000000E+00  0.00000000000E+00  0.38495392641E+02  0.38495392641E+02  0.00000000000E+00 0.  1.
          1   -1    0    0  501    0  0.00000000000E+00 -0.00000000000E+00 -0.61896461645E+03  0.61896461645E+03  0.00000000000E+00 0. -1.
         25    2    1    2    0    0 -0.18966468394E+02 -0.54691427353E+02 -0.49275748565E+03  0.51165024155E+03  0.12500060344E+03 0.  0.
         23    2    1    2    0    0  0.18966468394E+02  0.54691427353E+02 -0.87711738152E+02  0.14580976754E+03  0.10107551707E+03 0.  0.
          5    1    3    3  502    0  0.26258001229E+02  0.28406749248E+02 -0.93211658778E+02  0.10102934902E+03  0.47000000000E+01 0.  1.
         -5    1    3    3    0  502 -0.45224469622E+02 -0.83098176601E+02 -0.39954582687E+03  0.41062089253E+03  0.47000000000E+01 0.  1.
          5    1    4    4  503    0  0.23363156522E+02  0.76787937359E+02 -0.33848213733E+02  0.87235405538E+02  0.47000000000E+01 0. -1.
         -5    1    4    4    0  503 -0.43966881282E+01 -0.22096510006E+02 -0.53863524419E+02  0.58574362001E+02  0.47000000000E+01 0.  1.
<mgrwt>
<rscale>  0 0.13209551E+03</rscale>
<asrwt>0</asrwt>
<pdfrwt beam="1">  1        1 0.95225334E-01 0.13775351E+03</pdfrwt>
<pdfrwt beam="2">  1       -1 0.59223676E-02 0.13775351E+03</pdfrwt>
<totfact> 0.44505835E+03</totfact>
</mgrwt>
</event>
<event>
 8    1  0.3629925E-004  0.1377027E+03  0.7546771E-02  0.1227774E+00
         -1   -1    0    0    0  501 -0.00000000000E+00  0.00000000000E+00  0.15905206342E+02  0.15905206342E+02  0.00000000000E+00 0.  1.
          1   -1    0    0  501    0  0.00000000000E+00 -0.00000000000E+00 -0.10539420650E+04  0.10539420650E+04  0.00000000000E+00 0. -1.
         25    2    1    2    0    0 -0.32692809238E+01 -0.57680909627E+02 -0.41072970591E+03  0.43319847192E+03  0.12499699684E+03 0.  0.
         23    2    1    2    0    0  0.32692809238E+01  0.57680909627E+02 -0.62730715272E+03  0.63664879940E+03  0.92030725255E+02 0.  0.
          5    1    4    4  502    0  0.28105894191E+02  0.54754954318E+02 -0.57680260625E+03  0.58009601179E+03  0.47000000000E+01 0. -1.
         -5    1    3    3    0  503  0.51284589631E+02 -0.15810736362E+02 -0.28275090996E+03  0.28783720329E+03  0.47000000000E+01 0.  1.
          5    1    3    3  503    0 -0.54553870554E+02 -0.41870173265E+02 -0.12797879595E+03  0.14536126862E+03  0.47000000000E+01 0.  1.
         -5    1    4    4    0  502 -0.24836613267E+02  0.29259553086E+01 -0.50504546469E+02  0.56552787615E+02  0.47000000000E+01 0.  1.
<mgrwt>
<rscale>  0 0.12978550E+03</rscale>
<asrwt>0</asrwt>
<pdfrwt beam="1">  1        1 0.16214495E+00 0.13770267E+03</pdfrwt>
<pdfrwt beam="2">  1       -1 0.24469546E-02 0.13770267E+03</pdfrwt>
<totfact> 0.72199483E+03</totfact>
</mgrwt>
</event>
<event>
 8    1  0.3629925E-004  0.1821375E+03  0.7546771E-02  0.1171341E+00
          2   -1    0    0  501    0  0.00000000000E+00  0.00000000000E+00  0.14487805769E+04  0.14487805769E+04  0.00000000000E+00 0.  1.
         -2   -1    0    0    0  501 -0.00000000000E+00 -0.00000000000E+00 -0.21194537795E+02  0.21194537795E+02  0.00000000000E+00 0. -1.
         25    2    1    2    0    0 -0.49095098793E+02 -0.12304129182E+03  0.91422792766E+03  0.93219460933E+03  0.12499839091E+03 0.  0.
         23    2    1    2    0    0  0.49095098793E+02  0.12304129182E+03  0.51335811144E+03  0.53778050536E+03  0.90121213624E+02 0.  0.
          5    1    4    4  502    0  0.44809069332E+02  0.58751507863E+02  0.13521314614E+03  0.15415666466E+03  0.47000000000E+01 0. -1.
         -5    1    4    4    0  502  0.42860294609E+01  0.64289783960E+02  0.37814496531E+03  0.38362384070E+03  0.47000000000E+01 0.  1.
          5    1    3    3  503    0 -0.66028888894E+02 -0.14097238113E+03  0.82123150272E+03  0.83586858864E+03  0.47000000000E+01 0.  1.
         -5    1    3    3    0  503  0.16933790102E+02  0.17931089305E+02  0.92996424941E+02  0.96326020694E+02  0.47000000000E+01 0.  1.
<mgrwt>
<rscale>  0 0.17639271E+03</rscale>
<asrwt>0</asrwt>
<pdfrwt beam="1">  1        2 0.22288924E+00 0.18213755E+03</pdfrwt>
<pdfrwt beam="2">  1       -2 0.32606993E-02 0.18213755E+03</pdfrwt>
<totfact> 0.53896841E+03</totfact>
</mgrwt>
</event>
<event>
 8    1  0.3629925E-004  0.1503275E+03  0.7546771E-02  0.1208538E+00
          2   -1    0    0  501    0  0.00000000000E+00  0.00000000000E+00  0.42038114257E+03  0.42038114257E+03  0.00000000000E+00 0. -1.
         -2   -1    0    0    0  501 -0.00000000000E+00 -0.00000000000E+00 -0.50500030083E+02  0.50500030083E+02  0.00000000000E+00 0.  1.
         25    2    1    2    0    0 -0.73690076986E+02 -0.39291725109E+02  0.12372495159E+03  0.19469523274E+03  0.12499721156E+03 0.  0.
         23    2    1    2    0    0  0.73690076986E+02  0.39291725109E+02  0.24615616090E+03  0.27618593992E+03  0.93336759899E+02 0.  0.
          5    1    4    4  502    0  0.47448781459E+01  0.53616272490E+02  0.12070401164E+03  0.13224510187E+03  0.47000000000E+01 0. -1.
         -5    1    4    4    0  502  0.68945198840E+02 -0.14324547382E+02  0.12545214927E+03  0.14394083804E+03  0.47000000000E+01 0.  1.
          5    1    3    3  503    0  0.14383542640E+02 -0.54280103823E+02  0.71740441667E+02  0.91224979805E+02  0.47000000000E+01 0.  1.
         -5    1    3    3    0  503 -0.88073619627E+02  0.14988378714E+02  0.51984509918E+02  0.10347025293E+03  0.47000000000E+01 0.  1.
<mgrwt>
<rscale>  0 0.14362079E+03</rscale>
<asrwt>0</asrwt>
<pdfrwt beam="1">  1        2 0.64674020E-01 0.15032754E+03</pdfrwt>
<pdfrwt beam="2">  1       -2 0.77692357E-02 0.15032754E+03</pdfrwt>
<totfact> 0.71954598E+03</totfact>
</mgrwt>
</event>
<event>
 8    1  0.3629925E-004  0.1331593E+03  0.7546771E-02  0.1235578E+00
         -4   -1    0    0    0  501 -0.00000000000E+00  0.00000000000E+00  0.24588453431E+03  0.24588453431E+03  0.00000000000E+00 0.  1.
          4   -1    0    0  501    0  0.00000000000E+00 -0.00000000000E+00 -0.66497666955E+02  0.66497666955E+02  0.00000000000E+00 0. -1.
         25    2    1    2    0    0 -0.41945276778E+02  0.18601580016E+02  0.16012004856E+03  0.20825421188E+03  0.12500384710E+03 0.  0.
         23    2    1    2    0    0  0.41945276778E+02 -0.18601580016E+02  0.19266818796E+02  0.10412798939E+03  0.91465856169E+02 0.  0.
          5    1    3    3  502    0  0.18914972314E+02  0.56406124227E+02  0.89287651261E+02  0.10739553853E+03  0.47000000000E+01 0. -1.
         -5    1    4    4    0  503  0.64523538841E+02 -0.15124716188E+02  0.35865604762E+02  0.75501494749E+02  0.47000000000E+01 0.  1.
          5    1    4    4  503    0 -0.22578262063E+02 -0.34768638283E+01 -0.16598785966E+02  0.28626494641E+02  0.47000000000E+01 0. -1.
         -5    1    3    3    0  502 -0.60860249092E+02 -0.37804544210E+02  0.70832397301E+02  0.10085867335E+03  0.47000000000E+01 0. -1.
<mgrwt>
<rscale>  0 0.12467496E+03</rscale>
<asrwt>0</asrwt>
<pdfrwt beam="1">  1        4 0.10230410E-01 0.13315925E+03</pdfrwt>
<pdfrwt beam="2">  1       -4 0.37828390E-01 0.13315925E+03</pdfrwt>
<totfact> 0.81659315E+02</totfact>
</mgrwt>
</event>
<event>
 8    1  0.3629925E-004  0.1383118E+03  0.7546771E-02  0.1227467E+00
          1   -1    0    0  501    0  0.00000000000E+00  0.00000000000E+00  0.11515605092E+03  0.11515605092E+03  0.00000000000E+00 0. -1.
         -1   -1    0    0    0  501 -0.00000000000E+00 -0.00000000000E+00 -0.19549128866E+03  0.19549128866E+03  0.00000000000E+00 0.  1.
         25    2    1    2    0    0  0.58696959720E+02 -0.75264330624E+01 -0.13182936325E+03  0.19107366315E+03  0.12501273318E+03 0.  0.
         23    2    1    2    0    0 -0.58696959720E+02  0.75264330624E+01  0.51494125509E+02  0.11957367643E+03  0.90245436770E+02 0.  0.
          5    1    4    4  502    0  0.16887724881E+02  0.14247275251E+02  0.35190760771E+02  0.41816979176E+02  0.47000000000E+01 0. -1.
         -5    1    3    3    0  503 -0.32232508053E+01  0.51569396585E+02 -0.59210664178E+02  0.78726010710E+02  0.47000000000E+01 0.  1.
          5    1    3    3  503    0  0.61920210525E+02 -0.59095829647E+02 -0.72618699073E+02  0.11234765244E+03  0.47000000000E+01 0.  1.
         -5    1    4    4    0  502 -0.75584684601E+02 -0.67208421889E+01  0.16303364738E+02  0.77756697253E+02  0.47000000000E+01 0.  1.
<mgrwt>
<rscale>  0 0.12999230E+03</rscale>
<asrwt>0</asrwt>
<pdfrwt beam="1">  1        1 0.17716316E-01 0.13831184E+03</pdfrwt>
<pdfrwt beam="2">  1       -1 0.30075583E-01 0.13831184E+03</pdfrwt>
<totfact> 0.29429526E+03</totfact>
</mgrwt>
</event>
<event>
 8    1  0.3629925E-004  0.1728325E+03  0.7546771E-02  0.1181453E+00
         -1   -1    0    0    0  501 -0.00000000000E+00  0.00000000000E+00  0.73807830347E+02  0.73807830347E+02  0.00000000000E+00 0.  1.
          1   -1    0    0  501    0  0.00000000000E+00 -0.00000000000E+00 -0.36485239959E+03  0.36485239959E+03  0.00000000000E+00 0. -1.
         25    2    1    2    0    0 -0.69524563594E+02  0.97025859461E+02 -0.11351995001E+03  0.20677971609E+03  0.12499355819E+03 0.  0.
         23    2    1    2    0    0  0.69524563594E+02 -0.97025859461E+02 -0.17752461923E+03  0.23188051385E+03  0.89475694589E+02 0.  0.
          5    1    4    4  502    0  0.28109657556E+02 -0.27995936260E+01 -0.96925068399E+02  0.10106705426E+03  0.47000000000E+01 0. -1.
         -5    1    3    3    0  503 -0.81376949037E+02  0.61780731356E+02 -0.13035557923E+03  0.16569168247E+03  0.47000000000E+01 0. -1.
          5    1    3    3  503    0  0.11852385443E+02  0.35245128105E+02  0.16835629219E+02  0.41088033623E+02  0.47000000000E+01 0. -1.
         -5    1    4    4    0  502  0.41414906039E+02 -0.94226265835E+02 -0.80599550831E+02  0.13081345959E+03  0.47000000000E+01 0.  1.
<mgrwt>
<rscale>  0 0.16658813E+03</rscale>
<asrwt>0</asrwt>
<pdfrwt beam="1">  1        1 0.56131138E-01 0.17283250E+03</pdfrwt>
<pdfrwt beam="2">  1       -1 0.11355051E-01 0.17283250E+03</pdfrwt>
<totfact> 0.33374506E+03</totfact>
</mgrwt>
</event>
<event>
 8    1  0.3629925E-004  0.2214666E+03  0.7546771E-02  0.1135980E+00
          1   -1    0    0  501    0  0.00000000000E+00  0.00000000000E+00  0.19612381346E+04  0.19612381346E+04  0.00000000000E+00 0. -1.
         -1   -1    0    0    0  501 -0.00000000000E+00 -0.00000000000E+00 -0.26916977080E+02  0.26916977080E+02  0.00000000000E+00 0.  1.
         25    2    1    2    0    0  0.14455174979E+03 -0.11192360070E+03  0.13698459671E+04  0.13876330345E+04  0.12500145677E+03 0.  0.
         23    2    1    2    0    0 -0.14455174979E+03  0.11192360070E+03  0.56447519047E+03  0.60052207719E+03  0.92587384562E+02 0.  0.
          5    1    4    4  502    0 -0.37182901439E+02 -0.13395814357E+02  0.11400949213E+03  0.12075707142E+03  0.47000000000E+01 0. -1.
         -5    1    3    3    0  503  0.20243048420E+02 -0.58103496662E+02  0.18412670427E+03  0.19419199407E+03  0.47000000000E+01 0. -1.
          5    1    3    3  503    0  0.12430870137E+03 -0.53820104034E+02  0.11857192628E+04  0.11934410404E+04  0.47000000000E+01 0. -1.
         -5    1    4    4    0  502 -0.10736884835E+03  0.12531941505E+03  0.45046569834E+03  0.47976500577E+03  0.47000000000E+01 0.  1.
<mgrwt>
<rscale>  0 0.21721024E+03</rscale>
<asrwt>0</asrwt>
<pdfrwt beam="1">  1        1 0.30172883E+00 0.22146662E+03</pdfrwt>
<pdfrwt beam="2">  1       -1 0.41410749E-02 0.22146662E+03</pdfrwt>
<totfact> 0.83919742E+02</totfact>
</mgrwt>
</event>
<event>
 8    1  0.3629925E-004  0.1257544E+03  0.7546771E-02  0.1248654E+00
         -1   -1    0    0    0  501 -0.00000000000E+00  0.00000000000E+00  0.12510175455E+02  0.12510175455E+02  0.00000000000E+00 0.  1.
          1   -1    0    0  501    0  0.00000000000E+00 -0.00000000000E+00 -0.10216121432E+04  0.10216121432E+04  0.00000000000E+00 0. -1.
         25    2    1    2    0    0 -0.33053036643E+01 -0.13367842143E+02 -0.44755857372E+03  0.46489013312E+03  0.12499813889E+03 0.  0.
         23    2    1    2    0    0  0.33053036643E+01  0.13367842143E+02 -0.56154339399E+03  0.56923218550E+03  0.92220786370E+02 0.  0.
          5    1    3    3  502    0 -0.49499295527E+02 -0.10546001670E+02 -0.37678279889E+03  0.38019569428E+03  0.47000000000E+01 0.  1.
         -5    1    4    4    0  503  0.33345083181E+02  0.38075775554E+02 -0.24091466293E+03  0.24621865094E+03  0.47000000000E+01 0.  1.
          5    1    4    4  503    0 -0.30039779516E+02 -0.24707933412E+02 -0.32062873106E+03  0.32301353456E+03  0.47000000000E+01 0. -1.
         -5    1    3    3    0  502  0.46193991863E+02 -0.28218404724E+01 -0.70775774828E+02  0.84694438840E+02  0.47000000000E+01 0.  1.
<mgrwt>
<rscale>  0 0.11669348E+03</rscale>
<asrwt>0</asrwt>
<pdfrwt beam="1">  1        1 0.15717114E+00 0.12575436E+03</pdfrwt>
<pdfrwt beam="2">  1       -1 0.19246419E-02 0.12575436E+03</pdfrwt>
<totfact> 0.10720707E+04</totfact>
</mgrwt>
</event>
<event>
 8    1  0.3629925E-004  0.1702389E+03  0.7546771E-02  0.1184970E+00
          1   -1    0    0  501    0  0.00000000000E+00  0.00000000000E+00  0.14252280412E+04  0.14252280412E+04  0.00000000000E+00 0.  1.
         -1   -1    0    0    0  501 -0.00000000000E+00 -0.00000000000E+00 -0.20746920870E+02  0.20746920870E+02  0.00000000000E+00 0. -1.
         25    2    1    2    0    0  0.11509531027E+03  0.10413930380E+02  0.10422235921E+04  0.10560356587E+04  0.12500366448E+03 0.  0.
         23    2    1    2    0    0 -0.11509531027E+03 -0.10413930380E+02  0.36225752824E+03  0.38993930337E+03  0.86410434317E+02 0.  0.
          5    1    4    4  502    0 -0.49532012353E+02 -0.17872185720E+02  0.57605950571E+02  0.78188047753E+02  0.47000000000E+01 0. -1.
         -5    1    3    3    0  503  0.82529321886E+02  0.64989936505E+02  0.71150702327E+03  0.71923509020E+03  0.47000000000E+01 0. -1.
          5    1    3    3  503    0  0.32565988379E+02 -0.54576006125E+02  0.33071656881E+03  0.33680056848E+03  0.47000000000E+01 0. -1.
         -5    1    4    4    0  502 -0.65563297912E+02  0.74582553402E+01  0.30465157767E+03  0.31175125562E+03  0.47000000000E+01 0.  1.
<mgrwt>
<rscale>  0 0.16334651E+03</rscale>
<asrwt>0</asrwt>
<pdfrwt beam="1">  1        1 0.21926578E+00 0.17023894E+03</pdfrwt>
<pdfrwt beam="2">  1       -1 0.31918351E-02 0.17023894E+03</pdfrwt>
<totfact> 0.27505244E+03</totfact>
</mgrwt>
</event>
<event>
 8    1  0.3629925E-004  0.1295091E+03  0.7546771E-02  0.1241941E+00
          2   -1    0    0  501    0  0.00000000000E+00  0.00000000000E+00  0.55196969648E+03  0.55196969648E+03  0.00000000000E+00 0.  1.
         -2   -1    0    0    0  501 -0.00000000000E+00 -0.00000000000E+00 -0.23657267309E+02  0.23657267309E+02  0.00000000000E+00 0. -1.
         25    2    1    2    0    0 -0.13031571528E+02 -0.31211420545E+02  0.27014004729E+03  0.29958012227E+03  0.12501451867E+03 0.  0.
         23    2    1    2    0    0  0.13031571528E+02  0.31211420545E+02  0.25817238188E+03  0.27604684152E+03  0.91678270700E+02 0.  0.
          5    1    3    3  502    0  0.17225361143E+02 -0.24931375121E+02  0.32177520348E+01  0.30833917365E+02  0.47000000000E+01 0.  1.
         -5    1    4    4    0  503  0.40820565503E+02  0.49048276731E+02  0.18092846253E+03  0.19190948536E+03  0.47000000000E+01 0.  1.
          5    1    4    4  503    0 -0.27788993975E+02 -0.17836856187E+02  0.77243919354E+02  0.84137356162E+02  0.47000000000E+01 0. -1.
         -5    1    3    3    0  502 -0.30256932672E+02 -0.62800454242E+01  0.26692229526E+03  0.26874620490E+03  0.47000000000E+01 0.  1.
<mgrwt>
<rscale>  0 0.12070333E+03</rscale>
<asrwt>0</asrwt>
<pdfrwt beam="1">  1        2 0.84918405E-01 0.12950909E+03</pdfrwt>
<pdfrwt beam="2">  1       -2 0.36395800E-02 0.12950909E+03</pdfrwt>
<totfact> 0.16594088E+04</totfact>
</mgrwt>
</event>
<event>
 8    1  0.3629925E-004  0.1313644E+03  0.7546771E-02  0.1238675E+00
          1   -1    0    0  501    0  0.00000000000E+00  0.00000000000E+00  0.58228665494E+02  0.58228665494E+02  0.00000000000E+00 0. -1.
         -1   -1    0    0    0  501 -0.00000000000E+00 -0.00000000000E+00 -0.23848585920E+03  0.23848585920E+03  0.00000000000E+00 0.  1.
         25    2    1    2    0    0  0.85074467549E+00  0.40378943775E+02 -0.74040189303E+02  0.15079306869E+03  0.12500166825E+03 0.  0.
         23    2    1    2    0    0 -0.85074467549E+00 -0.40378943775E+02 -0.10621700440E+03  0.14592145600E+03  0.91541446522E+02 0.  0.
          5    1    4    4  502    0 -0.44265611121E+02 -0.77727330086E+01 -0.41955952137E+02  0.61662400424E+02  0.47000000000E+01 0. -1.
         -5    1    4    4    0  502  0.43414866445E+02 -0.32606210766E+02 -0.64261052266E+02  0.84259055580E+02  0.47000000000E+01 0.  1.
          5    1    3    3  503    0  0.52393885375E+02 -0.34100857175E+01 -0.33100630929E+01  0.52818504589E+02  0.47000000000E+01 0.  1.
         -5    1    3    3    0  503 -0.51543140700E+02  0.43789029493E+02 -0.70730126211E+02  0.97974564101E+02  0.47000000000E+01 0.  1.
<mgrwt>
<rscale>  0 0.12272075E+03</rscale>
<asrwt>0</asrwt>
<pdfrwt beam="1">  1        1 0.89582562E-02 0.13136438E+03</pdfrwt>
<pdfrwt beam="2">  1       -1 0.36690132E-01 0.13136438E+03</pdfrwt>
<totfact> 0.51017332E+03</totfact>
</mgrwt>
</event>
<event>
 8    1  0.3629925E-004  0.1864475E+03  0.7546771E-02  0.1167089E+00
          1   -1    0    0  501    0  0.00000000000E+00  0.00000000000E+00  0.14618448704E+03  0.14618448704E+03  0.00000000000E+00 0. -1.
         -1   -1    0    0    0  501 -0.00000000000E+00 -0.00000000000E+00 -0.21873630563E+03  0.21873630563E+03  0.00000000000E+00 0.  1.
         25    2    1    2    0    0 -0.10432492330E+03 -0.90839192860E+02 -0.37611630796E+01  0.18648545239E+03  0.12500891578E+03 0.  0.
         23    2    1    2    0    0  0.10432492330E+03  0.90839192860E+02 -0.68790655512E+02  0.17843534029E+03  0.89283636779E+02 0.  0.
          5    1    3    3  502    0  0.21648674639E+02 -0.47916955035E+02 -0.71633453253E+01  0.53273851088E+02  0.47000000000E+01 0.  1.
         -5    1    4    4    0  503  0.10002385180E+03  0.31535647124E+02 -0.42721849107E+02  0.11334246494E+03  0.47000000000E+01 0.  1.
          5    1    4    4  503    0  0.43010714986E+01  0.59303545736E+02 -0.26068806405E+02  0.65092875342E+02  0.47000000000E+01 0. -1.
         -5    1    3    3    0  502 -0.12597359794E+03 -0.42922237825E+02  0.34021822457E+01  0.13321160130E+03  0.47000000000E+01 0.  1.
<mgrwt>
<rscale>  0 0.18073933E+03</rscale>
<asrwt>0</asrwt>
<pdfrwt beam="1">  1        1 0.22489921E-01 0.18644752E+03</pdfrwt>
<pdfrwt beam="2">  1       -1 0.33651739E-01 0.18644752E+03</pdfrwt>
<totfact> 0.18138397E+03</totfact>
</mgrwt>
</event>
<event>
 8    1  0.3629925E-004  0.1370061E+03  0.7546771E-02  0.1228889E+00
          3   -1    0    0  501    0  0.00000000000E+00  0.00000000000E+00  0.85955136129E+02  0.85955136129E+02  0.00000000000E+00 0. -1.
         -3   -1    0    0    0  501 -0.00000000000E+00 -0.00000000000E+00 -0.17453325585E+03  0.17453325585E+03  0.00000000000E+00 0.  1.
         25    2    1    2    0    0 -0.41806646712E+02  0.37398849285E+02 -0.54063088590E+02  0.14728706977E+03  0.12499677491E+03 0.  0.
         23    2    1    2    0    0  0.41806646712E+02 -0.37398849285E+02 -0.34515031135E+02  0.11320132221E+03  0.92069443025E+02 0.  0.
          5    1    3    3  502    0 -0.85257361771E+02  0.15402259575E+02 -0.44203425655E+02  0.97375973298E+02  0.47000000000E+01 0. -1.
         -5    1    4    4    0  503 -0.16810018905E+02  0.15672610603E+02  0.60220969405E+01  0.24219065017E+02  0.47000000000E+01 0.  1.
          5    1    4    4  503    0  0.58616665618E+02 -0.53071459888E+02 -0.40537128075E+02  0.88982257194E+02  0.47000000000E+01 0. -1.
         -5    1    3    3    0  502  0.43450715059E+02  0.21996589710E+02 -0.98596629353E+01  0.49911096473E+02  0.47000000000E+01 0. -1.
<mgrwt>
<rscale>  0 0.12903895E+03</rscale>
<asrwt>0</asrwt>
<pdfrwt beam="1">  1        3 0.13223867E-01 0.13700607E+03</pdfrwt>
<pdfrwt beam="2">  1       -3 0.26851270E-01 0.13700607E+03</pdfrwt>
<totfact> 0.13987306E+03</totfact>
</mgrwt>
</event>
<event>
 8    1  0.3629925E-004  0.1656590E+03  0.7546771E-02  0.1188995E+00
          2   -1    0    0  501    0  0.00000000000E+00  0.00000000000E+00  0.48533057113E+03  0.48533057113E+03  0.00000000000E+00 0. -1.
         -2   -1    0    0    0  501 -0.00000000000E+00 -0.00000000000E+00 -0.63055461955E+02  0.63055461955E+02  0.00000000000E+00 0.  1.
         25    2    1    2    0    0 -0.89416502823E+02  0.61828938360E+02  0.35163323790E+03  0.38870147002E+03  0.12499908081E+03 0.  0.
         23    2    1    2    0    0  0.89416502823E+02 -0.61828938360E+02  0.70641871275E+02  0.15968456307E+03  0.93224230267E+02 0.  0.
          5    1    3    3  502    0  0.22087422648E+02 -0.16882276262E+02  0.76694028784E+02  0.81712480945E+02  0.47000000000E+01 0.  1.
         -5    1    3    3    0  502 -0.11150392547E+03  0.78711214622E+02  0.27493920912E+03  0.30698898907E+03  0.47000000000E+01 0.  1.
          5    1    4    4  503    0  0.31062689848E+02 -0.77443428096E+01  0.73103916445E+02  0.79944594225E+02  0.47000000000E+01 0. -1.
         -5    1    4    4    0  503  0.58353812975E+02 -0.54084595550E+02 -0.24620451700E+01  0.79739968842E+02  0.47000000000E+01 0.  1.
<mgrwt>
<rscale>  0 0.15973644E+03</rscale>
<asrwt>0</asrwt>
<pdfrwt beam="1">  1        2 0.74666239E-01 0.16565898E+03</pdfrwt>
<pdfrwt beam="2">  1       -2 0.97008406E-02 0.16565898E+03</pdfrwt>
<totfact> 0.43749839E+03</totfact>
</mgrwt>
</event>
<event>
 8    1  0.3629925E-004  0.2372400E+03  0.7546771E-02  0.1124796E+00
          2   -1    0    0  501    0  0.00000000000E+00  0.00000000000E+00  0.79448631532E+03  0.79448631532E+03  0.00000000000E+00 0. -1.
         -2   -1    0    0    0  501 -0.00000000000E+00 -0.00000000000E+00 -0.68516062097E+02  0.68516062097E+02  0.00000000000E+00 0.  1.
         25    2    1    2    0    0  0.16342344234E+03 -0.11810666864E+03  0.28770354445E+03  0.37290232256E+03  0.12500562386E+03 0.  0.
         23    2    1    2    0    0 -0.16342344234E+03  0.11810666864E+03  0.43826670878E+03  0.49010005486E+03  0.86394149504E+02 0.  0.
          5    1    3    3  502    0 -0.53011356221E+01 -0.57046902084E+02  0.62466096306E+02  0.84891426328E+02  0.47000000000E+01 0. -1.
         -5    1    4    4    0  503 -0.12202493279E+03  0.36116898284E+02  0.25964523862E+03  0.28919241778E+03  0.47000000000E+01 0.  1.
          5    1    4    4  503    0 -0.41398509553E+02  0.81989770354E+02  0.17862147016E+03  0.20090763708E+03  0.47000000000E+01 0. -1.
         -5    1    3    3    0  502  0.16872457797E+03 -0.61059766555E+02  0.22523744814E+03  0.28801089623E+03  0.47000000000E+01 0. -1.
<mgrwt>
<rscale>  0 0.23263873E+03</rscale>
<asrwt>0</asrwt>
<pdfrwt beam="1">  1        2 0.12222866E+00 0.23723999E+03</pdfrwt>
<pdfrwt beam="2">  1       -2 0.10540933E-01 0.23723999E+03</pdfrwt>
<totfact> 0.21757290E+03</totfact>
</mgrwt>
</event>
<event>
 8    1  0.3629925E-004  0.1320609E+03  0.7546771E-02  0.1237932E+00
         -4   -1    0    0    0  501 -0.00000000000E+00  0.00000000000E+00  0.16146507194E+03  0.16146507194E+03  0.00000000000E+00 0. -1.
          4   -1    0    0  501    0  0.00000000000E+00 -0.00000000000E+00 -0.83779758147E+02  0.83779758147E+02  0.00000000000E+00 0.  1.
         25    2    1    2    0    0 -0.42566487056E+02 -0.14082358768E+01  0.35662678653E+02  0.13679146953E+03  0.12500476206E+03 0.  0.
         23    2    1    2    0    0  0.42566487056E+02  0.14082358768E+01  0.42022635137E+02  0.10845336056E+03  0.90456291121E+02 0.  0.
          5    1    4    4  502    0  0.47433801854E+02  0.22468633532E+02  0.60067532283E+02  0.79906216815E+02  0.47000000000E+01 0. -1.
         -5    1    3    3    0  503 -0.56859071601E+02 -0.51119792834E+02  0.36478268428E+02  0.84846575124E+02  0.47000000000E+01 0.  1.
          5    1    3    3  503    0  0.14292584545E+02  0.49711556957E+02 -0.81558977595E+00  0.51944894405E+02  0.47000000000E+01 0.  1.
         -5    1    4    4    0  502 -0.48673147980E+01 -0.21060397655E+02 -0.18044897146E+02  0.28547143741E+02  0.47000000000E+01 0.  1.
<mgrwt>
<rscale>  0 0.12318567E+03</rscale>
<asrwt>0</asrwt>
<pdfrwt beam="1">  1        4 0.12889194E-01 0.13206089E+03</pdfrwt>
<pdfrwt beam="2">  1       -4 0.24840780E-01 0.13206089E+03</pdfrwt>
<totfact> 0.12204570E+03</totfact>
</mgrwt>
</event>
<event>
 8    1  0.3629925E-004  0.3891689E+03  0.7546771E-02  0.1048456E+00
          1   -1    0    0  501    0  0.00000000000E+00  0.00000000000E+00  0.76368228198E+03  0.76368228198E+03  0.00000000000E+00 0. -1.
         -1   -1    0    0    0  501 -0.00000000000E+00 -0.00000000000E+00 -0.23873548014E+03  0.23873548014E+03  0.00000000000E+00 0.  1.
         25    2    1    2    0    0  0.36539896431E+03  0.48074583223E+02  0.46989193505E+02  0.39199542807E+03  0.12499945059E+03 0.  0.
         23    2    1    2    0    0 -0.36539896431E+03 -0.48074583223E+02  0.47795760833E+03  0.61042233405E+03  0.91347588239E+02 0.  0.
          5    1    4    4  502    0 -0.10012943696E+03 -0.20762099871E+02  0.73818505784E+02  0.12620709463E+03  0.47000000000E+01 0. -1.
         -5    1    4    4    0  502 -0.26526952735E+03 -0.27312483352E+02  0.40413910254E+03  0.48421523943E+03  0.47000000000E+01 0.  1.
          5    1    3    3  503    0  0.10061820845E+03 -0.38705835538E+02 -0.69994942347E+01  0.10813532493E+03  0.47000000000E+01 0. -1.
         -5    1    3    3    0  503  0.26478075586E+03  0.86780418761E+02  0.53988687740E+02  0.28386010314E+03  0.47000000000E+01 0. -1.
<mgrwt>
<rscale>  0 0.38677972E+03</rscale>
<asrwt>0</asrwt>
<pdfrwt beam="1">  1        1 0.11748958E+00 0.38916890E+03</pdfrwt>
<pdfrwt beam="2">  1       -1 0.36728536E-01 0.38916890E+03</pdfrwt>
<totfact> 0.17693153E+02</totfact>
</mgrwt>
</event>
<event>
 8    1  0.3629925E-004  0.1771007E+03  0.7546771E-02  0.1176605E+00
          1   -1    0    0  501    0  0.00000000000E+00  0.00000000000E+00  0.20567525529E+03  0.20567525529E+03  0.00000000000E+00 0. -1.
         -1   -1    0    0    0  501 -0.00000000000E+00 -0.00000000000E+00 -0.13709292210E+03  0.13709292210E+03  0.00000000000E+00 0.  1.
         25    2    1    2    0    0 -0.11208414503E+03 -0.56367470601E+02  0.99326976111E+01  0.17737897990E+03  0.12499798686E+03 0.  0.
         23    2    1    2    0    0  0.11208414503E+03  0.56367470601E+02  0.58649635573E+02  0.16538919749E+03  0.90408293780E+02 0.  0.
          5    1    4    4  502    0  0.13447346562E+02  0.52623890798E+02  0.31259570125E+02  0.62843899757E+02  0.47000000000E+01 0. -1.
         -5    1    3    3    0  503  0.23111703949E+02 -0.31827431885E+02  0.18838336482E+01  0.39658228768E+02  0.47000000000E+01 0. -1.
          5    1    3    3  503    0 -0.13519584898E+03 -0.24540038715E+02  0.80488639629E+01  0.13772075113E+03  0.47000000000E+01 0. -1.
         -5    1    4    4    0  502  0.98636798467E+02  0.37435798024E+01  0.27390065448E+02  0.10254529773E+03  0.47000000000E+01 0.  1.
<mgrwt>
<rscale>  0 0.17119703E+03</rscale>
<asrwt>0</asrwt>
<pdfrwt beam="1">  1        1 0.31642347E-01 0.17710066E+03</pdfrwt>
<pdfrwt beam="2">  1       -1 0.21091219E-01 0.17710066E+03</pdfrwt>
<totfact> 0.25663241E+03</totfact>
</mgrwt>
</event>
<event>
 8    1  0.3629925E-004  0.1547734E+03  0.7546771E-02  0.1203046E+00
          4   -1    0    0  501    0  0.00000000000E+00  0.00000000000E+00  0.63999601556E+02  0.63999601556E+02  0.00000000000E+00 0. -1.
         -4   -1    0    0    0  501 -0.00000000000E+00 -0.00000000000E+00 -0.34696946154E+03  0.34696946154E+03  0.00000000000E+00 0.  1.
         25    2    1    2    0    0  0.26650515820E+02 -0.87298856827E+02 -0.90819526853E+02  0.17945189687E+03  0.12499382559E+03 0.  0.
         23    2    1    2    0    0 -0.26650515820E+02  0.87298856827E+02 -0.19215033313E+03  0.23151716623E+03  0.91362505108E+02 0.  0.
          5    1    3    3  502    0  0.30669100408E+02  0.12554245074E+02  0.12410499910E+02  0.35697525085E+02  0.47000000000E+01 0. -1.
         -5    1    4    4    0  503  0.26141518326E+02  0.95902182263E+01 -0.81692847613E+02  0.86435887322E+02  0.47000000000E+01 0.  1.
          5    1    4    4  503    0 -0.52792034146E+02  0.77708638600E+02 -0.11045748552E+03  0.14508127891E+03  0.47000000000E+01 0. -1.
         -5    1    3    3    0  502 -0.40185845875E+01 -0.99853101901E+02 -0.10323002676E+03  0.14375437178E+03  0.47000000000E+01 0. -1.
<mgrwt>
<rscale>  0 0.14792502E+03</rscale>
<asrwt>0</asrwt>
<pdfrwt beam="1">  1        4 0.98460929E-02 0.15477337E+03</pdfrwt>
<pdfrwt beam="2">  1       -4 0.53379915E-01 0.15477337E+03</pdfrwt>
<totfact> 0.44946382E+02</totfact>
</mgrwt>
</event>
<event>
 8    1  0.3629925E-004  0.1503969E+03  0.7546771E-02  0.1208884E+00
          4   -1    0    0  501    0  0.00000000000E+00  0.00000000000E+00  0.43209486425E+03  0.43209486425E+03  0.00000000000E+00 0. -1.
         -4   -1    0    0    0  501 -0.00000000000E+00 -0.00000000000E+00 -0.66822370166E+02  0.66822370166E+02  0.00000000000E+00 0.  1.
         25    2    1    2    0    0  0.73707540576E+02 -0.39506914187E+02  0.34061829994E+03  0.37234398553E+03  0.12500247798E+03 0.  0.
         23    2    1    2    0    0 -0.73707540576E+02  0.39506914187E+02  0.24654194140E+02  0.12657324888E+03  0.91757071861E+02 0.  0.
          5    1    4    4  502    0 -0.54627466563E+02  0.65617508867E+02  0.34853233783E+02  0.92339891045E+02  0.47000000000E+01 0. -1.
         -5    1    4    4    0  502 -0.19080074013E+02 -0.26110594680E+02 -0.10199039644E+02  0.34233357833E+02  0.47000000000E+01 0.  1.
          5    1    3    3  503    0 -0.29678917321E+02 -0.15694871142E+02  0.34674888617E+02  0.48493350205E+02  0.47000000000E+01 0. -1.
         -5    1    3    3    0  503  0.10338645790E+03 -0.23812043045E+02  0.30594341132E+03  0.32385063533E+03  0.47000000000E+01 0. -1.
<mgrwt>
<rscale>  0 0.14335566E+03</rscale>
<asrwt>0</asrwt>
<pdfrwt beam="1">  1        4 0.66476131E-01 0.15039687E+03</pdfrwt>
<pdfrwt beam="2">  1       -4 0.10280365E-01 0.15039687E+03</pdfrwt>
<totfact> 0.26205706E+02</totfact>
</mgrwt>
</event>
<event>
 8    1  0.3629925E-004  0.1284163E+03  0.7546771E-02  0.1240687E+00
          1   -1    0    0  501    0  0.00000000000E+00  0.00000000000E+00  0.84941473570E+03  0.84941473570E+03  0.00000000000E+00 0. -1.
         -1   -1    0    0    0  501 -0.00000000000E+00 -0.00000000000E+00 -0.18781620864E+02  0.18781620864E+02  0.00000000000E+00 0.  1.
         25    2    1    2    0    0  0.29390030196E+02 -0.17706762796E+01  0.62773001382E+03  0.64073060611E+03  0.12499532067E+03 0.  0.
         23    2    1    2    0    0 -0.29390030196E+02  0.17706762796E+01  0.20290310102E+03  0.22746575046E+03  0.98509339949E+02 0.  0.
          5    1    4    4  502    0  0.22937750330E+02  0.28339746465E+02  0.12193345687E+03  0.12735438557E+03  0.47000000000E+01 0. -1.
         -5    1    3    3    0  503 -0.21695199354E+02  0.50507289582E+02  0.26822104203E+03  0.27383623822E+03  0.47000000000E+01 0.  1.
          5    1    3    3  503    0  0.51085229550E+02 -0.52277965862E+02  0.35950897179E+03  0.36689436789E+03  0.47000000000E+01 0.  1.
         -5    1    4    4    0  502 -0.52327780525E+02 -0.26569070186E+02  0.80969644151E+02  0.10011136489E+03  0.47000000000E+01 0.  1.
<mgrwt>
<rscale>  0 0.12147294E+03</rscale>
<asrwt>0</asrwt>
<pdfrwt beam="1">  1        1 0.13067916E+00 0.12841627E+03</pdfrwt>
<pdfrwt beam="2">  1       -1 0.28894808E-02 0.12841627E+03</pdfrwt>
<totfact> 0.80442839E+03</totfact>
</mgrwt>
</event>
<event>
 8    1  0.3629925E-004  0.1576415E+03  0.7546771E-02  0.1199495E+00
          1   -1    0    0  501    0  0.00000000000E+00  0.00000000000E+00  0.11650021824E+04  0.11650021824E+04  0.00000000000E+00 0. -1.
         -1   -1    0    0    0  501 -0.00000000000E+00 -0.00000000000E+00 -0.19739342100E+02  0.19739342100E+02  0.00000000000E+00 0.  1.
         25    2    1    2    0    0 -0.14209115188E+02 -0.94998190750E+02  0.79392776702E+03  0.80942705237E+03  0.12499719460E+03 0.  0.
         23    2    1    2    0    0  0.14209115188E+02  0.94998190750E+02  0.35133507327E+03  0.37531447213E+03  0.90543161390E+02 0.  0.
          5    1    4    4  502    0 -0.21827898981E+02  0.18253744161E+02  0.19754451380E+03  0.19963862673E+03  0.47000000000E+01 0. -1.
         -5    1    3    3    0  503  0.13590323709E+02  0.27561133752E+02  0.12732420911E+03  0.13106432473E+03  0.47000000000E+01 0. -1.
          5    1    3    3  503    0 -0.27799438898E+02 -0.12255932450E+03  0.66660355791E+03  0.67836272764E+03  0.47000000000E+01 0. -1.
         -5    1    4    4    0  502  0.36037014170E+02  0.76744446588E+02  0.15379055947E+03  0.17567584539E+03  0.47000000000E+01 0.  1.
<mgrwt>
<rscale>  0 0.15079898E+03</rscale>
<asrwt>0</asrwt>
<pdfrwt beam="1">  1        1 0.17923105E+00 0.15764154E+03</pdfrwt>
<pdfrwt beam="2">  1       -1 0.30368228E-02 0.15764154E+03</pdfrwt>
<totfact> 0.44258836E+03</totfact>
</mgrwt>
</event>
<event>
 8    1  0.3629925E-004  0.1329616E+03  0.7546771E-02  0.1236183E+00
         -2   -1    0    0    0  501 -0.00000000000E+00  0.00000000000E+00  0.11839543112E+03  0.11839543112E+03  0.00000000000E+00 0.  1.
          2   -1    0    0  501    0  0.00000000000E+00 -0.00000000000E+00 -0.17320241737E+03  0.17320241737E+03  0.00000000000E+00 0. -1.
         25    2    1    2    0    0 -0.17679881924E+02 -0.41725162549E+02 -0.11307431900E+03  0.17454109035E+03  0.12500089275E+03 0.  0.
         23    2    1    2    0    0  0.17679881924E+02  0.41725162549E+02  0.58267332743E+02  0.11705675815E+03  0.90849519250E+02 0.  0.
          5    1    3    3  502    0  0.31125558925E+01  0.29470430980E+02  0.92603960743E+01  0.31401261787E+02  0.47000000000E+01 0. -1.
         -5    1    4    4    0  503 -0.28235953090E+02  0.46715539484E+00  0.45637853115E+02  0.53873842614E+02  0.47000000000E+01 0.  1.
          5    1    4    4  503    0  0.45915835014E+02  0.41258007154E+02  0.12629479628E+02  0.63182915531E+02  0.47000000000E+01 0. -1.
         -5    1    3    3    0  502 -0.20792437816E+02 -0.71195593529E+02 -0.12233471507E+03  0.14313982856E+03  0.47000000000E+01 0. -1.
<mgrwt>
<rscale>  0 0.12429032E+03</rscale>
<asrwt>0</asrwt>
<pdfrwt beam="1">  1        2 0.26646525E-01 0.13296161E+03</pdfrwt>
<pdfrwt beam="2">  1       -2 0.18214682E-01 0.13296161E+03</pdfrwt>
<totfact> 0.47191720E+03</totfact>
</mgrwt>
</event>
<event>
 8    1  0.3629925E-004  0.2839430E+03  0.7546771E-02  0.1095464E+00
         -1   -1    0    0    0  501 -0.00000000000E+00  0.00000000000E+00  0.17895878084E+03  0.17895878084E+03  0.00000000000E+00 0.  1.
          1   -1    0    0  501    0  0.00000000000E+00 -0.00000000000E+00 -0.43545128136E+03  0.43545128136E+03  0.00000000000E+00 0. -1.
         25    2    1    2    0    0  0.10306373585E+02  0.25473647771E+03 -0.93421107190E+02  0.29891661727E+03  0.12500698539E+03 0.  0.
         23    2    1    2    0    0 -0.10306373585E+02 -0.25473647771E+03 -0.16307139332E+03  0.31549344494E+03  0.89145611579E+02 0.  0.
          5    1    3    3  502    0  0.31110430216E+02  0.20742714101E+03 -0.22451699921E+02  0.21099774057E+03  0.47000000000E+01 0. -1.
         -5    1    4    4    0  503 -0.18618216250E+02 -0.13087929795E+02  0.98821510608E+00  0.23259373417E+02  0.47000000000E+01 0.  1.
          5    1    4    4  503    0  0.83118426652E+01 -0.24164854792E+03 -0.16405960843E+03  0.29223407152E+03  0.47000000000E+01 0. -1.
         -5    1    3    3    0  502 -0.20804056631E+02  0.47309336697E+02 -0.70969407269E+02  0.87918876694E+02  0.47000000000E+01 0. -1.
<mgrwt>
<rscale>  0 0.28041225E+03</rscale>
<asrwt>0</asrwt>
<pdfrwt beam="1">  1        1 0.66992505E-01 0.28394302E+03</pdfrwt>
<pdfrwt beam="2">  1       -1 0.27532120E-01 0.28394302E+03</pdfrwt>
<totfact> 0.64410555E+02</totfact>
</mgrwt>
</event>
<event>
 8    1  0.3629925E-004  0.1619639E+03  0.7546771E-02  0.1193974E+00
         -1   -1    0    0    0  501 -0.00000000000E+00  0.00000000000E+00  0.74525790668E+03  0.74525790668E+03  0.00000000000E+00 0.  1.
          1   -1    0    0  501    0  0.00000000000E+00 -0.00000000000E+00 -0.32720632490E+02  0.32720632490E+02  0.00000000000E+00 0. -1.
         25    2    1    2    0    0 -0.86265081901E+02  0.56287223295E+02  0.49410150444E+03  0.51996979762E+03  0.12498951111E+03 0.  0.
         23    2    1    2    0    0  0.86265081901E+02 -0.56287223295E+02  0.21843576975E+03  0.25800874155E+03  0.90798729881E+02 0.  0.
          5    1    3    3  502    0 -0.10568580812E+03  0.22598910848E+02  0.24516159078E+03  0.26796734205E+03  0.47000000000E+01 0.  1.
         -5    1    4    4    0  503  0.11043273592E+02 -0.54885740403E+02  0.13115432643E+03  0.14268127323E+03  0.47000000000E+01 0.  1.
          5    1    4    4  503    0  0.75221808309E+02 -0.14014828926E+01  0.87281443326E+02  0.11532746832E+03  0.47000000000E+01 0. -1.
         -5    1    3    3    0  502  0.19420726222E+02  0.33688312447E+02  0.24893991366E+03  0.25200245557E+03  0.47000000000E+01 0.  1.
<mgrwt>
<rscale>  0 0.15541394E+03</rscale>
<asrwt>0</asrwt>
<pdfrwt beam="1">  1        1 0.50339440E-02 0.16196387E+03</pdfrwt>
<pdfrwt beam="2">  1       -1 0.11465505E+00 0.16196387E+03</pdfrwt>
<totfact> 0.11973525E+03</totfact>
</mgrwt>
</event>
<event>
 8    1  0.3629925E-004  0.1312005E+03  0.7546771E-02  0.1241327E+00
         -1   -1    0    0    0  501 -0.00000000000E+00  0.00000000000E+00  0.16499583012E+03  0.16499583012E+03  0.00000000000E+00 0.  1.
          1   -1    0    0  501    0  0.00000000000E+00 -0.00000000000E+00 -0.10693508788E+03  0.10693508788E+03  0.00000000000E+00 0. -1.
         25    2    1    2    0    0  0.67419207305E+01 -0.39251023971E+02  0.10289373017E+03  0.16673542614E+03  0.12500994457E+03 0.  0.
         23    2    1    2    0    0 -0.67419207305E+01  0.39251023971E+02 -0.44832987935E+02  0.10519549186E+03  0.86429152044E+02 0.  0.
          5    1    4    4  502    0  0.23252875523E+02  0.16208858586E+01 -0.51175898504E+02  0.56430364864E+02  0.47000000000E+01 0. -1.
         -5    1    4    4    0  502 -0.29994796253E+02  0.37630138113E+02  0.63429105685E+01  0.48765126998E+02  0.47000000000E+01 0.  1.
          5    1    3    3  503    0  0.32401828610E+02 -0.67847509296E+02  0.24350102128E+02  0.79171841514E+02  0.47000000000E+01 0.  1.
         -5    1    3    3    0  503 -0.25659907880E+02  0.28596485325E+02  0.78543628045E+02  0.87563584622E+02  0.47000000000E+01 0.  1.
<mgrwt>
<rscale>  0 0.12107914E+03</rscale>
<asrwt>0</asrwt>
<pdfrwt beam="1">  1        1 0.16451552E-01 0.13120054E+03</pdfrwt>
<pdfrwt beam="2">  1       -1 0.25383974E-01 0.13120054E+03</pdfrwt>
<totfact> 0.42782679E+03</totfact>
</mgrwt>
</event>
<event>
 8    1  0.3629925E-004  0.1288871E+03  0.7546771E-02  0.1242994E+00
          3   -1    0    0  501    0  0.00000000000E+00  0.00000000000E+00  0.44946210876E+03  0.44946210876E+03  0.00000000000E+00 0. -1.
         -3   -1    0    0    0  501 -0.00000000000E+00 -0.00000000000E+00 -0.37536556892E+02  0.37536556892E+02  0.00000000000E+00 0.  1.
         25    2    1    2    0    0  0.31421573016E+02  0.49465627257E+00  0.10864815455E+03  0.16857140359E+03  0.12499734671E+03 0.  0.
         23    2    1    2    0    0 -0.31421573016E+02 -0.49465627257E+00  0.30327739731E+03  0.31842726206E+03  0.91821465728E+02 0.  0.
          5    1    4    4  502    0 -0.36674382775E+02  0.40703730268E+02  0.16058617253E+03  0.16974042777E+03  0.47000000000E+01 0. -1.
         -5    1    3    3    0  503 -0.45375417343E+02 -0.16004155485E+02  0.55559296665E+02  0.73647721877E+02  0.47000000000E+01 0. -1.
          5    1    3    3  503    0  0.76796990359E+02  0.16498811758E+02  0.53088857890E+02  0.94923681711E+02  0.47000000000E+01 0. -1.
         -5    1    4    4    0  502  0.52528097588E+01 -0.41198386540E+02  0.14269122478E+03  0.14868683429E+03  0.47000000000E+01 0. -1.
<mgrwt>
<rscale>  0 0.12006221E+03</rscale>
<asrwt>0</asrwt>
<pdfrwt beam="1">  1        3 0.69148013E-01 0.12888715E+03</pdfrwt>
<pdfrwt beam="2">  1       -3 0.57748552E-02 0.12888715E+03</pdfrwt>
<totfact> 0.84798822E+02</totfact>
</mgrwt>
</event>
<event>
 8    1  0.3629925E-004  0.1523179E+03  0.7546771E-02  0.1206436E+00
         -3   -1    0    0    0  501 -0.00000000000E+00  0.00000000000E+00  0.31015327813E+03  0.31015327813E+03  0.00000000000E+00 0.  1.
          3   -1    0    0  501    0  0.00000000000E+00 -0.00000000000E+00 -0.69511015979E+02  0.69511015979E+02  0.00000000000E+00 0. -1.
         25    2    1    2    0    0 -0.37021247420E+02  0.78775541145E+02  0.19096676476E+03  0.24427249995E+03  0.12499836137E+03 0.  0.
         23    2    1    2    0    0  0.37021247420E+02 -0.78775541145E+02  0.49675497387E+02  0.13539179415E+03  0.91033643455E+02 0.  0.
          5    1    3    3  502    0  0.33256566703E+02 -0.73389436862E+01  0.80311048379E+02  0.87360253062E+02  0.47000000000E+01 0.  1.
         -5    1    3    3    0  502 -0.70277814123E+02  0.86114484831E+02  0.11065571638E+03  0.15691224689E+03  0.47000000000E+01 0.  1.
          5    1    4    4  503    0  0.61489939437E+02 -0.79597354320E+02  0.35838155508E+02  0.10687944076E+03  0.47000000000E+01 0. -1.
         -5    1    4    4    0  503 -0.24468692017E+02  0.82181317530E+00  0.13837341878E+02  0.28512353396E+02  0.47000000000E+01 0.  1.
<mgrwt>
<rscale>  0 0.14524874E+03</rscale>
<asrwt>0</asrwt>
<pdfrwt beam="1">  1        3 0.10694003E-01 0.15231792E+03</pdfrwt>
<pdfrwt beam="2">  1       -3 0.47715888E-01 0.15231792E+03</pdfrwt>
<totfact> 0.68095898E+02</totfact>
</mgrwt>
</event>
<event>
 8    1  0.3629925E-004  0.1309696E+03  0.7546771E-02  0.1239436E+00
         -2   -1    0    0    0  501 -0.00000000000E+00  0.00000000000E+00  0.34288706301E+02  0.34288706301E+02  0.00000000000E+00 0.  1.
          2   -1    0    0  501    0  0.00000000000E+00 -0.00000000000E+00 -0.39619864903E+03  0.39619864903E+03  0.00000000000E+00 0. -1.
         25    2    1    2    0    0  0.29470314193E+02 -0.25691998015E+02 -0.23769701217E+03  0.27139066496E+03  0.12499778100E+03 0.  0.
         23    2    1    2    0    0 -0.29470314193E+02  0.25691998015E+02 -0.12421293057E+03  0.15909669037E+03  0.91402005374E+02 0.  0.
          5    1    4    4  502    0 -0.22130390674E+02 -0.32885677929E+02 -0.55867624605E+02  0.68662242049E+02  0.47000000000E+01 0. -1.
         -5    1    3    3    0  503  0.76416000040E+02 -0.31554966155E+02 -0.13801828868E+03  0.16095421386E+03  0.47000000000E+01 0. -1.
          5    1    3    3  503    0 -0.46945685847E+02  0.58629681400E+01 -0.99678723490E+02  0.11043645110E+03  0.47000000000E+01 0. -1.
         -5    1    4    4    0  502 -0.73399235198E+01  0.58577675944E+02 -0.68345305962E+02  0.90434448322E+02  0.47000000000E+01 0.  1.
<mgrwt>
<rscale>  0 0.12224703E+03</rscale>
<asrwt>0</asrwt>
<pdfrwt beam="1">  1        2 0.60953638E-01 0.13096955E+03</pdfrwt>
<pdfrwt beam="2">  1       -2 0.52751856E-02 0.13096955E+03</pdfrwt>
<totfact> 0.13697556E+04</totfact>
</mgrwt>
</event>
<event>
 8    1  0.3629925E-004  0.2229843E+03  0.7546771E-02  0.1135553E+00
         -1   -1    0    0    0  501 -0.00000000000E+00  0.00000000000E+00  0.71256191706E+02  0.71256191706E+02  0.00000000000E+00 0.  1.
          1   -1    0    0  501    0  0.00000000000E+00 -0.00000000000E+00 -0.68545728562E+03  0.68545728562E+03  0.00000000000E+00 0. -1.
         25    2    1    2    0    0  0.18108576214E+03 -0.36116725066E+02 -0.42183928210E+03  0.47714816951E+03  0.12500209864E+03 0.  0.
         23    2    1    2    0    0 -0.18108576214E+03  0.36116725066E+02 -0.19236181181E+03  0.27956530781E+03  0.84007283086E+02 0.  0.
          5    1    3    3  502    0  0.66863022397E+02  0.14771713784E+02 -0.27868250486E+03  0.28701027126E+03  0.47000000000E+01 0.  1.
         -5    1    3    3    0  502  0.11422273974E+03 -0.50888438850E+02 -0.14315677725E+03  0.19013789826E+03  0.47000000000E+01 0.  1.
          5    1    4    4  503    0 -0.71672301982E+02 -0.17119670835E+02 -0.38264874723E+02  0.83164250964E+02  0.47000000000E+01 0. -1.
         -5    1    4    4    0  503 -0.10941346015E+03  0.53236395901E+02 -0.15409693709E+03  0.19640105685E+03  0.47000000000E+01 0.  1.
<mgrwt>
<rscale>  0 0.21777439E+03</rscale>
<asrwt>0</asrwt>
<pdfrwt beam="1">  1        1 0.10545497E+00 0.22298429E+03</pdfrwt>
<pdfrwt beam="2">  1       -1 0.10962491E-01 0.22298429E+03</pdfrwt>
<totfact> 0.15321986E+03</totfact>
</mgrwt>
</event>
<event>
 8    1  0.3629925E-004  0.1430718E+03  0.7546771E-02  0.1219068E+00
          2   -1    0    0  501    0  0.00000000000E+00  0.00000000000E+00  0.39822786081E+03  0.39822786081E+03  0.00000000000E+00 0. -1.
         -2   -1    0    0    0  501 -0.00000000000E+00 -0.00000000000E+00 -0.45568389929E+02  0.45568389929E+02  0.00000000000E+00 0.  1.
         25    2    1    2    0    0  0.67756615172E+02  0.15946321595E+02  0.25329748054E+03  0.29091089939E+03  0.12499717462E+03 0.  0.
         23    2    1    2    0    0 -0.67756615172E+02 -0.15946321595E+02  0.99361990338E+02  0.15288535135E+03  0.93036989749E+02 0.  0.
          5    1    3    3  502    0 -0.16105961571E+02 -0.37226317662E+02  0.49559867784E+02  0.64214260251E+02  0.47000000000E+01 0.  1.
         -5    1    4    4    0  503 -0.87752701289E+02 -0.16393135894E+02  0.57604000948E+02  0.10634652046E+03  0.47000000000E+01 0.  1.
          5    1    4    4  503    0  0.19996086117E+02  0.44681429848E+00  0.41757989390E+02  0.46538830894E+02  0.47000000000E+01 0. -1.
         -5    1    3    3    0  502  0.83862576743E+02  0.53172639258E+02  0.20373761276E+03  0.22669663914E+03  0.47000000000E+01 0.  1.
<mgrwt>
<rscale>  0 0.13581939E+03</rscale>
<asrwt>0</asrwt>
<pdfrwt beam="1">  1        2 0.61265823E-01 0.14307179E+03</pdfrwt>
<pdfrwt beam="2">  1       -2 0.70105218E-02 0.14307179E+03</pdfrwt>
<totfact> 0.89043665E+03</totfact>
</mgrwt>
</event>
<event>
 8    1  0.3629925E-004  0.1259918E+03  0.7546771E-02  0.1252887E+00
          2   -1    0    0  501    0  0.00000000000E+00  0.00000000000E+00  0.32795389486E+03  0.32795389486E+03  0.00000000000E+00 0. -1.
         -2   -1    0    0    0  501 -0.00000000000E+00 -0.00000000000E+00 -0.34459751695E+02  0.34459751695E+02  0.00000000000E+00 0.  1.
         25    2    1    2    0    0 -0.94334157847E+01  0.12673967941E+02  0.15422483540E+03  0.19914624886E+03  0.12499723911E+03 0.  0.
         23    2    1    2    0    0  0.94334157847E+01 -0.12673967941E+02  0.13926930777E+03  0.16326739769E+03  0.83729829009E+02 0.  0.
          5    1    3    3  502    0  0.22381192815E+02 -0.40999337046E+02  0.19951832893E+02  0.51010087883E+02  0.47000000000E+01 0. -1.
         -5    1    4    4    0  503  0.58760688256E+01  0.22812803983E+02  0.53626946773E+01  0.24613019007E+02  0.47000000000E+01 0.  1.
          5    1    4    4  503    0  0.35573469591E+01 -0.35486771924E+02  0.13390661309E+03  0.13865437868E+03  0.47000000000E+01 0. -1.
         -5    1    3    3    0  502 -0.31814608599E+02  0.53673304987E+02  0.13427300250E+03  0.14813616098E+03  0.47000000000E+01 0. -1.
<mgrwt>
<rscale>  0 0.11425521E+03</rscale>
<asrwt>0</asrwt>
<pdfrwt beam="1">  1        2 0.50454443E-01 0.12599178E+03</pdfrwt>
<pdfrwt beam="2">  1       -2 0.53015005E-02 0.12599178E+03</pdfrwt>
<totfact> 0.16561532E+04</totfact>
</mgrwt>
</event>
<event>
 8    1  0.3629925E-004  0.1637448E+03  0.7546771E-02  0.1192954E+00
         -1   -1    0    0    0  501 -0.00000000000E+00  0.00000000000E+00  0.24929540154E+02  0.24929540154E+02  0.00000000000E+00 0.  1.
          1   -1    0    0  501    0  0.00000000000E+00 -0.00000000000E+00 -0.10689408430E+04  0.10689408430E+04  0.00000000000E+00 0. -1.
         25    2    1    2    0    0 -0.15017242785E+02  0.10470137287E+03 -0.34646324491E+03  0.38320899671E+03  0.12499784005E+03 0.  0.
         23    2    1    2    0    0  0.15017242785E+02 -0.10470137287E+03 -0.69754805792E+03  0.71066138643E+03  0.85313644878E+02 0.  0.
          5    1    4    4  502    0  0.39416592632E+02 -0.98487166082E+02 -0.47965889149E+03  0.49127195304E+03  0.47000000000E+01 0.  1.
         -5    1    3    3    0  503  0.30455945454E+02  0.85052384161E+02 -0.30594671855E+03  0.31904068276E+03  0.47000000000E+01 0.  1.
          5    1    3    3  503    0 -0.45473188239E+02  0.19648988710E+02 -0.40516526366E+02  0.64168313947E+02  0.47000000000E+01 0.  1.
         -5    1    4    4    0  502 -0.24399349847E+02 -0.62142067884E+01 -0.21788916642E+03  0.21938943339E+03  0.47000000000E+01 0. -1.
<mgrwt>
<rscale>  0 0.15628710E+03</rscale>
<asrwt>0</asrwt>
<pdfrwt beam="1">  1        1 0.16445246E+00 0.16374479E+03</pdfrwt>
<pdfrwt beam="2">  1       -1 0.38353134E-02 0.16374479E+03</pdfrwt>
<totfact> 0.36765205E+03</totfact>
</mgrwt>
</event>
<event>
 8    1  0.3629925E-004  0.1406921E+03  0.7546771E-02  0.1223341E+00
         -2   -1    0    0    0  501 -0.00000000000E+00  0.00000000000E+00  0.69643877561E+02  0.69643877561E+02  0.00000000000E+00 0.  1.
          2   -1    0    0  501    0  0.00000000000E+00 -0.00000000000E+00 -0.23053240332E+03  0.23053240332E+03  0.00000000000E+00 0. -1.
         25    2    1    2    0    0  0.63280092731E+02 -0.12850393539E+02 -0.10284105982E+03  0.17427149341E+03  0.12499906832E+03 0.  0.
         23    2    1    2    0    0 -0.63280092731E+02  0.12850393539E+02 -0.58047465935E+02  0.12590478747E+03  0.91175679081E+02 0.  0.
          5    1    4    4  502    0  0.54031955838E+00 -0.32630669113E+02 -0.21019582109E+02  0.39101986446E+02  0.47000000000E+01 0. -1.
         -5    1    3    3    0  503  0.13010419048E+02  0.52344701353E+02 -0.61805103072E+02  0.82165683404E+02  0.47000000000E+01 0. -1.
          5    1    3    3  503    0  0.50269673683E+02 -0.65195094893E+02 -0.41035956750E+02  0.92105810005E+02  0.47000000000E+01 0. -1.
         -5    1    4    4    0  502 -0.63820412289E+02  0.45481062652E+02 -0.37027883826E+02  0.86802801023E+02  0.47000000000E+01 0.  1.
<mgrwt>
<rscale>  0 0.13281283E+03</rscale>
<asrwt>0</asrwt>
<pdfrwt beam="1">  1        2 0.35466523E-01 0.14069211E+03</pdfrwt>
<pdfrwt beam="2">  1       -2 0.10714443E-01 0.14069211E+03</pdfrwt>
<totfact> 0.82257488E+03</totfact>
</mgrwt>
</event>
<event>
 8    1  0.3629925E-004  0.2929245E+03  0.7546771E-02  0.1090533E+00
         -2   -1    0    0    0  501 -0.00000000000E+00  0.00000000000E+00  0.16184407546E+04  0.16184407546E+04  0.00000000000E+00 0.  1.
          2   -1    0    0  501    0  0.00000000000E+00 -0.00000000000E+00 -0.53654445459E+02  0.53654445459E+02  0.00000000000E+00 0. -1.
         25    2    1    2    0    0 -0.25705185248E+03 -0.64077315631E+02  0.99482921587E+03  0.10370582987E+04  0.12499275519E+03 0.  0.
         23    2    1    2    0    0  0.25705185248E+03  0.64077315631E+02  0.56995709327E+03  0.63503690139E+03  0.90770153230E+02 0.  0.
          5    1    4    4  502    0  0.15853248875E+03  0.59373907119E+02  0.26499639492E+03  0.31448845790E+03  0.47000000000E+01 0. -1.
         -5    1    4    4    0  502  0.98519363726E+02  0.47034085117E+01  0.30496069836E+03  0.32054844349E+03  0.47000000000E+01 0.  1.
          5    1    3    3  503    0 -0.77724581662E+02 -0.60968878553E+02  0.52300501957E+03  0.53227310212E+03  0.47000000000E+01 0.  1.
         -5    1    3    3    0  503 -0.17932727081E+03 -0.31084370781E+01  0.47182419630E+03  0.50478519654E+03  0.47000000000E+01 0.  1.
<mgrwt>
<rscale>  0 0.28964807E+03</rscale>
<asrwt>0</asrwt>
<pdfrwt beam="1">  1        2 0.82545313E-02 0.29292447E+03</pdfrwt>
<pdfrwt beam="2">  1       -2 0.24899085E+00 0.29292447E+03</pdfrwt>
<totfact> 0.59172831E+01</totfact>
</mgrwt>
</event>
<event>
 8    1  0.3629925E-004  0.1723614E+03  0.7546771E-02  0.1181566E+00
          1   -1    0    0  501    0  0.00000000000E+00  0.00000000000E+00  0.80969714229E+03  0.80969714229E+03  0.00000000000E+00 0. -1.
         -1   -1    0    0    0  501 -0.00000000000E+00 -0.00000000000E+00 -0.33324040730E+02  0.33324040730E+02  0.00000000000E+00 0.  1.
         25    2    1    2    0    0 -0.95370199857E+02  0.70623198372E+02  0.49501321165E+03  0.52416268032E+03  0.12500129827E+03 0.  0.
         23    2    1    2    0    0  0.95370199857E+02 -0.70623198372E+02  0.28135988991E+03  0.31885850270E+03  0.91783690933E+02 0.  0.
          5    1    4    4  502    0  0.67386299215E+02 -0.90244670236E+02  0.18650670171E+03  0.21792625728E+03  0.47000000000E+01 0. -1.
         -5    1    4    4    0  502  0.27983900642E+02  0.19621471865E+02  0.94853188202E+02  0.10093224542E+03  0.47000000000E+01 0.  1.
          5    1    3    3  503    0 -0.39242138361E+02 -0.37970972244E+01  0.34643198813E+03  0.34869983620E+03  0.47000000000E+01 0. -1.
         -5    1    3    3    0  503 -0.56128061497E+02  0.74420295596E+02  0.14858122352E+03  0.17546284412E+03  0.47000000000E+01 0. -1.
<mgrwt>
<rscale>  0 0.16648323E+03</rscale>
<asrwt>0</asrwt>
<pdfrwt beam="1">  1        1 0.12456878E+00 0.17236135E+03</pdfrwt>
<pdfrwt beam="2">  1       -1 0.51267761E-02 0.17236135E+03</pdfrwt>
<totfact> 0.37752913E+03</totfact>
</mgrwt>
</event>
<event>
 8    1  0.3629925E-004  0.1706266E+03  0.7546771E-02  0.1183728E+00
         -1   -1    0    0    0  501 -0.00000000000E+00  0.00000000000E+00  0.41882494595E+02  0.41882494595E+02  0.00000000000E+00 0.  1.
          1   -1    0    0  501    0  0.00000000000E+00 -0.00000000000E+00 -0.66210040598E+03  0.66210040598E+03  0.00000000000E+00 0. -1.
         25    2    1    2    0    0  0.80703083256E+02  0.83517469967E+02 -0.22635079339E+03  0.28345744425E+03  0.12500114238E+03 0.  0.
         23    2    1    2    0    0 -0.80703083256E+02 -0.83517469967E+02 -0.39386711800E+03  0.42052545633E+03  0.90676332878E+02 0.  0.
          5    1    3    3  502    0  0.48592765454E+02  0.29775679370E+02 -0.21129652383E+03  0.21889759916E+03  0.47000000000E+01 0. -1.
         -5    1    4    4    0  503 -0.43549688372E+02 -0.18927204020E+02 -0.51896261451E+02  0.70499123129E+02  0.47000000000E+01 0.  1.
          5    1    4    4  503    0 -0.37153394884E+02 -0.64590265947E+02 -0.34197085655E+03  0.35002633320E+03  0.47000000000E+01 0. -1.
         -5    1    3    3    0  502  0.32110317802E+02  0.53741790598E+02 -0.15054269563E+02  0.64559845090E+02  0.47000000000E+01 0. -1.
<mgrwt>
<rscale>  0 0.16448202E+03</rscale>
<asrwt>0</asrwt>
<pdfrwt beam="1">  1        1 0.10186160E+00 0.17062661E+03</pdfrwt>
<pdfrwt beam="2">  1       -1 0.64434608E-02 0.17062661E+03</pdfrwt>
<totfact> 0.36022536E+03</totfact>
</mgrwt>
</event>
<event>
 8    1  0.3629925E-004  0.1854882E+03  0.7546771E-02  0.1167627E+00
          1   -1    0    0  501    0  0.00000000000E+00  0.00000000000E+00  0.22548358385E+04  0.22548358385E+04  0.00000000000E+00 0. -1.
         -1   -1    0    0    0  501 -0.00000000000E+00 -0.00000000000E+00 -0.14380687573E+02  0.14380687573E+02  0.00000000000E+00 0.  1.
         25    2    1    2    0    0  0.10158072115E+03 -0.91989361844E+02  0.14402376338E+04  0.14521330181E+04  0.12500069998E+03 0.  0.
         23    2    1    2    0    0 -0.10158072115E+03  0.91989361844E+02  0.80021751719E+03  0.81708350799E+03  0.92177538463E+02 0.  0.
          5    1    4    4  502    0  0.44780193036E+01  0.49887423581E+02  0.21267376767E+03  0.21854296864E+03  0.47000000000E+01 0. -1.
         -5    1    4    4    0  502 -0.10605874046E+03  0.42101938262E+02  0.58754374953E+03  0.59854053935E+03  0.47000000000E+01 0.  1.
          5    1    3    3  503    0 -0.24649184271E+02  0.56702645339E+01  0.21650012752E+03  0.21802323133E+03  0.47000000000E+01 0. -1.
         -5    1    3    3    0  503  0.12622990542E+03 -0.97659626378E+02  0.12237375062E+04  0.12341097868E+04  0.47000000000E+01 0. -1.
<mgrwt>
<rscale>  0 0.18018245E+03</rscale>
<asrwt>0</asrwt>
<pdfrwt beam="1">  1        1 0.34689754E+00 0.18548817E+03</pdfrwt>
<pdfrwt beam="2">  1       -1 0.22124153E-02 0.18548817E+03</pdfrwt>
<totfact> 0.13693557E+03</totfact>
</mgrwt>
</event>
<event>
 8    1  0.3629925E-004  0.1742932E+03  0.7546771E-02  0.1179055E+00
         -2   -1    0    0    0  501 -0.00000000000E+00  0.00000000000E+00  0.63409186537E+02  0.63409186537E+02  0.00000000000E+00 0.  1.
          2   -1    0    0  501    0  0.00000000000E+00 -0.00000000000E+00 -0.43211376086E+03  0.43211376086E+03  0.00000000000E+00 0. -1.
         25    2    1    2    0    0 -0.10813013742E+03 -0.55306665767E+02 -0.16122058832E+03  0.23742405342E+03  0.12500859629E+03 0.  0.
         23    2    1    2    0    0  0.10813013742E+03  0.55306665767E+02 -0.20748398601E+03  0.25809889398E+03  0.93885466002E+02 0.  0.
          5    1    3    3  502    0  0.14331743628E+02 -0.38296077274E+02 -0.10601968392E+02  0.42502707488E+02  0.47000000000E+01 0.  1.
         -5    1    4    4    0  503  0.20104667963E+02  0.27554547718E+02 -0.40647970197E+01  0.34670785232E+02  0.47000000000E+01 0.  1.
          5    1    4    4  503    0  0.88025469461E+02  0.27752118049E+02 -0.20341918899E+03  0.22342810875E+03  0.47000000000E+01 0. -1.
         -5    1    3    3    0  502 -0.12246188105E+03 -0.17010588493E+02 -0.15061861993E+03  0.19492134593E+03  0.47000000000E+01 0.  1.
<mgrwt>
<rscale>  0 0.16884752E+03</rscale>
<asrwt>0</asrwt>
<pdfrwt beam="1">  1        2 0.66479040E-01 0.17429315E+03</pdfrwt>
<pdfrwt beam="2">  1       -2 0.97552595E-02 0.17429315E+03</pdfrwt>
<totfact> 0.49351329E+03</totfact>
</mgrwt>
</event>
<event>
 8    1  0.3629925E-004  0.1416244E+03  0.7546771E-02  0.1221809E+00
         -2   -1    0    0    0  501 -0.00000000000E+00  0.00000000000E+00  0.57349073557E+02  0.57349073557E+02  0.00000000000E+00 0.  1.
          2   -1    0    0  501    0  0.00000000000E+00 -0.00000000000E+00 -0.28287890513E+03  0.28287890513E+03  0.00000000000E+00 0. -1.
         25    2    1    2    0    0  0.40194116924E+02  0.53100530681E+02 -0.12725448609E+03  0.19039744659E+03  0.12498899968E+03 0.  0.
         23    2    1    2    0    0 -0.40194116924E+02 -0.53100530681E+02 -0.98275345487E+02  0.14983053211E+03  0.91410674576E+02 0.  0.
          5    1    4    4  502    0 -0.40993020611E+02  0.15470929059E+02 -0.43718216009E+02  0.62073744819E+02  0.47000000000E+01 0. -1.
         -5    1    4    4    0  502  0.79890368752E+00 -0.68571459740E+02 -0.54557129478E+02  0.87756787287E+02  0.47000000000E+01 0.  1.
          5    1    3    3  503    0 -0.31883512780E+02 -0.18160476527E+02 -0.53129763035E+02  0.64739655661E+02  0.47000000000E+01 0. -1.
         -5    1    3    3    0  503  0.72077629704E+02  0.71261007208E+02 -0.74124723055E+02  0.12565779092E+03  0.47000000000E+01 0. -1.
<mgrwt>
<rscale>  0 0.13388051E+03</rscale>
<asrwt>0</asrwt>
<pdfrwt beam="1">  1        2 0.43519832E-01 0.14162445E+03</pdfrwt>
<pdfrwt beam="2">  1       -2 0.88229344E-02 0.14162445E+03</pdfrwt>
<totfact> 0.89753381E+03</totfact>
</mgrwt>
</event>
<event>
 8    1  0.3629925E-004  0.1669012E+03  0.7546771E-02  0.1187158E+00
          2   -1    0    0  501    0  0.00000000000E+00  0.00000000000E+00  0.96857889519E+03  0.96857889519E+03  0.00000000000E+00 0. -1.
         -2   -1    0    0    0  501 -0.00000000000E+00 -0.00000000000E+00 -0.40283997040E+02  0.40283997040E+02  0.00000000000E+00 0.  1.
         25    2    1    2    0    0  0.35594149371E+02 -0.10470818322E+03  0.17597495990E+03  0.24253491326E+03  0.12500100213E+03 0.  0.
         23    2    1    2    0    0 -0.35594149371E+02  0.10470818322E+03  0.75231993825E+03  0.76632797897E+03  0.95092243474E+02 0.  0.
          5    1    3    3  502    0  0.49099733473E+01  0.26927235985E+02  0.12749868068E+02  0.30558681448E+02  0.47000000000E+01 0.  1.
         -5    1    3    3    0  502  0.30684176023E+02 -0.13163541921E+03  0.16322509184E+03  0.21197623181E+03  0.47000000000E+01 0.  1.
          5    1    4    4  503    0 -0.37088815559E+02  0.70774749196E+02  0.69455695822E+03  0.69915384828E+03  0.47000000000E+01 0. -1.
         -5    1    4    4    0  503  0.14946661881E+01  0.33933434025E+02  0.57762980032E+02  0.67174130690E+02  0.47000000000E+01 0.  1.
<mgrwt>
<rscale>  0 0.16137038E+03</rscale>
<asrwt>0</asrwt>
<pdfrwt beam="1">  1        2 0.14901212E+00 0.16690116E+03</pdfrwt>
<pdfrwt beam="2">  1       -2 0.61975387E-02 0.16690116E+03</pdfrwt>
<totfact> 0.38134543E+03</totfact>
</mgrwt>
</event>
<event>
 8    1  0.3629925E-004  0.1289484E+03  0.7546771E-02  0.1246876E+00
         -1   -1    0    0    0  501 -0.00000000000E+00  0.00000000000E+00  0.88317068091E+02  0.88317068091E+02  0.00000000000E+00 0.  1.
          1   -1    0    0  501    0  0.00000000000E+00 -0.00000000000E+00 -0.37880428586E+03  0.37880428586E+03  0.00000000000E+00 0. -1.
         25    2    1    2    0    0 -0.18941710444E+02  0.25359177088E+02 -0.34077315279E+03  0.36435425311E+03  0.12500321533E+03 0.  0.
         23    2    1    2    0    0  0.18941710444E+02 -0.25359177088E+02  0.50285935021E+02  0.10276710084E+03  0.83848228940E+02 0.  0.
          5    1    4    4  502    0  0.27657258326E+02  0.31098617836E+01 -0.14191252187E+02  0.31592353775E+02  0.47000000000E+01 0. -1.
         -5    1    4    4    0  502 -0.87155478821E+01 -0.28469038871E+02  0.64477187207E+02  0.71174747062E+02  0.47000000000E+01 0.  1.
          5    1    3    3  503    0  0.41138220564E+02 -0.21699828692E+02 -0.80569273694E+02  0.93148986146E+02  0.47000000000E+01 0.  1.
         -5    1    3    3    0  503 -0.60079931008E+02  0.47059005780E+02 -0.26020387909E+03  0.27120526697E+03  0.47000000000E+01 0.  1.
<mgrwt>
<rscale>  0 0.11773824E+03</rscale>
<asrwt>0</asrwt>
<pdfrwt beam="1">  1        1 0.58277582E-01 0.12894836E+03</pdfrwt>
<pdfrwt beam="2">  1       -1 0.13587241E-01 0.12894836E+03</pdfrwt>
<totfact> 0.23833236E+03</totfact>
</mgrwt>
</event>
<event>
 8    1  0.3629925E-004  0.1382285E+03  0.7546771E-02  0.1227458E+00
         -2   -1    0    0    0  501 -0.00000000000E+00  0.00000000000E+00  0.19637690952E+02  0.19637690952E+02  0.00000000000E+00 0.  1.
          2   -1    0    0  501    0  0.00000000000E+00 -0.00000000000E+00 -0.77336236245E+03  0.77336236245E+03  0.00000000000E+00 0. -1.
         25    2    1    2    0    0 -0.42716414214E+02 -0.40698402889E+02 -0.43455060838E+03  0.45600585314E+03  0.12500421920E+03 0.  0.
         23    2    1    2    0    0  0.42716414214E+02  0.40698402889E+02 -0.31917406312E+03  0.33699420026E+03  0.90619845504E+02 0.  0.
          5    1    4    4  502    0 -0.14834489262E+02 -0.18244693033E+02 -0.99101294341E+02  0.10196120554E+03  0.47000000000E+01 0. -1.
         -5    1    3    3    0  503 -0.28693500248E+02  0.39813226183E+01 -0.13448487108E+02  0.32281878690E+02  0.47000000000E+01 0. -1.
          5    1    3    3  503    0 -0.14022913967E+02 -0.44679725507E+02 -0.42110212127E+03  0.42372397445E+03  0.47000000000E+01 0. -1.
         -5    1    4    4    0  502  0.57550903477E+02  0.58943095922E+02 -0.22007276878E+03  0.23503299472E+03  0.47000000000E+01 0.  1.
<mgrwt>
<rscale>  0 0.12999866E+03</rscale>
<asrwt>0</asrwt>
<pdfrwt beam="1">  1        2 0.11897884E+00 0.13822846E+03</pdfrwt>
<pdfrwt beam="2">  1       -2 0.30211829E-02 0.13822846E+03</pdfrwt>
<totfact> 0.14812523E+04</totfact>
</mgrwt>
</event>
<event>
 8    1  0.3629925E-004  0.1289172E+03  0.7546771E-02  0.1240200E+00
          2   -1    0    0  501    0  0.00000000000E+00  0.00000000000E+00  0.17775913473E+03  0.17775913473E+03  0.00000000000E+00 0. -1.
         -2   -1    0    0    0  501 -0.00000000000E+00 -0.00000000000E+00 -0.87631938879E+02  0.87631938879E+02  0.00000000000E+00 0.  1.
         25    2    1    2    0    0 -0.13375818576E+02 -0.28557833675E+02  0.98759522535E+02  0.16239790483E+03  0.12500069526E+03 0.  0.
         23    2    1    2    0    0  0.13375818576E+02  0.28557833675E+02 -0.86323266846E+01  0.10299316878E+03  0.97665824953E+02 0.  0.
          5    1    3    3  502    0 -0.56290239983E+02 -0.54057723112E+02  0.52483792118E+02  0.94167228803E+02  0.47000000000E+01 0.  1.
         -5    1    4    4    0  503  0.47050190740E+02  0.30279524300E+02 -0.29129176735E+02  0.63254794109E+02  0.47000000000E+01 0.  1.
          5    1    4    4  503    0 -0.33674372163E+02 -0.17216906255E+01  0.20496850050E+02  0.39738374667E+02  0.47000000000E+01 0. -1.
         -5    1    3    3    0  502  0.42914421406E+02  0.25499889437E+02  0.46275730417E+02  0.68230676030E+02  0.47000000000E+01 0.  1.
<mgrwt>
<rscale>  0 0.12177341E+03</rscale>
<asrwt>0</asrwt>
<pdfrwt beam="1">  1        2 0.27347559E-01 0.12891717E+03</pdfrwt>
<pdfrwt beam="2">  1       -2 0.13481837E-01 0.12891717E+03</pdfrwt>
<totfact> 0.74997322E+03</totfact>
</mgrwt>
</event>
<event>
 8    1  0.3629925E-004  0.1816440E+03  0.7546771E-02  0.1171695E+00
         -1   -1    0    0    0  501 -0.00000000000E+00  0.00000000000E+00  0.36400338250E+02  0.36400338250E+02  0.00000000000E+00 0.  1.
          1   -1    0    0  501    0  0.00000000000E+00 -0.00000000000E+00 -0.89172876135E+03  0.89172876135E+03  0.00000000000E+00 0. -1.
         25    2    1    2    0    0  0.10317142259E+03  0.82008985196E+02 -0.30543408556E+03  0.35536534756E+03  0.12499893414E+03 0.  0.
         23    2    1    2    0    0 -0.10317142259E+03 -0.82008985196E+02 -0.54989433754E+03  0.57276375204E+03  0.91130220551E+02 0.  0.
          5    1    3    3  502    0  0.95171133629E+02 -0.13706621281E+01 -0.19121750151E+03  0.21364841744E+03  0.47000000000E+01 0.  1.
         -5    1    3    3    0  502  0.80002889599E+01  0.83379647325E+02 -0.11421658405E+03  0.14171693012E+03  0.47000000000E+01 0.  1.
          5    1    4    4  503    0 -0.51962440527E+02 -0.93130497085E+01 -0.34923964249E+03  0.35323822841E+03  0.47000000000E+01 0. -1.
         -5    1    4    4    0  503 -0.51208982063E+02 -0.72695935488E+02 -0.20065469505E+03  0.21952552363E+03  0.47000000000E+01 0.  1.
<mgrwt>
<rscale>  0 0.17603687E+03</rscale>
<asrwt>0</asrwt>
<pdfrwt beam="1">  1        1 0.13718904E+00 0.18164402E+03</pdfrwt>
<pdfrwt beam="2">  1       -1 0.56000522E-02 0.18164402E+03</pdfrwt>
<totfact> 0.28494522E+03</totfact>
</mgrwt>
</event>
<event>
 8    1  0.3629925E-004  0.1902081E+03  0.7546771E-02  0.1163167E+00
          1   -1    0    0  501    0  0.00000000000E+00  0.00000000000E+00  0.13210828710E+04  0.13210828710E+04  0.00000000000E+00 0. -1.
         -1   -1    0    0    0  501 -0.00000000000E+00 -0.00000000000E+00 -0.27690632212E+02  0.27690632212E+02  0.00000000000E+00 0.  1.
         25    2    1    2    0    0 -0.14086118768E+03  0.26717666296E+02  0.45137097493E+03  0.48981105835E+03  0.12499363177E+03 0.  0.
         23    2    1    2    0    0  0.14086118768E+03 -0.26717666296E+02  0.84202126388E+03  0.85896244489E+03  0.90889850966E+02 0.  0.
          5    1    4    4  502    0  0.87668077250E+02 -0.38282392568E+02  0.70456338972E+03  0.71104352433E+03  0.47000000000E+01 0. -1.
         -5    1    4    4    0  502  0.53193110433E+02  0.11564726272E+02  0.13745787416E+03  0.14791892056E+03  0.47000000000E+01 0.  1.
          5    1    3    3  503    0 -0.53414317929E+02  0.71632587469E+02  0.25321667792E+03  0.26856115305E+03  0.47000000000E+01 0.  1.
         -5    1    3    3    0  503 -0.87446869754E+02 -0.44914921174E+02  0.19815429700E+03  0.22124990530E+03  0.47000000000E+01 0.  1.
<mgrwt>
<rscale>  0 0.18487458E+03</rscale>
<asrwt>0</asrwt>
<pdfrwt beam="1">  1        1 0.20324347E+00 0.19020809E+03</pdfrwt>
<pdfrwt beam="2">  1       -1 0.42600983E-02 0.19020809E+03</pdfrwt>
<totfact> 0.21101736E+03</totfact>
</mgrwt>
</event>
<event>
 8    1  0.3629925E-004  0.1315141E+03  0.7546771E-02  0.1238711E+00
          4   -1    0    0  501    0  0.00000000000E+00  0.00000000000E+00  0.44549939039E+02  0.44549939039E+02  0.00000000000E+00 0. -1.
         -4   -1    0    0    0  501 -0.00000000000E+00 -0.00000000000E+00 -0.37497704102E+03  0.37497704102E+03  0.00000000000E+00 0.  1.
         25    2    1    2    0    0  0.18778941563E+02 -0.36302243313E+02 -0.90252367557E+02  0.15950373726E+03  0.12500180333E+03 0.  0.
         23    2    1    2    0    0 -0.18778941563E+02  0.36302243313E+02 -0.24017473443E+03  0.26002324280E+03  0.90871790034E+02 0.  0.
          5    1    4    4  502    0 -0.28414095783E+02 -0.24554354455E+02 -0.91312179705E+02  0.98844733418E+02  0.47000000000E+01 0. -1.
         -5    1    4    4    0  502  0.96351542204E+01  0.60856597768E+02 -0.14886255472E+03  0.16117850939E+03  0.47000000000E+01 0.  1.
          5    1    3    3  503    0  0.51301194862E+02 -0.62072464062E+02 -0.85382358345E+02  0.11746080412E+03  0.47000000000E+01 0.  1.
         -5    1    3    3    0  503 -0.32522253299E+02  0.25770220748E+02 -0.48700092115E+01  0.42042933137E+02  0.47000000000E+01 0.  1.
<mgrwt>
<rscale>  0 0.12269812E+03</rscale>
<asrwt>0</asrwt>
<pdfrwt beam="1">  1        4 0.68538370E-02 0.13151408E+03</pdfrwt>
<pdfrwt beam="2">  1       -4 0.57688774E-01 0.13151408E+03</pdfrwt>
<totfact> 0.67707093E+02</totfact>
</mgrwt>
</event>
<event>
 8    1  0.3629925E-004  0.1255979E+03  0.7546771E-02  0.1249163E+00
         -1   -1    0    0    0  501 -0.00000000000E+00  0.00000000000E+00  0.26052606662E+02  0.26052606662E+02  0.00000000000E+00 0. -1.
          1   -1    0    0  501    0  0.00000000000E+00 -0.00000000000E+00 -0.50204757221E+03  0.50204757221E+03  0.00000000000E+00 0.  1.
         25    2    1    2    0    0 -0.10563210651E+02  0.62287016164E+01 -0.34894404656E+03  0.37085952903E+03  0.12499785797E+03 0.  0.
         23    2    1    2    0    0  0.10563210651E+02 -0.62287016164E+01 -0.12705091899E+03  0.15724064984E+03  0.91827598274E+02 0.  0.
          5    1    3    3  502    0  0.11573943928E+02 -0.30987295452E+02 -0.31188904785E+03  0.31367345572E+03  0.47000000000E+01 0. -1.
         -5    1    3    3    0  502 -0.22137154579E+02  0.37215997068E+02 -0.37054998716E+02  0.57186073309E+02  0.47000000000E+01 0. -1.
          5    1    4    4  503    0 -0.39623587543E+02  0.61553710832E+01 -0.62557772897E+02  0.74454564889E+02  0.47000000000E+01 0. -1.
         -5    1    4    4    0  503  0.50186798194E+02 -0.12384072700E+02 -0.64493146090E+02  0.82786084955E+02  0.47000000000E+01 0.  1.
<mgrwt>
<rscale>  0 0.11639647E+03</rscale>
<asrwt>0</asrwt>
<pdfrwt beam="1">  1        1 0.77238093E-01 0.12559794E+03</pdfrwt>
<pdfrwt beam="2">  1       -1 0.40080931E-02 0.12559794E+03</pdfrwt>
<totfact> 0.10419646E+04</totfact>
</mgrwt>
</event>
<event>
 8    1  0.3629925E-004  0.2803079E+03  0.7546771E-02  0.1097390E+00
          2   -1    0    0  501    0  0.00000000000E+00  0.00000000000E+00  0.24390001083E+03  0.24390001083E+03  0.00000000000E+00 0.  1.
         -2   -1    0    0    0  501 -0.00000000000E+00 -0.00000000000E+00 -0.37903679651E+03  0.37903679651E+03  0.00000000000E+00 0. -1.
         25    2    1    2    0    0  0.27199202890E+02  0.24940506233E+03 -0.20466861920E+03  0.34707598356E+03  0.12501925023E+03 0.  0.
         23    2    1    2    0    0 -0.27199202890E+02 -0.24940506233E+03  0.69531833514E+02  0.27586082377E+03  0.91224100251E+02 0.  0.
          5    1    3    3  502    0  0.60380829517E+02  0.11128502687E+03 -0.47845704110E+02  0.13543080588E+03  0.47000000000E+01 0. -1.
         -5    1    3    3    0  502 -0.33181626628E+02  0.13812003546E+03 -0.15682291509E+03  0.21164517768E+03  0.47000000000E+01 0. -1.
          5    1    4    4  503    0 -0.53624498574E+02 -0.21386252176E+03  0.45228778139E+02  0.22512329385E+03  0.47000000000E+01 0. -1.
         -5    1    4    4    0  503  0.26425295685E+02 -0.35542540568E+02  0.24303055375E+02  0.50737529922E+02  0.47000000000E+01 0.  1.
<mgrwt>
<rscale>  0 0.27690808E+03</rscale>
<asrwt>0</asrwt>
<pdfrwt beam="1">  1        2 0.37523079E-01 0.28030786E+03</pdfrwt>
<pdfrwt beam="2">  1       -2 0.58313353E-01 0.28030786E+03</pdfrwt>
<totfact> 0.38631887E+02</totfact>
</mgrwt>
</event>
<event>
 8    1  0.3629925E-004  0.3191549E+03  0.7546771E-02  0.1077361E+00
          1   -1    0    0  501    0  0.00000000000E+00  0.00000000000E+00  0.27900609281E+03  0.27900609281E+03  0.00000000000E+00 0. -1.
         -1   -1    0    0    0  501 -0.00000000000E+00 -0.00000000000E+00 -0.35241162914E+03  0.35241162914E+03  0.00000000000E+00 0.  1.
         25    2    1    2    0    0  0.27070059046E+03  0.11383217952E+03 -0.32883473359E+02  0.32084449997E+03  0.12499318208E+03 0.  0.
         23    2    1    2    0    0 -0.27070059046E+03 -0.11383217952E+03 -0.40522062975E+02  0.31057322198E+03  0.92612708918E+02 0.  0.
          5    1    4    4  502    0 -0.15073821252E+03 -0.99805489514E+02  0.62865126618E+01  0.18095511789E+03  0.47000000000E+01 0. -1.
         -5    1    3    3    0  503  0.18015964323E+03  0.95167944593E+02 -0.77557858676E+02  0.21806362872E+03  0.47000000000E+01 0.  1.
          5    1    3    3  503    0  0.90540947231E+02  0.18664234932E+02  0.44674385317E+02  0.10278087125E+03  0.47000000000E+01 0.  1.
         -5    1    4    4    0  502 -0.11996237795E+03 -0.14026690010E+02 -0.46808575636E+02  0.12961810409E+03  0.47000000000E+01 0.  1.
<mgrwt>
<rscale>  0 0.31630791E+03</rscale>
<asrwt>0</asrwt>
<pdfrwt beam="1">  1        1 0.42924014E-01 0.31915493E+03</pdfrwt>
<pdfrwt beam="2">  1       -1 0.54217174E-01 0.31915493E+03</pdfrwt>
<totfact> 0.34018882E+02</totfact>
</mgrwt>
</event>
<event>
 8    1  0.3629925E-004  0.1290499E+03  0.7546771E-02  0.1242372E+00
          3   -1    0    0  501    0  0.00000000000E+00  0.00000000000E+00  0.87950044178E+03  0.87950044178E+03  0.00000000000E+00 0. -1.
         -3   -1    0    0    0  501 -0.00000000000E+00 -0.00000000000E+00 -0.14687125169E+02  0.14687125169E+02  0.00000000000E+00 0.  1.
         25    2    1    2    0    0 -0.22286736299E+02 -0.23091724429E+02  0.51614042110E+03  0.53202895056E+03  0.12499577428E+03 0.  0.
         23    2    1    2    0    0  0.22286736299E+02  0.23091724429E+02  0.34867289551E+03  0.36215861639E+03  0.92499454102E+02 0.  0.
          5    1    4    4  502    0  0.21358455904E+02  0.46978673494E+02  0.32155748294E+03  0.32570613172E+03  0.47000000000E+01 0. -1.
         -5    1    4    4    0  502  0.92828039429E+00 -0.23886949064E+02  0.27115412572E+02  0.36452484676E+02  0.47000000000E+01 0.  1.
          5    1    3    3  503    0 -0.42359435589E+02  0.25212300543E+02  0.90508819146E+02  0.10316936670E+03  0.47000000000E+01 0.  1.
         -5    1    3    3    0  503  0.20072699291E+02 -0.48304024972E+02  0.42563160195E+03  0.42885958386E+03  0.47000000000E+01 0.  1.
<mgrwt>
<rscale>  0 0.12044071E+03</rscale>
<asrwt>0</asrwt>
<pdfrwt beam="1">  1        3 0.13530772E+00 0.12904987E+03</pdfrwt>
<pdfrwt beam="2">  1       -3 0.22595584E-02 0.12904987E+03</pdfrwt>
<totfact> 0.80627979E+02</totfact>
</mgrwt>
</event>
<event>
 8    1  0.3629925E-004  0.2943891E+03  0.7546771E-02  0.1089733E+00
          2   -1    0    0  501    0  0.00000000000E+00  0.00000000000E+00  0.79282622150E+03  0.79282622150E+03  0.00000000000E+00 0. -1.
         -2   -1    0    0    0  501 -0.00000000000E+00 -0.00000000000E+00 -0.12077617312E+03  0.12077617312E+03  0.00000000000E+00 0.  1.
         25    2    1    2    0    0 -0.22586836870E+03  0.14150485672E+03  0.17565462803E+03  0.34281115895E+03  0.12499919158E+03 0.  0.
         23    2    1    2    0    0  0.22586836870E+03 -0.14150485672E+03  0.49639542035E+03  0.57079123568E+03  0.91400639623E+02 0.  0.
          5    1    3    3  502    0 -0.19074309871E+02  0.14059241236E+02 -0.19607521936E+02  0.31113284585E+02  0.47000000000E+01 0. -1.
         -5    1    4    4    0  503  0.94755688593E+02 -0.22334819686E+02  0.11878504654E+03  0.15365370797E+03  0.47000000000E+01 0.  1.
          5    1    4    4  503    0  0.13111268011E+03 -0.11917003703E+03  0.37761037381E+03  0.41713752771E+03  0.47000000000E+01 0. -1.
         -5    1    3    3    0  502 -0.20679405883E+03  0.12744561548E+03  0.19526214997E+03  0.31169787436E+03  0.47000000000E+01 0. -1.
<mgrwt>
<rscale>  0 0.29118226E+03</rscale>
<asrwt>0</asrwt>
<pdfrwt beam="1">  1        2 0.12197326E+00 0.29438910E+03</pdfrwt>
<pdfrwt beam="2">  1       -2 0.18580950E-01 0.29438910E+03</pdfrwt>
<totfact> 0.85779401E+02</totfact>
</mgrwt>
</event>
<event>
 8    1  0.3629925E-004  0.1900289E+03  0.7546771E-02  0.1163311E+00
         -1   -1    0    0    0  501 -0.00000000000E+00  0.00000000000E+00  0.45913656292E+02  0.45913656292E+02  0.00000000000E+00 0.  1.
          1   -1    0    0  501    0  0.00000000000E+00 -0.00000000000E+00 -0.86005936197E+03  0.86005936197E+03  0.00000000000E+00 0. -1.
         25    2    1    2    0    0  0.60792420383E+02  0.12956794787E+03 -0.23354388595E+03  0.30108759664E+03  0.12500969039E+03 0.  0.
         23    2    1    2    0    0 -0.60792420383E+02 -0.12956794787E+03 -0.58060181972E+03  0.60488542162E+03  0.91128089704E+02 0.  0.
          5    1    4    4  502    0 -0.80291593098E+02 -0.94240618049E+02 -0.49288348371E+03  0.50821673775E+03  0.47000000000E+01 0. -1.
         -5    1    4    4    0  502  0.19499172715E+02 -0.35327329825E+02 -0.87718336011E+02  0.96668683873E+02  0.47000000000E+01 0.  1.
          5    1    3    3  503    0  0.98115635985E+02  0.82936968706E+02 -0.17654419349E+03  0.21839221840E+03  0.47000000000E+01 0. -1.
         -5    1    3    3    0  503 -0.37323215602E+02  0.46630979168E+02 -0.56999692463E+02  0.82695378238E+02  0.47000000000E+01 0. -1.
<mgrwt>
<rscale>  0 0.18472090E+03</rscale>
<asrwt>0</asrwt>
<pdfrwt beam="1">  1        1 0.13231683E+00 0.19002893E+03</pdfrwt>
<pdfrwt beam="2">  1       -1 0.70636392E-02 0.19002893E+03</pdfrwt>
<totfact> 0.21301790E+03</totfact>
</mgrwt>
</event>
<event>
 8    1  0.3629925E-004  0.2173803E+03  0.7546771E-02  0.1139924E+00
          2   -1    0    0  501    0  0.00000000000E+00  0.00000000000E+00  0.43942141411E+03  0.43942141411E+03  0.00000000000E+00 0. -1.
         -2   -1    0    0    0  501 -0.00000000000E+00 -0.00000000000E+00 -0.12302496284E+03  0.12302496284E+03  0.00000000000E+00 0.  1.
         25    2    1    2    0    0 -0.17784216994E+03 -0.18117781864E+01  0.29191423944E+03  0.36396171845E+03  0.12499235720E+03 0.  0.
         23    2    1    2    0    0  0.17784216994E+03  0.18117781864E+01  0.24482211827E+02  0.19848465849E+03  0.84650227474E+02 0.  0.
          5    1    4    4  502    0  0.15393877155E+03 -0.95869489374E+01  0.49193305439E+02  0.16196026141E+03  0.47000000000E+01 0. -1.
         -5    1    4    4    0  502  0.23903398393E+02  0.11398727124E+02 -0.24711093612E+02  0.36524397083E+02  0.47000000000E+01 0.  1.
          5    1    3    3  503    0 -0.17044143879E+03  0.21079958254E+02  0.29274406627E+03  0.33943456958E+03  0.47000000000E+01 0.  1.
         -5    1    3    3    0  503 -0.74007311560E+01 -0.22891736440E+02 -0.82982682305E+00  0.24527148865E+02  0.47000000000E+01 0.  1.
<mgrwt>
<rscale>  0 0.21208729E+03</rscale>
<asrwt>0</asrwt>
<pdfrwt beam="1">  1        2 0.67603293E-01 0.21738033E+03</pdfrwt>
<pdfrwt beam="2">  1       -2 0.18926918E-01 0.21738033E+03</pdfrwt>
<totfact> 0.16545365E+03</totfact>
</mgrwt>
</event>
<event>
 8    1  0.3629925E-004  0.1300361E+03  0.7546771E-02  0.1241432E+00
          2   -1    0    0  501    0  0.00000000000E+00  0.00000000000E+00  0.25278900307E+02  0.25278900307E+02  0.00000000000E+00 0. -1.
         -2   -1    0    0    0  501 -0.00000000000E+00 -0.00000000000E+00 -0.74379851615E+03  0.74379851615E+03  0.00000000000E+00 0.  1.
         25    2    1    2    0    0 -0.34721133828E+02 -0.88518698632E+01 -0.18151508776E+03  0.22328708813E+03  0.12500193562E+03 0.  0.
         23    2    1    2    0    0  0.34721133828E+02  0.88518698632E+01 -0.53700452808E+03  0.54579032832E+03  0.90715525524E+02 0.  0.
          5    1    3    3  502    0  0.18020733479E+01  0.42916709236E+02 -0.16135985263E+02  0.46125388025E+02  0.47000000000E+01 0.  1.
         -5    1    4    4    0  503 -0.11878244801E+01  0.45513018097E+02 -0.23386324628E+03  0.23830013366E+03  0.47000000000E+01 0.  1.
          5    1    4    4  503    0  0.35908958308E+02 -0.36661148234E+02 -0.30314128181E+03  0.30749019466E+03  0.47000000000E+01 0. -1.
         -5    1    3    3    0  502 -0.36523207175E+02 -0.51768579099E+02 -0.16537910249E+03  0.17716170011E+03  0.47000000000E+01 0.  1.
<mgrwt>
<rscale>  0 0.12101494E+03</rscale>
<asrwt>0</asrwt>
<pdfrwt beam="1">  1        2 0.38890619E-02 0.13003614E+03</pdfrwt>
<pdfrwt beam="2">  1       -2 0.11443053E+00 0.13003614E+03</pdfrwt>
<totfact> 0.13206447E+03</totfact>
</mgrwt>
</event>
<event>
 8    1  0.3629925E-004  0.2037205E+03  0.7546771E-02  0.1150616E+00
         -2   -1    0    0    0  501 -0.00000000000E+00  0.00000000000E+00  0.25200767073E+03  0.25200767073E+03  0.00000000000E+00 0.  1.
          2   -1    0    0  501    0  0.00000000000E+00 -0.00000000000E+00 -0.16700862325E+03  0.16700862325E+03  0.00000000000E+00 0. -1.
         25    2    1    2    0    0  0.76160560278E+02 -0.14169233850E+03  0.11076164191E+03  0.23188401704E+03  0.12499962524E+03 0.  0.
         23    2    1    2    0    0 -0.76160560278E+02  0.14169233850E+03 -0.25762594437E+02  0.18713227694E+03  0.92074035809E+02 0.  0.
          5    1    3    3  502    0  0.76428995108E+02 -0.92008947061E+02  0.13151485261E+03  0.17783499118E+03  0.47000000000E+01 0.  1.
         -5    1    3    3    0  502 -0.26843482970E+00 -0.49683391438E+02 -0.20753210697E+02  0.54049025859E+02  0.47000000000E+01 0.  1.
          5    1    4    4  503    0 -0.20193140662E+02  0.10031564608E+03 -0.49068966681E+02  0.11358188795E+03  0.47000000000E+01 0. -1.
         -5    1    4    4    0  503 -0.55967419616E+02  0.41376692416E+02  0.23306372244E+02  0.73550388993E+02  0.47000000000E+01 0.  1.
<mgrwt>
<rscale>  0 0.19896400E+03</rscale>
<asrwt>0</asrwt>
<pdfrwt beam="1">  1        2 0.25693634E-01 0.20372053E+03</pdfrwt>
<pdfrwt beam="2">  1       -2 0.38770411E-01 0.20372053E+03</pdfrwt>
<totfact> 0.13093742E+03</totfact>
</mgrwt>
</event>
<event>
 8    1  0.3629925E-004  0.2252969E+03  0.7546771E-02  0.1133397E+00
          2   -1    0    0  501    0  0.00000000000E+00  0.00000000000E+00  0.96660623146E+03  0.96660623146E+03  0.00000000000E+00 0. -1.
         -2   -1    0    0    0  501 -0.00000000000E+00 -0.00000000000E+00 -0.48408439308E+02  0.48408439308E+02  0.00000000000E+00 0.  1.
         25    2    1    2    0    0 -0.60679944432E+02  0.17734940311E+03  0.47105673311E+03  0.52216197773E+03  0.12499527489E+03 0.  0.
         23    2    1    2    0    0  0.60679944432E+02 -0.17734940311E+03  0.44714105904E+03  0.49285269303E+03  0.88508665735E+02 0.  0.
          5    1    3    3  502    0  0.22759137073E+02  0.44865397664E+01  0.11723879218E+03  0.11960406244E+03  0.47000000000E+01 0.  1.
         -5    1    4    4    0  503  0.82337090644E+02 -0.11830633443E+03  0.30897355867E+03  0.34097292446E+03  0.47000000000E+01 0.  1.
          5    1    4    4  503    0 -0.21657146212E+02 -0.59043068674E+02  0.13816750037E+03  0.15187976857E+03  0.47000000000E+01 0. -1.
         -5    1    3    3    0  502 -0.83439081506E+02  0.17286286334E+03  0.35381794093E+03  0.40255791530E+03  0.47000000000E+01 0.  1.
<mgrwt>
<rscale>  0 0.22065326E+03</rscale>
<asrwt>0</asrwt>
<pdfrwt beam="1">  1        2 0.14870864E+00 0.22529688E+03</pdfrwt>
<pdfrwt beam="2">  1       -2 0.74474530E-02 0.22529688E+03</pdfrwt>
<totfact> 0.29004673E+03</totfact>
</mgrwt>
</event>
<event>
 8    1  0.3629925E-004  0.1462061E+03  0.7546771E-02  0.1215465E+00
         -1   -1    0    0    0  501 -0.00000000000E+00  0.00000000000E+00  0.52632424992E+03  0.52632424992E+03  0.00000000000E+00 0.  1.
          1   -1    0    0  501    0  0.00000000000E+00 -0.00000000000E+00 -0.33117639543E+02  0.33117639543E+02  0.00000000000E+00 0. -1.
         25    2    1    2    0    0  0.70048141795E+02  0.29112129371E+02  0.28805495223E+03  0.32303542518E+03  0.12498788809E+03 0.  0.
         23    2    1    2    0    0 -0.70048141795E+02 -0.29112129371E+02  0.20515165814E+03  0.23640646428E+03  0.89702593445E+02 0.  0.
          5    1    4    4  502    0 -0.46654510626E+02  0.43192163103E+01  0.28498809833E+02  0.55041540250E+02  0.47000000000E+01 0. -1.
         -5    1    3    3    0  503  0.92476149592E+02 -0.11402433187E+02  0.14341079471E+03  0.17108652713E+03  0.47000000000E+01 0.  1.
          5    1    3    3  503    0 -0.22428007797E+02  0.40514562558E+02  0.14464415752E+03  0.15194889805E+03  0.47000000000E+01 0.  1.
         -5    1    4    4    0  502 -0.23393631169E+02 -0.33431345682E+02  0.17665284831E+03  0.18136492403E+03  0.47000000000E+01 0.  1.
<mgrwt>
<rscale>  0 0.13842427E+03</rscale>
<asrwt>0</asrwt>
<pdfrwt beam="1">  1        1 0.50950219E-02 0.14620612E+03</pdfrwt>
<pdfrwt beam="2">  1       -1 0.80972955E-01 0.14620612E+03</pdfrwt>
<totfact> 0.25039119E+03</totfact>
</mgrwt>
</event>
<event>
 8    1  0.3629925E-004  0.4767367E+03  0.7546771E-02  0.1020529E+00
          1   -1    0    0  501    0  0.00000000000E+00  0.00000000000E+00  0.13096847087E+03  0.13096847087E+03  0.00000000000E+00 0. -1.
         -1   -1    0    0    0  501 -0.00000000000E+00 -0.00000000000E+00 -0.18857170628E+04  0.18857170628E+04  0.00000000000E+00 0.  1.
         25    2    1    2    0    0  0.44500270851E+03 -0.11673253143E+03 -0.57529833785E+03  0.74715864940E+03  0.12499590136E+03 0.  0.
         23    2    1    2    0    0 -0.44500270851E+03  0.11673253143E+03 -0.11794502540E+04  0.12695268842E+04  0.94560634277E+02 0.  0.
          5    1    3    3  502    0  0.14879205157E+03  0.11853201921E+02 -0.23129323448E+03  0.27531477135E+03  0.47000000000E+01 0.  1.
         -5    1    4    4    0  503 -0.21396131584E+03  0.13215874810E+02 -0.60012659802E+03  0.63728182750E+03  0.47000000000E+01 0.  1.
          5    1    4    4  503    0 -0.23104139267E+03  0.10351665662E+03 -0.57932365603E+03  0.63224505673E+03  0.47000000000E+01 0. -1.
         -5    1    3    3    0  502  0.29621065694E+03 -0.12858573335E+03 -0.34400510337E+03  0.47184387804E+03  0.47000000000E+01 0.  1.
<mgrwt>
<rscale>  0 0.47496164E+03</rscale>
<asrwt>0</asrwt>
<pdfrwt beam="1">  1        1 0.20148995E-01 0.47673669E+03</pdfrwt>
<pdfrwt beam="2">  1       -1 0.29011033E+00 0.47673669E+03</pdfrwt>
<totfact> 0.10765789E+01</totfact>
</mgrwt>
</event>
<event>
 8    1  0.3629925E-004  0.2127101E+03  0.7546771E-02  0.1143397E+00
          1   -1    0    0  501    0  0.00000000000E+00  0.00000000000E+00  0.27660699394E+04  0.27660699394E+04  0.00000000000E+00 0. -1.
         -1   -1    0    0    0  501 -0.00000000000E+00 -0.00000000000E+00 -0.14908966963E+02  0.14908966963E+02  0.00000000000E+00 0.  1.
         25    2    1    2    0    0 -0.10056346537E+02 -0.17181122405E+03  0.14178132899E+04  0.14336806133E+04  0.12500139736E+03 0.  0.
         23    2    1    2    0    0  0.10056346537E+02  0.17181122405E+03  0.13333476826E+04  0.13472982931E+04  0.88184017517E+02 0.  0.
          5    1    3    3  502    0 -0.51983536512E+02 -0.21263513495E+02  0.37305489263E+03  0.37728830884E+03  0.47000000000E+01 0. -1.
         -5    1    3    3    0  502  0.41927189975E+02 -0.15054771055E+03  0.10447583972E+04  0.10563923045E+04  0.47000000000E+01 0. -1.
          5    1    4    4  503    0 -0.30030128487E+02  0.64697815635E+02  0.70455487189E+03  0.70817178246E+03  0.47000000000E+01 0. -1.
         -5    1    4    4    0  503  0.40086475024E+02  0.10711340841E+03  0.62879281073E+03  0.63912651061E+03  0.47000000000E+01 0.  1.
<mgrwt>
<rscale>  0 0.20770413E+03</rscale>
<asrwt>0</asrwt>
<pdfrwt beam="1">  1        1 0.42554881E+00 0.21271008E+03</pdfrwt>
<pdfrwt beam="2">  1       -1 0.22936894E-02 0.21271008E+03</pdfrwt>
<totfact> 0.59432504E+02</totfact>
</mgrwt>
</event>
<event>
 8    1  0.3629925E-004  0.1883412E+03  0.7546771E-02  0.1164888E+00
          3   -1    0    0  501    0  0.00000000000E+00  0.00000000000E+00  0.19789869529E+03  0.19789869529E+03  0.00000000000E+00 0.  1.
         -3   -1    0    0    0  501 -0.00000000000E+00 -0.00000000000E+00 -0.16286561799E+03  0.16286561799E+03  0.00000000000E+00 0. -1.
         25    2    1    2    0    0 -0.12890198011E+03 -0.56856399153E+02  0.40477917345E+02  0.19264183117E+03  0.12499617083E+03 0.  0.
         23    2    1    2    0    0  0.12890198011E+03  0.56856399153E+02 -0.54448400453E+01  0.16812248211E+03  0.91581396080E+02 0.  0.
          5    1    4    4  502    0  0.41944045876E+02  0.17722086594E+02 -0.45540496899E+02  0.64570908275E+02  0.47000000000E+01 0. -1.
         -5    1    3    3    0  503 -0.38881560250E+02 -0.83815093594E+02  0.70117177714E+01  0.92779307109E+02  0.47000000000E+01 0. -1.
          5    1    3    3  503    0 -0.90020419861E+02  0.26958694440E+02  0.33466199574E+02  0.99862524061E+02  0.47000000000E+01 0. -1.
         -5    1    4    4    0  502  0.86957934236E+02  0.39134312560E+02  0.40095656854E+02  0.10355157384E+03  0.47000000000E+01 0.  1.
<mgrwt>
<rscale>  0 0.18304527E+03</rscale>
<asrwt>0</asrwt>
<pdfrwt beam="1">  1        3 0.30445953E-01 0.18834122E+03</pdfrwt>
<pdfrwt beam="2">  1       -3 0.25056249E-01 0.18834122E+03</pdfrwt>
<totfact> 0.37891492E+02</totfact>
</mgrwt>
</event>
<event>
 8    1  0.3629925E-004  0.1335403E+03  0.7546771E-02  0.1234016E+00
         -1   -1    0    0    0  501 -0.00000000000E+00  0.00000000000E+00  0.49828725973E+03  0.49828725973E+03  0.00000000000E+00 0.  1.
          1   -1    0    0  501    0  0.00000000000E+00 -0.00000000000E+00 -0.30092308511E+02  0.30092308511E+02  0.00000000000E+00 0. -1.
         25    2    1    2    0    0  0.99628639831E+01  0.45967834292E+02  0.20033025829E+03  0.24075970247E+03  0.12498288482E+03 0.  0.
         23    2    1    2    0    0 -0.99628639831E+01 -0.45967834292E+02  0.26786469293E+03  0.28761986577E+03  0.93602313116E+02 0.  0.
          5    1    4    4  502    0  0.94762680415E+01  0.20451051521E+02  0.20889083045E+02  0.31088405472E+02  0.47000000000E+01 0. -1.
         -5    1    3    3    0  503 -0.26063948775E+02 -0.30624362663E+02  0.29640402873E+02  0.50177928383E+02  0.47000000000E+01 0. -1.
          5    1    3    3  503    0  0.36026812758E+02  0.76592196955E+02  0.17068985542E+03  0.19058177409E+03  0.47000000000E+01 0. -1.
         -5    1    4    4    0  502 -0.19439132025E+02 -0.66418885813E+02  0.24697560989E+03  0.25653146030E+03  0.47000000000E+01 0.  1.
<mgrwt>
<rscale>  0 0.12567632E+03</rscale>
<asrwt>0</asrwt>
<pdfrwt beam="1">  1        1 0.46295863E-02 0.13354034E+03</pdfrwt>
<pdfrwt beam="2">  1       -1 0.76659573E-01 0.13354034E+03</pdfrwt>
<totfact> 0.31764598E+03</totfact>
</mgrwt>
</event>
<event>
 8    1  0.3629925E-004  0.1474055E+03  0.7546771E-02  0.1212720E+00
          1   -1    0    0  501    0  0.00000000000E+00  0.00000000000E+00  0.38463453357E+03  0.38463453357E+03  0.00000000000E+00 0. -1.
         -1   -1    0    0    0  501 -0.00000000000E+00 -0.00000000000E+00 -0.47119332909E+02  0.47119332909E+02  0.00000000000E+00 0.  1.
         25    2    1    2    0    0  0.31195341823E+01 -0.78064129436E+02  0.17419647163E+03  0.22819464653E+03  0.12499858471E+03 0.  0.
         23    2    1    2    0    0 -0.31195341823E+01  0.78064129436E+02  0.16331872903E+03  0.20355921995E+03  0.93057020022E+02 0.  0.
          5    1    4    4  502    0 -0.33419903850E+02  0.88485140504E+01  0.96398512516E+02  0.10251804421E+03  0.47000000000E+01 0. -1.
         -5    1    3    3    0  503 -0.34417442888E+02 -0.43799053497E+02  0.10700500361E+02  0.56916677434E+02  0.47000000000E+01 0. -1.
          5    1    3    3  503    0  0.37536977071E+02 -0.34265075939E+02  0.16349597127E+03  0.17127796909E+03  0.47000000000E+01 0. -1.
         -5    1    4    4    0  502  0.30300369668E+02  0.69215615386E+02  0.66920216518E+02  0.10104117574E+03  0.47000000000E+01 0.  1.
<mgrwt>
<rscale>  0 0.14045377E+03</rscale>
<asrwt>0</asrwt>
<pdfrwt beam="1">  1        1 0.59174541E-01 0.14740552E+03</pdfrwt>
<pdfrwt beam="2">  1       -1 0.72491284E-02 0.14740552E+03</pdfrwt>
<totfact> 0.61419389E+03</totfact>
</mgrwt>
</event>
<event>
 8    1  0.3629925E-004  0.1292830E+03  0.7546771E-02  0.1242642E+00
          1   -1    0    0  501    0  0.00000000000E+00  0.00000000000E+00  0.23930532649E+03  0.23930532649E+03  0.00000000000E+00 0. -1.
         -1   -1    0    0    0  501 -0.00000000000E+00 -0.00000000000E+00 -0.58870034803E+02  0.58870034803E+02  0.00000000000E+00 0.  1.
         25    2    1    2    0    0 -0.30183574972E+02  0.13389785672E+02  0.14689161290E+03  0.19568149894E+03  0.12499507402E+03 0.  0.
         23    2    1    2    0    0  0.30183574972E+02 -0.13389785672E+02  0.33543678789E+02  0.10249386235E+03  0.91046575303E+02 0.  0.
          5    1    3    3  502    0  0.38658158370E+02  0.13783218384E+01  0.74993304502E+01  0.39682274844E+02  0.47000000000E+01 0. -1.
         -5    1    4    4    0  503  0.31615000013E+02 -0.46559214810E+02  0.20807671217E+01  0.56512726897E+02  0.47000000000E+01 0.  1.
          5    1    4    4  503    0 -0.14314250409E+01  0.33169429138E+02  0.31462911668E+02  0.45981135454E+02  0.47000000000E+01 0. -1.
         -5    1    3    3    0  502 -0.68841733342E+02  0.12011463834E+02  0.13939228245E+03  0.15599922410E+03  0.47000000000E+01 0. -1.
<mgrwt>
<rscale>  0 0.12027640E+03</rscale>
<asrwt>0</asrwt>
<pdfrwt beam="1">  1        1 0.36816204E-01 0.12928303E+03</pdfrwt>
<pdfrwt beam="2">  1       -1 0.90569286E-02 0.12928303E+03</pdfrwt>
<totfact> 0.78435903E+03</totfact>
</mgrwt>
</event>
<event>
 8    1  0.3629925E-004  0.2145777E+03  0.7546771E-02  0.1142187E+00
         -2   -1    0    0    0  501 -0.00000000000E+00  0.00000000000E+00  0.64555618403E+02  0.64555618403E+02  0.00000000000E+00 0.  1.
          2   -1    0    0  501    0  0.00000000000E+00 -0.00000000000E+00 -0.74131807727E+03  0.74131807727E+03  0.00000000000E+00 0. -1.
         25    2    1    2    0    0  0.17242548127E+03  0.26229146872E+02 -0.20916328975E+03  0.29965458831E+03  0.12500030311E+03 0.  0.
         23    2    1    2    0    0 -0.17242548127E+03 -0.26229146872E+02 -0.46759916912E+03  0.50621910736E+03  0.84795559811E+02 0.  0.
          5    1    4    4  502    0 -0.15877595491E+03 -0.49443843009E+02 -0.39261884693E+03  0.42641077195E+03  0.47000000000E+01 0. -1.
         -5    1    3    3    0  503  0.72704506629E+02 -0.35851753739E+02 -0.14380890409E+03  0.16514958197E+03  0.47000000000E+01 0.  1.
          5    1    3    3  503    0  0.99720974644E+02  0.62080900612E+02 -0.65354385662E+02  0.13450500634E+03  0.47000000000E+01 0.  1.
         -5    1    4    4    0  502 -0.13649526366E+02  0.23214696136E+02 -0.74980322183E+02  0.79808335413E+02  0.47000000000E+01 0.  1.
<mgrwt>
<rscale>  0 0.20921828E+03</rscale>
<asrwt>0</asrwt>
<pdfrwt beam="1">  1        2 0.11404893E+00 0.21457770E+03</pdfrwt>
<pdfrwt beam="2">  1       -2 0.99316344E-02 0.21457770E+03</pdfrwt>
<totfact> 0.26039437E+03</totfact>
</mgrwt>
</event>
<event>
 8    1  0.3629925E-004  0.1371498E+03  0.7546771E-02  0.1228740E+00
          2   -1    0    0  501    0  0.00000000000E+00  0.00000000000E+00  0.75552989482E+02  0.75552989482E+02  0.00000000000E+00 0. -1.
         -2   -1    0    0    0  501 -0.00000000000E+00 -0.00000000000E+00 -0.19953164835E+03  0.19953164835E+03  0.00000000000E+00 0.  1.
         25    2    1    2    0    0  0.67463724154E+01 -0.55996602125E+02 -0.59767694142E+02  0.14960693675E+03  0.12501570010E+03 0.  0.
         23    2    1    2    0    0 -0.67463724154E+01  0.55996602125E+02 -0.64210964721E+02  0.12547770108E+03  0.91872044098E+02 0.  0.
          5    1    4    4  502    0 -0.11276749103E+02  0.19113343435E+02  0.21926262989E+02  0.31548945724E+02  0.47000000000E+01 0. -1.
         -5    1    3    3    0  503  0.32493842929E+02 -0.96723776472E+01  0.29830023149E+02  0.45401817130E+02  0.47000000000E+01 0.  1.
          5    1    3    3  503    0 -0.25747470514E+02 -0.46324224478E+02 -0.89597717292E+02  0.10420511962E+03  0.47000000000E+01 0.  1.
         -5    1    4    4    0  502  0.45303766874E+01  0.36883258691E+02 -0.86137227711E+02  0.93928755353E+02  0.47000000000E+01 0.  1.
<mgrwt>
<rscale>  0 0.12913815E+03</rscale>
<asrwt>0</asrwt>
<pdfrwt beam="1">  1        2 0.11623537E-01 0.13714977E+03</pdfrwt>
<pdfrwt beam="2">  1       -2 0.30697176E-01 0.13714977E+03</pdfrwt>
<totfact> 0.49620271E+03</totfact>
</mgrwt>
</event>
<event>
 8    1  0.3629925E-004  0.3176201E+03  0.7546771E-02  0.1078147E+00
         -2   -1    0    0    0  501 -0.00000000000E+00  0.00000000000E+00  0.16210779963E+03  0.16210779963E+03  0.00000000000E+00 0.  1.
          2   -1    0    0  501    0  0.00000000000E+00 -0.00000000000E+00 -0.59999509074E+03  0.59999509074E+03  0.00000000000E+00 0. -1.
         25    2    1    2    0    0 -0.28228632770E+03  0.74651690025E+02 -0.23473194322E+03  0.39494506632E+03  0.12499629840E+03 0.  0.
         23    2    1    2    0    0  0.28228632770E+03 -0.74651690025E+02 -0.20315534789E+03  0.36715782405E+03  0.90963326407E+02 0.  0.
          5    1    3    3  502    0 -0.12459695393E+03  0.96354183685E+02 -0.13073652876E+03  0.20475023710E+03  0.47000000000E+01 0.  1.
         -5    1    3    3    0  502 -0.15768937378E+03 -0.21702493661E+02 -0.10399541446E+03  0.19019482922E+03  0.47000000000E+01 0.  1.
          5    1    4    4  503    0  0.16676554489E+03 -0.11111270313E+02 -0.15100808507E+03  0.22529922115E+03  0.47000000000E+01 0. -1.
         -5    1    4    4    0  503  0.11552078281E+03 -0.63540419711E+02 -0.52147262822E+02  0.14185860290E+03  0.47000000000E+01 0.  1.
<mgrwt>
<rscale>  0 0.31463095E+03</rscale>
<asrwt>0</asrwt>
<pdfrwt beam="1">  1        2 0.92306936E-01 0.31762009E+03</pdfrwt>
<pdfrwt beam="2">  1       -2 0.24939662E-01 0.31762009E+03</pdfrwt>
<totfact> 0.72229095E+02</totfact>
</mgrwt>
</event>
<event>
 8    1  0.3629925E-004  0.1276471E+03  0.7546771E-02  0.1244744E+00
         -4   -1    0    0    0  501 -0.00000000000E+00  0.00000000000E+00  0.93914883302E+02  0.93914883302E+02  0.00000000000E+00 0.  1.
          4   -1    0    0  501    0  0.00000000000E+00 -0.00000000000E+00 -0.14679052587E+03  0.14679052587E+03  0.00000000000E+00 0. -1.
         25    2    1    2    0    0 -0.24868121531E+02 -0.71064101660E+01 -0.65451066728E+02  0.14344902959E+03  0.12499942968E+03 0.  0.
         23    2    1    2    0    0  0.24868121531E+02  0.71064101660E+01  0.12575424159E+02  0.97256379579E+02  0.92907144731E+02 0.  0.
          5    1    4    4  502    0  0.26180453710E+02 -0.32456072009E+02 -0.19326922774E+02  0.46199921110E+02  0.47000000000E+01 0. -1.
         -5    1    4    4    0  502 -0.13123321791E+01  0.39562482175E+02  0.31902346933E+02  0.51056458469E+02  0.47000000000E+01 0.  1.
          5    1    3    3  503    0 -0.43078123257E+02  0.45890725975E+02 -0.89786283580E+01  0.63752562310E+02  0.47000000000E+01 0.  1.
         -5    1    3    3    0  503  0.18210001727E+02 -0.52997136141E+02 -0.56472438370E+02  0.79696467284E+02  0.47000000000E+01 0.  1.
<mgrwt>
<rscale>  0 0.11900698E+03</rscale>
<asrwt>0</asrwt>
<pdfrwt beam="1">  1        4 0.22583158E-01 0.12764710E+03</pdfrwt>
<pdfrwt beam="2">  1       -4 0.14448444E-01 0.12764710E+03</pdfrwt>
<totfact> 0.11839529E+03</totfact>
</mgrwt>
</event>
<event>
 8    1  0.3629925E-004  0.1274489E+03  0.7546771E-02  0.1249551E+00
          3   -1    0    0  501    0  0.00000000000E+00  0.00000000000E+00  0.49973178420E+02  0.49973178420E+02  0.00000000000E+00 0. -1.
         -3   -1    0    0    0  501 -0.00000000000E+00 -0.00000000000E+00 -0.26073484011E+03  0.26073484011E+03  0.00000000000E+00 0.  1.
         25    2    1    2    0    0  0.24540124962E+02  0.42918591858E+01 -0.17321800509E+03  0.21505275935E+03  0.12499029653E+03 0.  0.
         23    2    1    2    0    0 -0.24540124962E+02 -0.42918591858E+01 -0.37543656598E+02  0.95655259183E+02  0.84378697965E+02 0.  0.
          5    1    3    3  502    0 -0.44420093125E+02  0.28797780584E+02 -0.86043999450E+02  0.10113415190E+03  0.47000000000E+01 0.  1.
         -5    1    4    4    0  503 -0.10507379591E+02  0.39797025968E+02 -0.19215975702E+02  0.45667844530E+02  0.47000000000E+01 0.  1.
          5    1    4    4  503    0 -0.14032745371E+02 -0.44088885154E+02 -0.18327680896E+02  0.49987414654E+02  0.47000000000E+01 0. -1.
         -5    1    3    3    0  502  0.68960218086E+02 -0.24505921398E+02 -0.87174005641E+02  0.11391860744E+03  0.47000000000E+01 0.  1.
<mgrwt>
<rscale>  0 0.11617092E+03</rscale>
<asrwt>0</asrwt>
<pdfrwt beam="1">  1        3 0.76881814E-02 0.12744886E+03</pdfrwt>
<pdfrwt beam="2">  1       -3 0.40113052E-01 0.12744886E+03</pdfrwt>
<totfact> 0.15980286E+03</totfact>
</mgrwt>
</event>
<event>
 8    1  0.3629925E-004  0.1394029E+03  0.7546771E-02  0.1225515E+00
         -1   -1    0    0    0  501 -0.00000000000E+00  0.00000000000E+00  0.31852506934E+02  0.31852506934E+02  0.00000000000E+00 0.  1.
          1   -1    0    0  501    0  0.00000000000E+00 -0.00000000000E+00 -0.54282574206E+03  0.54282574206E+03  0.00000000000E+00 0. -1.
         25    2    1    2    0    0 -0.60831728697E+02  0.10532987665E+02 -0.37409386341E+03  0.39922347996E+03  0.12498690039E+03 0.  0.
         23    2    1    2    0    0  0.60831728697E+02 -0.10532987665E+02 -0.13687937172E+03  0.17545476903E+03  0.90757757400E+02 0.  0.
          5    1    3    3  502    0 -0.54025676350E+02 -0.24227214358E+02 -0.35251172963E+03  0.35748054653E+03  0.47000000000E+01 0. -1.
         -5    1    4    4    0  503 -0.43182581201E+01  0.31108384638E+02 -0.48022283028E+02  0.57572637730E+02  0.47000000000E+01 0.  1.
          5    1    4    4  503    0  0.65149986817E+02 -0.41641372303E+02 -0.88857088690E+02  0.11788213130E+03  0.47000000000E+01 0. -1.
         -5    1    3    3    0  502 -0.68060523467E+01  0.34760202023E+02 -0.21582133778E+02  0.41742933434E+02  0.47000000000E+01 0. -1.
<mgrwt>
<rscale>  0 0.13131674E+03</rscale>
<asrwt>0</asrwt>
<pdfrwt beam="1">  1        1 0.83511649E-01 0.13940290E+03</pdfrwt>
<pdfrwt beam="2">  1       -1 0.49003859E-02 0.13940290E+03</pdfrwt>
<totfact> 0.70428629E+03</totfact>
</mgrwt>
</event>
<event>
 8    1  0.3629925E-004  0.1784638E+03  0.7546771E-02  0.1174806E+00
         -1   -1    0    0    0  501 -0.00000000000E+00  0.00000000000E+00  0.32504056798E+02  0.32504056798E+02  0.00000000000E+00 0.  1.
          1   -1    0    0  501    0  0.00000000000E+00 -0.00000000000E+00 -0.14213081332E+04  0.14213081332E+04  0.00000000000E+00 0. -1.
         25    2    1    2    0    0  0.21421432393E+02 -0.12557538839E+03 -0.11741146224E+04  0.11876003073E+04  0.12498514946E+03 0.  0.
         23    2    1    2    0    0 -0.21421432393E+02  0.12557538839E+03 -0.21468945403E+03  0.26621188266E+03  0.92461607504E+02 0.  0.
          5    1    4    4  502    0 -0.10100546798E+02  0.19141719588E+02 -0.12365134540E+03  0.12561915337E+03  0.47000000000E+01 0. -1.
         -5    1    4    4    0  502 -0.11320885595E+02  0.10643366880E+03 -0.91038108626E+02  0.14059272929E+03  0.47000000000E+01 0.  1.
          5    1    3    3  503    0 -0.31245224776E+02  0.76939139172E+01 -0.14898300821E+03  0.15249094110E+03  0.47000000000E+01 0.  1.
         -5    1    3    3    0  503  0.52666657169E+02 -0.13326930231E+03 -0.10251316142E+04  0.10351093662E+04  0.47000000000E+01 0.  1.
<mgrwt>
<rscale>  0 0.17294946E+03</rscale>
<asrwt>0</asrwt>
<pdfrwt beam="1">  1        1 0.21866278E+00 0.17846384E+03</pdfrwt>
<pdfrwt beam="2">  1       -1 0.50006243E-02 0.17846384E+03</pdfrwt>
<totfact> 0.14254124E+03</totfact>
</mgrwt>
</event>
<event>
 8    1  0.3629925E-004  0.1444257E+03  0.7546771E-02  0.1215210E+00
          3   -1    0    0  501    0  0.00000000000E+00  0.00000000000E+00  0.23896244784E+03  0.23896244784E+03  0.00000000000E+00 0. -1.
         -3   -1    0    0    0  501 -0.00000000000E+00 -0.00000000000E+00 -0.78169628895E+02  0.78169628895E+02  0.00000000000E+00 0.  1.
         25    2    1    2    0    0 -0.34666302635E+02 -0.63469139853E+02  0.52717216729E+02  0.15374622640E+03  0.12501485088E+03 0.  0.
         23    2    1    2    0    0  0.34666302635E+02  0.63469139853E+02  0.10807560222E+03  0.16338585034E+03  0.98916712662E+02 0.  0.
          5    1    3    3  502    0 -0.57760314777E+02 -0.81718665383E+02  0.86623489518E+01  0.10055506215E+03  0.47000000000E+01 0. -1.
         -5    1    4    4    0  503 -0.32113791394E+02  0.33009513488E+02  0.58886049020E+02  0.74903807297E+02  0.47000000000E+01 0.  1.
          5    1    4    4  503    0  0.66780094029E+02  0.30459626365E+02  0.49189553196E+02  0.88482043039E+02  0.47000000000E+01 0. -1.
         -5    1    3    3    0  502  0.23094012142E+02  0.18249525530E+02  0.44054867777E+02  0.53191164245E+02  0.47000000000E+01 0. -1.
<mgrwt>
<rscale>  0 0.13861100E+03</rscale>
<asrwt>0</asrwt>
<pdfrwt beam="1">  1        3 0.36763453E-01 0.14442575E+03</pdfrwt>
<pdfrwt beam="2">  1       -3 0.12026097E-01 0.14442575E+03</pdfrwt>
<totfact> 0.92199228E+02</totfact>
</mgrwt>
</event>
<event>
 8    1  0.3629925E-004  0.1257306E+03  0.7546771E-02  0.1249513E+00
          2   -1    0    0  501    0  0.00000000000E+00  0.00000000000E+00  0.15841970761E+02  0.15841970761E+02  0.00000000000E+00 0. -1.
         -2   -1    0    0    0  501 -0.00000000000E+00 -0.00000000000E+00 -0.75513080786E+03  0.75513080786E+03  0.00000000000E+00 0.  1.
         25    2    1    2    0    0  0.51518861269E+01 -0.12511710277E+02 -0.38514520267E+03  0.40514812735E+03  0.12500037252E+03 0.  0.
         23    2    1    2    0    0 -0.51518861269E+01  0.12511710277E+02 -0.35414363442E+03  0.36582465127E+03  0.90702132532E+02 0.  0.
          5    1    3    3  502    0  0.46655001551E+01 -0.61978450430E+02 -0.30133304511E+03  0.30771218579E+03  0.47000000000E+01 0.  1.
         -5    1    4    4    0  503 -0.72531904254E+01  0.49399488724E+02 -0.25568620127E+03  0.26055794323E+03  0.47000000000E+01 0.  1.
          5    1    4    4  503    0  0.21013042985E+01 -0.36887778447E+02 -0.98457433150E+02  0.10526670804E+03  0.47000000000E+01 0. -1.
         -5    1    3    3    0  502  0.48638597177E+00  0.49466740153E+02 -0.83812157563E+02  0.97435941562E+02  0.47000000000E+01 0.  1.
<mgrwt>
<rscale>  0 0.11619299E+03</rscale>
<asrwt>0</asrwt>
<pdfrwt beam="1">  1        2 0.24372263E-02 0.12573058E+03</pdfrwt>
<pdfrwt beam="2">  1       -2 0.11617397E+00 0.12573058E+03</pdfrwt>
<totfact> 0.23773702E+03</totfact>
</mgrwt>
</event>
<event>
 8    1  0.3629925E-004  0.1963263E+03  0.7546771E-02  0.1157606E+00
         -1   -1    0    0    0  501 -0.00000000000E+00  0.00000000000E+00  0.53324964631E+02  0.53324964631E+02  0.00000000000E+00 0.  1.
          1   -1    0    0  501    0  0.00000000000E+00 -0.00000000000E+00 -0.69615464927E+03  0.69615464927E+03  0.00000000000E+00 0. -1.
         25    2    1    2    0    0 -0.84517988945E+02  0.12560067850E+03 -0.43558380227E+03  0.47778368195E+03  0.12500070815E+03 0.  0.
         23    2    1    2    0    0  0.84517988945E+02 -0.12560067850E+03 -0.20724588236E+03  0.27169593195E+03  0.89157180236E+02 0.  0.
          5    1    4    4  502    0  0.42995239727E+02 -0.10294905597E+03 -0.19139921506E+03  0.22159162505E+03  0.47000000000E+01 0. -1.
         -5    1    3    3    0  503 -0.10907350270E+03  0.12649224328E+03 -0.33802071160E+03  0.37706419622E+03  0.47000000000E+01 0.  1.
          5    1    3    3  503    0  0.24555513756E+02 -0.89156477810E+00 -0.97563090671E+02  0.10071948573E+03  0.47000000000E+01 0.  1.
         -5    1    4    4    0  502  0.41522749218E+02 -0.22651622532E+02 -0.15846667300E+02  0.50104306905E+02  0.47000000000E+01 0.  1.
<mgrwt>
<rscale>  0 0.19095104E+03</rscale>
<asrwt>0</asrwt>
<pdfrwt beam="1">  1        1 0.10710071E+00 0.19632625E+03</pdfrwt>
<pdfrwt beam="2">  1       -1 0.82038410E-02 0.19632625E+03</pdfrwt>
<totfact> 0.23356342E+03</totfact>
</mgrwt>
</event>
<event>
 8    1  0.3629925E-004  0.1355994E+03  0.7546771E-02  0.1231620E+00
         -2   -1    0    0    0  501 -0.00000000000E+00  0.00000000000E+00  0.30285845798E+03  0.30285845798E+03  0.00000000000E+00 0.  1.
          2   -1    0    0  501    0  0.00000000000E+00 -0.00000000000E+00 -0.58269502565E+02  0.58269502565E+02  0.00000000000E+00 0. -1.
         25    2    1    2    0    0  0.80120622791E+01 -0.51931234776E+02  0.21094321642E+03  0.25076731135E+03  0.12500463031E+03 0.  0.
         23    2    1    2    0    0 -0.80120622791E+01  0.51931234776E+02  0.33645738992E+02  0.11036064920E+03  0.91029615243E+02 0.  0.
          5    1    4    4  502    0  0.31771639285E+02  0.63071830021E+01 -0.11508329080E+02  0.34695089832E+02  0.47000000000E+01 0. -1.
         -5    1    3    3    0  503 -0.48637572669E+02 -0.60486814876E+02  0.11221462442E+03  0.13652281928E+03  0.47000000000E+01 0. -1.
          5    1    3    3  503    0  0.56649634948E+02  0.85555801000E+01  0.98728591999E+02  0.11424449207E+03  0.47000000000E+01 0. -1.
         -5    1    4    4    0  502 -0.39783701564E+02  0.45624051774E+02  0.45154068072E+02  0.75665559364E+02  0.47000000000E+01 0.  1.
<mgrwt>
<rscale>  0 0.12723338E+03</rscale>
<asrwt>0</asrwt>
<pdfrwt beam="1">  1        2 0.89645390E-02 0.13559942E+03</pdfrwt>
<pdfrwt beam="2">  1       -2 0.46593608E-01 0.13559942E+03</pdfrwt>
<totfact> 0.31171419E+03</totfact>
</mgrwt>
</event>
<event>
 8    1  0.3629925E-004  0.1279181E+03  0.7546771E-02  0.1245617E+00
          1   -1    0    0  501    0  0.00000000000E+00  0.00000000000E+00  0.14867846295E+03  0.14867846295E+03  0.00000000000E+00 0. -1.
         -1   -1    0    0    0  501 -0.00000000000E+00 -0.00000000000E+00 -0.20457986331E+03  0.20457986331E+03  0.00000000000E+00 0.  1.
         25    2    1    2    0    0  0.26691842103E+02 -0.47619532522E+01  0.10589176595E+03  0.16606053326E+03  0.12501161537E+03 0.  0.
         23    2    1    2    0    0 -0.26691842103E+02  0.47619532522E+01 -0.16179316630E+03  0.18719779299E+03  0.90171250435E+02 0.  0.
          5    1    4    4  502    0  0.57056261155E+01 -0.29514442812E+02 -0.17019500388E+02  0.34862729344E+02  0.47000000000E+01 0. -1.
         -5    1    3    3    0  503  0.46631840337E+00  0.29667709021E+02 -0.17808500605E+02  0.34923102743E+02  0.47000000000E+01 0.  1.
          5    1    3    3  503    0  0.26225523699E+02 -0.34429662274E+02  0.12370026655E+03  0.13113743052E+03  0.47000000000E+01 0.  1.
         -5    1    4    4    0  502 -0.32397468218E+02  0.34276396064E+02 -0.14477366592E+03  0.15233506365E+03  0.47000000000E+01 0.  1.
<mgrwt>
<rscale>  0 0.11848539E+03</rscale>
<asrwt>0</asrwt>
<pdfrwt beam="1">  1        1 0.22873610E-01 0.12791808E+03</pdfrwt>
<pdfrwt beam="2">  1       -1 0.31473825E-01 0.12791808E+03</pdfrwt>
<totfact> 0.19639263E+03</totfact>
</mgrwt>
</event>
<event>
 8    1  0.3629925E-004  0.1499498E+03  0.7546771E-02  0.1208573E+00
          2   -1    0    0  501    0  0.00000000000E+00  0.00000000000E+00  0.14166185698E+04  0.14166185698E+04  0.00000000000E+00 0. -1.
         -2   -1    0    0    0  501 -0.00000000000E+00 -0.00000000000E+00 -0.13514995286E+02  0.13514995286E+02  0.00000000000E+00 0.  1.
         25    2    1    2    0    0 -0.74083892834E+02 -0.37024090585E+02  0.71171829207E+03  0.72734302847E+03  0.12500298933E+03 0.  0.
         23    2    1    2    0    0  0.74083892834E+02  0.37024090585E+02  0.69138528249E+03  0.70279053666E+03  0.95087975634E+02 0.  0.
          5    1    4    4  502    0  0.16097203805E+02  0.52347656497E+02  0.47592271800E+03  0.47908654816E+03  0.47000000000E+01 0. -1.
         -5    1    4    4    0  502  0.57986689029E+02 -0.15323565913E+02  0.21546256449E+03  0.22370398850E+03  0.47000000000E+01 0.  1.
          5    1    3    3  503    0 -0.61509354930E+02 -0.80941029121E+02  0.42804676292E+03  0.43997837695E+03  0.47000000000E+01 0. -1.
         -5    1    3    3    0  503 -0.12574537904E+02  0.43916938536E+02  0.28367152915E+03  0.28736465152E+03  0.47000000000E+01 0. -1.
<mgrwt>
<rscale>  0 0.14359434E+03</rscale>
<asrwt>0</asrwt>
<pdfrwt beam="1">  1        2 0.21794120E+00 0.14994984E+03</pdfrwt>
<pdfrwt beam="2">  1       -2 0.20792312E-02 0.14994984E+03</pdfrwt>
<totfact> 0.10792450E+04</totfact>
</mgrwt>
</event>
<event>
 8    1  0.3629925E-004  0.2011457E+03  0.7546771E-02  0.1152718E+00
          1   -1    0    0  501    0  0.00000000000E+00  0.00000000000E+00  0.85243427323E+03  0.85243427323E+03  0.00000000000E+00 0. -1.
         -1   -1    0    0    0  501 -0.00000000000E+00 -0.00000000000E+00 -0.43960151285E+02  0.43960151285E+02  0.00000000000E+00 0.  1.
         25    2    1    2    0    0 -0.41986044182E+02 -0.15189776259E+03  0.36922263417E+03  0.42045800842E+03  0.12499530022E+03 0.  0.
         23    2    1    2    0    0  0.41986044182E+02  0.15189776259E+03  0.43925148777E+03  0.47593641609E+03  0.93476438027E+02 0.  0.
          5    1    4    4  502    0  0.11824856827E+01  0.13656273989E+03  0.36455131958E+03  0.38932060671E+03  0.47000000000E+01 0. -1.
         -5    1    3    3    0  503  0.16428667776E+01 -0.14197632367E+03  0.19975671563E+03  0.24512203274E+03  0.47000000000E+01 0.  1.
          5    1    3    3  503    0 -0.43628910960E+02 -0.99214389150E+01  0.16946591854E+03  0.17533597568E+03  0.47000000000E+01 0.  1.
         -5    1    4    4    0  502  0.40803558500E+02  0.15335022696E+02  0.74700168193E+02  0.86615809384E+02  0.47000000000E+01 0.  1.
<mgrwt>
<rscale>  0 0.19650915E+03</rscale>
<asrwt>0</asrwt>
<pdfrwt beam="1">  1        1 0.13114372E+00 0.20114568E+03</pdfrwt>
<pdfrwt beam="2">  1       -1 0.67631008E-02 0.20114568E+03</pdfrwt>
<totfact> 0.23091801E+03</totfact>
</mgrwt>
</event>
<event>
 8    1  0.3629925E-004  0.1556457E+03  0.7546771E-02  0.1202308E+00
          2   -1    0    0  501    0  0.00000000000E+00  0.00000000000E+00  0.24810435561E+03  0.24810435561E+03  0.00000000000E+00 0. -1.
         -2   -1    0    0    0  501 -0.00000000000E+00 -0.00000000000E+00 -0.86560589655E+02  0.86560589655E+02  0.00000000000E+00 0.  1.
         25    2    1    2    0    0  0.84332769153E+02 -0.38575965476E+02  0.12755328759E+03  0.20123477039E+03  0.12500188228E+03 0.  0.
         23    2    1    2    0    0 -0.84332769153E+02  0.38575965476E+02  0.33990478358E+02  0.13343017487E+03  0.89711414443E+02 0.  0.
          5    1    4    4  502    0 -0.35754303309E+02  0.61546523815E+02  0.33892588498E+01  0.71413737295E+02  0.47000000000E+01 0. -1.
         -5    1    3    3    0  503  0.75477676395E+01 -0.25661854344E+02 -0.20407181293E+02  0.33971202702E+02  0.47000000000E+01 0.  1.
          5    1    3    3  503    0  0.76785001513E+02 -0.12914111132E+02  0.14796046889E+03  0.16726356769E+03  0.47000000000E+01 0.  1.
         -5    1    4    4    0  502 -0.48578465843E+02 -0.22970558339E+02  0.30601219509E+02  0.62016437575E+02  0.47000000000E+01 0.  1.
<mgrwt>
<rscale>  0 0.14851626E+03</rscale>
<asrwt>0</asrwt>
<pdfrwt beam="1">  1        2 0.38169901E-01 0.15564572E+03</pdfrwt>
<pdfrwt beam="2">  1       -2 0.13317014E-01 0.15564572E+03</pdfrwt>
<totfact> 0.54048755E+03</totfact>
</mgrwt>
</event>
<event>
 8    1  0.3629925E-004  0.1714409E+03  0.7546771E-02  0.1182608E+00
          1   -1    0    0  501    0  0.00000000000E+00  0.00000000000E+00  0.10717419176E+04  0.10717419176E+04  0.00000000000E+00 0. -1.
         -1   -1    0    0    0  501 -0.00000000000E+00 -0.00000000000E+00 -0.24085288909E+02  0.24085288909E+02  0.00000000000E+00 0.  1.
         25    2    1    2    0    0  0.89901429638E+02 -0.75397134121E+02  0.60248505431E+03  0.62640261651E+03  0.12500000966E+03 0.  0.
         23    2    1    2    0    0 -0.89901429638E+02  0.75397134121E+02  0.44517157442E+03  0.46942459004E+03  0.91731783913E+02 0.  0.
          5    1    3    3  502    0  0.97366276547E+02 -0.11229204798E+02  0.45270868628E+03  0.46322082367E+03  0.47000000000E+01 0.  1.
         -5    1    3    3    0  502 -0.74648469089E+01 -0.64167929323E+02  0.14977636803E+03  0.16318179284E+03  0.47000000000E+01 0.  1.
          5    1    4    4  503    0 -0.50624857943E+02 -0.11678765743E+02  0.18569533758E+03  0.19288369088E+03  0.47000000000E+01 0. -1.
         -5    1    4    4    0  503 -0.39276571695E+02  0.87075899864E+02  0.25947623684E+03  0.27654089916E+03  0.47000000000E+01 0.  1.
<mgrwt>
<rscale>  0 0.16551422E+03</rscale>
<asrwt>0</asrwt>
<pdfrwt beam="1">  1        1 0.16488333E+00 0.17144094E+03</pdfrwt>
<pdfrwt beam="2">  1       -1 0.37054299E-02 0.17144094E+03</pdfrwt>
<totfact> 0.38548429E+03</totfact>
</mgrwt>
</event>
<event>
 8    1  0.3629925E-004  0.2140654E+03  0.7546771E-02  0.1141818E+00
          2   -1    0    0  501    0  0.00000000000E+00  0.00000000000E+00  0.12600080269E+03  0.12600080269E+03  0.00000000000E+00 0.  1.
         -2   -1    0    0    0  501 -0.00000000000E+00 -0.00000000000E+00 -0.33844777884E+03  0.33844777884E+03  0.00000000000E+00 0. -1.
         25    2    1    2    0    0 -0.11490261187E+03 -0.13037167815E+03 -0.13269522210E+03  0.25185711687E+03  0.12499840268E+03 0.  0.
         23    2    1    2    0    0  0.11490261187E+03  0.13037167815E+03 -0.79751754053E+02  0.21259146465E+03  0.92926873878E+02 0.  0.
          5    1    3    3  502    0 -0.77751716017E+02  0.39274093972E+00 -0.52882652354E+02  0.94149607057E+02  0.47000000000E+01 0. -1.
         -5    1    4    4    0  503  0.88203054584E+02  0.30336573696E+02 -0.35970479430E+02  0.10008022748E+03  0.47000000000E+01 0.  1.
          5    1    4    4  503    0  0.26699557291E+02  0.10003510445E+03 -0.43781274622E+02  0.11251123717E+03  0.47000000000E+01 0. -1.
         -5    1    3    3    0  502 -0.37150895857E+02 -0.13076441909E+03 -0.79812569746E+02  0.15770750982E+03  0.47000000000E+01 0. -1.
<mgrwt>
<rscale>  0 0.20968262E+03</rscale>
<asrwt>0</asrwt>
<pdfrwt beam="1">  1        2 0.19384739E-01 0.21406538E+03</pdfrwt>
<pdfrwt beam="2">  1       -2 0.52068889E-01 0.21406538E+03</pdfrwt>
<totfact> 0.10137131E+03</totfact>
</mgrwt>
</event>
<event>
 8    1  0.3629925E-004  0.1296460E+03  0.7546771E-02  0.1239462E+00
          2   -1    0    0  501    0  0.00000000000E+00  0.00000000000E+00  0.73600489689E+03  0.73600489689E+03  0.00000000000E+00 0. -1.
         -2   -1    0    0    0  501 -0.00000000000E+00 -0.00000000000E+00 -0.18619493022E+02  0.18619493022E+02  0.00000000000E+00 0.  1.
         25    2    1    2    0    0  0.16351029514E+02  0.30249167560E+02  0.35054283340E+03  0.37374906104E+03  0.12500285708E+03 0.  0.
         23    2    1    2    0    0 -0.16351029514E+02 -0.30249167560E+02  0.36684257047E+03  0.38087532887E+03  0.96489254996E+02 0.  0.
          5    1    4    4  502    0  0.33891152777E+02 -0.36096666843E+02  0.21803995757E+03  0.22364054348E+03  0.47000000000E+01 0. -1.
         -5    1    4    4    0  502 -0.50242182291E+02  0.58474992835E+01  0.14880261290E+03  0.15723478539E+03  0.47000000000E+01 0.  1.
          5    1    3    3  503    0  0.22788068136E+02 -0.46627459190E+02  0.15260275415E+03  0.16125478776E+03  0.47000000000E+01 0. -1.
         -5    1    3    3    0  503 -0.64370386226E+01  0.76876626749E+02  0.19794007925E+03  0.21249427328E+03  0.47000000000E+01 0. -1.
<mgrwt>
<rscale>  0 0.12223045E+03</rscale>
<asrwt>0</asrwt>
<pdfrwt beam="1">  1        2 0.11323150E+00 0.12964599E+03</pdfrwt>
<pdfrwt beam="2">  1       -2 0.28645380E-02 0.12964599E+03</pdfrwt>
<totfact> 0.16931040E+04</totfact>
</mgrwt>
</event>
<event>
 8    1  0.3629925E-004  0.1455522E+03  0.7546771E-02  0.1215790E+00
         -1   -1    0    0    0  501 -0.00000000000E+00  0.00000000000E+00  0.28974491451E+02  0.28974491451E+02  0.00000000000E+00 0.  1.
          1   -1    0    0  501    0  0.00000000000E+00 -0.00000000000E+00 -0.60088171225E+03  0.60088171225E+03  0.00000000000E+00 0. -1.
         25    2    1    2    0    0  0.74534885286E+02  0.25952657704E+01 -0.30723855498E+03  0.33997201069E+03  0.12499301524E+03 0.  0.
         23    2    1    2    0    0 -0.74534885286E+02 -0.25952657704E+01 -0.26466866582E+03  0.28988419301E+03  0.91766868544E+02 0.  0.
          5    1    3    3  502    0  0.82646027765E+02 -0.33757578061E+02 -0.12363828797E+03  0.15257278995E+03  0.47000000000E+01 0. -1.
         -5    1    3    3    0  502 -0.81111424786E+01  0.36352843831E+02 -0.18360026701E+03  0.18739922074E+03  0.47000000000E+01 0. -1.
          5    1    4    4  503    0 -0.20967015820E+02  0.14652264789E+02 -0.20891311036E+03  0.21052572835E+03  0.47000000000E+01 0. -1.
         -5    1    4    4    0  503 -0.53567869466E+02 -0.17247530560E+02 -0.55755555465E+02  0.79358464669E+02  0.47000000000E+01 0.  1.
<mgrwt>
<rscale>  0 0.13818644E+03</rscale>
<asrwt>0</asrwt>
<pdfrwt beam="1">  1        1 0.92443340E-01 0.14555218E+03</pdfrwt>
<pdfrwt beam="2">  1       -1 0.44576141E-02 0.14555218E+03</pdfrwt>
<totfact> 0.70826713E+03</totfact>
</mgrwt>
</event>
<event>
 8    1  0.3629925E-004  0.2325972E+03  0.7546771E-02  0.1127802E+00
         -3   -1    0    0    0  501 -0.00000000000E+00  0.00000000000E+00  0.26976301504E+03  0.26976301504E+03  0.00000000000E+00 0.  1.
          3   -1    0    0  501    0  0.00000000000E+00 -0.00000000000E+00 -0.18657662061E+03  0.18657662061E+03  0.00000000000E+00 0. -1.
         25    2    1    2    0    0  0.66548289175E+01  0.19603950353E+03  0.42452089147E+02  0.23643947957E+03  0.12500269571E+03 0.  0.
         23    2    1    2    0    0 -0.66548289175E+01 -0.19603950353E+03  0.40734305278E+02  0.21990015609E+03  0.90669847973E+02 0.  0.
          5    1    4    4  502    0  0.10886536131E+02 -0.14529873382E+03  0.66419741110E+02  0.16019959653E+03  0.47000000000E+01 0. -1.
         -5    1    3    3    0  503  0.24858472555E+02  0.11021071822E+03  0.82405703896E+02  0.13991831940E+03  0.47000000000E+01 0. -1.
          5    1    3    3  503    0 -0.18203643637E+02  0.85828785308E+02 -0.39953614749E+02  0.96521160170E+02  0.47000000000E+01 0. -1.
         -5    1    4    4    0  502 -0.17541365049E+02 -0.50740769703E+02 -0.25685435832E+02  0.59700559560E+02  0.47000000000E+01 0.  1.
<mgrwt>
<rscale>  0 0.22835694E+03</rscale>
<asrwt>0</asrwt>
<pdfrwt beam="1">  1        3 0.28704095E-01 0.23259718E+03</pdfrwt>
<pdfrwt beam="2">  1       -3 0.41502002E-01 0.23259718E+03</pdfrwt>
<totfact> 0.16694187E+02</totfact>
</mgrwt>
</event>
<event>
 8    1  0.3916554E-004  0.3476662E+03  0.7546771E-02  0.1064713E+00
         -2   -1    0    0    0  501 -0.00000000000E+00  0.00000000000E+00  0.12553404344E+03  0.12553404344E+03  0.00000000000E+00 0.  1.
          2   -1    0    0  501    0  0.00000000000E+00 -0.00000000000E+00 -0.10101058455E+04  0.10101058455E+04  0.00000000000E+00 0. -1.
         25    2    1    2    0    0  0.10292448569E+03 -0.30765929959E+03 -0.29206238498E+03  0.45406195096E+03  0.12499649679E+03 0.  0.
         23    2    1    2    0    0 -0.10292448569E+03  0.30765929959E+03 -0.59250941704E+03  0.68157793795E+03  0.90737984520E+02 0.  0.
          5    1    4    4  502    0 -0.21622700746E+02  0.14540521784E+03 -0.19214089228E+03  0.24197196335E+03  0.47000000000E+01 0. -1.
         -5    1    4    4    0  502 -0.81301784942E+02  0.16225408175E+03 -0.40036852476E+03  0.43960597459E+03  0.47000000000E+01 0.  1.
          5    1    3    3  503    0  0.34742118663E+02 -0.19860393601E+03 -0.24428869244E+03  0.31678003956E+03  0.47000000000E+01 0.  1.
         -5    1    3    3    0  503  0.68182367025E+02 -0.10905536358E+03 -0.47773692535E+02  0.13728191140E+03  0.47000000000E+01 0.  1.
<mgrwt>
<rscale>  0 0.34493505E+03</rscale>
<asrwt>0</asrwt>
<pdfrwt beam="1">  1        2 0.15540090E+00 0.34766625E+03</pdfrwt>
<pdfrwt beam="2">  1       -2 0.19312930E-01 0.34766625E+03</pdfrwt>
<totfact> 0.57718913E+02</totfact>
</mgrwt>
</event>
<event>
 8    1  0.3629925E-004  0.1351499E+03  0.7546771E-02  0.1233577E+00
         -2   -1    0    0    0  501 -0.00000000000E+00  0.00000000000E+00  0.89659671796E+02  0.89659671796E+02  0.00000000000E+00 0.  1.
          2   -1    0    0  501    0  0.00000000000E+00 -0.00000000000E+00 -0.27414493098E+03  0.27414493098E+03  0.00000000000E+00 0. -1.
         25    2    1    2    0    0 -0.40848201743E+02 -0.31133955880E+02 -0.21797651593E+03  0.25647468667E+03  0.12501041800E+03 0.  0.
         23    2    1    2    0    0  0.40848201743E+02  0.31133955880E+02  0.33491256745E+02  0.10732991611E+03  0.88091701200E+02 0.  0.
          5    1    3    3  502    0 -0.93377741627E+01  0.44284439680E+02 -0.40054845539E+02  0.60620015467E+02  0.47000000000E+01 0. -1.
         -5    1    4    4    0  503  0.39544354111E+02 -0.68802647796E+01  0.51102857301E+02  0.65151254860E+02  0.47000000000E+01 0.  1.
          5    1    4    4  503    0  0.13038476316E+01  0.38014220659E+02 -0.17611600556E+02  0.42178661253E+02  0.47000000000E+01 0. -1.
         -5    1    3    3    0  502 -0.31510427580E+02 -0.75418395559E+02 -0.17792167039E+03  0.19585467120E+03  0.47000000000E+01 0. -1.
<mgrwt>
<rscale>  0 0.12595947E+03</rscale>
<asrwt>0</asrwt>
<pdfrwt beam="1">  1        2 0.42176142E-01 0.13514993E+03</pdfrwt>
<pdfrwt beam="2">  1       -2 0.13793796E-01 0.13514993E+03</pdfrwt>
<totfact> 0.45539310E+03</totfact>
</mgrwt>
</event>
<event>
 8    1  0.3629925E-004  0.1363341E+03  0.7546771E-02  0.1230251E+00
         -1   -1    0    0    0  501 -0.00000000000E+00  0.00000000000E+00  0.41127314759E+03  0.41127314759E+03  0.00000000000E+00 0.  1.
          1   -1    0    0  501    0  0.00000000000E+00 -0.00000000000E+00 -0.46292498509E+02  0.46292498509E+02  0.00000000000E+00 0. -1.
         25    2    1    2    0    0  0.27270346372E+02 -0.47101006204E+02  0.91681723500E+02  0.16429398801E+03  0.12499919798E+03 0.  0.
         23    2    1    2    0    0 -0.27270346372E+02  0.47101006204E+02  0.27329892558E+03  0.29327165808E+03  0.91399048881E+02 0.  0.
          5    1    4    4  502    0 -0.50906696809E+02  0.32826555321E+02  0.94861725549E+02  0.11264950727E+03  0.47000000000E+01 0. -1.
         -5    1    4    4    0  502  0.23636350437E+02  0.14274450883E+02  0.17843720003E+03  0.18062215081E+03  0.47000000000E+01 0.  1.
          5    1    3    3  503    0  0.65025416008E+02 -0.66908334168E+02  0.61476553642E+02  0.11183240387E+03  0.47000000000E+01 0. -1.
         -5    1    3    3    0  503 -0.37755069636E+02  0.19807327964E+02  0.30205169858E+02  0.52461584139E+02  0.47000000000E+01 0. -1.
<mgrwt>
<rscale>  0 0.12813410E+03</rscale>
<asrwt>0</asrwt>
<pdfrwt beam="1">  1        1 0.71219231E-02 0.13633406E+03</pdfrwt>
<pdfrwt beam="2">  1       -1 0.63272789E-01 0.13633406E+03</pdfrwt>
<totfact> 0.25844965E+03</totfact>
</mgrwt>
</event>
<event>
 8    1  0.3629925E-004  0.2111570E+03  0.7546771E-02  0.1143998E+00
          1   -1    0    0  501    0  0.00000000000E+00  0.00000000000E+00  0.12564303456E+03  0.12564303456E+03  0.00000000000E+00 0. -1.
         -1   -1    0    0    0  501 -0.00000000000E+00 -0.00000000000E+00 -0.33827763268E+03  0.33827763268E+03  0.00000000000E+00 0.  1.
         25    2    1    2    0    0 -0.51378995970E+02  0.16224213354E+03 -0.70059125092E+02  0.22247594399E+03  0.12499981410E+03 0.  0.
         23    2    1    2    0    0  0.51378995970E+02 -0.16224213354E+03 -0.14257547303E+03  0.24144472325E+03  0.94897195718E+02 0.  0.
          5    1    4    4  502    0  0.47176609322E+02 -0.13120544205E+03 -0.57910961531E+02  0.15105055431E+03  0.47000000000E+01 0. -1.
         -5    1    3    3    0  503 -0.48187402031E+02 -0.38787225160E+00 -0.15150502452E+02  0.50732670774E+02  0.47000000000E+01 0.  1.
          5    1    3    3  503    0 -0.31915939390E+01  0.16263000579E+03 -0.54908622640E+02  0.17174327322E+03  0.47000000000E+01 0.  1.
         -5    1    4    4    0  502  0.42023866482E+01 -0.31036691486E+02 -0.84664511498E+02  0.90394168944E+02  0.47000000000E+01 0.  1.
<mgrwt>
<rscale>  0 0.20695741E+03</rscale>
<asrwt>0</asrwt>
<pdfrwt beam="1">  1        1 0.19329698E-01 0.21115697E+03</pdfrwt>
<pdfrwt beam="2">  1       -1 0.52042712E-01 0.21115697E+03</pdfrwt>
<totfact> 0.10142126E+03</totfact>
</mgrwt>
</event>
<event>
 8    1  0.3629925E-004  0.1318903E+03  0.7546771E-02  0.1237925E+00
          2   -1    0    0  501    0  0.00000000000E+00  0.00000000000E+00  0.56277563607E+02  0.56277563607E+02  0.00000000000E+00 0. -1.
         -2   -1    0    0    0  501 -0.00000000000E+00 -0.00000000000E+00 -0.23975249228E+03  0.23975249228E+03  0.00000000000E+00 0.  1.
         25    2    1    2    0    0  0.38940009867E+02 -0.15937706630E+02 -0.10692029152E+03  0.16978516515E+03  0.12499887481E+03 0.  0.
         23    2    1    2    0    0 -0.38940009867E+02  0.15937706630E+02 -0.76554637156E+02  0.12624489074E+03  0.91141785735E+02 0.  0.
          5    1    3    3  502    0 -0.43724132615E+02 -0.12985694901E+02 -0.56630367687E+02  0.72866429784E+02  0.47000000000E+01 0.  1.
         -5    1    4    4    0  503 -0.27736849966E+02  0.48954326087E+02 -0.70863264222E+02  0.90606573188E+02  0.47000000000E+01 0.  1.
          5    1    4    4  503    0 -0.11203159901E+02 -0.33016619457E+02 -0.56913729338E+01  0.35638317553E+02  0.47000000000E+01 0. -1.
         -5    1    3    3    0  502  0.82664142482E+02 -0.29520117288E+01 -0.50289923829E+02  0.96918735363E+02  0.47000000000E+01 0.  1.
<mgrwt>
<rscale>  0 0.12319042E+03</rscale>
<asrwt>0</asrwt>
<pdfrwt beam="1">  1        2 0.86580867E-02 0.13189031E+03</pdfrwt>
<pdfrwt beam="2">  1       -2 0.36884999E-01 0.13189031E+03</pdfrwt>
<totfact> 0.50706541E+03</totfact>
</mgrwt>
</event>
<event>
 8    1  0.3629925E-004  0.1732192E+03  0.7546771E-02  0.1180808E+00
         -2   -1    0    0    0  501 -0.00000000000E+00  0.00000000000E+00  0.20153654448E+03  0.20153654448E+03  0.00000000000E+00 0.  1.
          2   -1    0    0  501    0  0.00000000000E+00 -0.00000000000E+00 -0.28969663060E+03  0.28969663060E+03  0.00000000000E+00 0. -1.
         25    2    1    2    0    0  0.77264793849E+02  0.91703592250E+02  0.13675678511E+03  0.22069735423E+03  0.12500202675E+03 0.  0.
         23    2    1    2    0    0 -0.77264793849E+02 -0.91703592250E+02 -0.22491687123E+03  0.27053582085E+03  0.90678741722E+02 0.  0.
          5    1    4    4  502    0 -0.71475121274E+02 -0.67702404611E+02 -0.22473949894E+03  0.24540220238E+03  0.47000000000E+01 0. -1.
         -5    1    3    3    0  503  0.56618446413E+02 -0.73632781192E+00  0.32159405005E+01  0.56908900237E+02  0.47000000000E+01 0. -1.
          5    1    3    3  503    0  0.20646347436E+02  0.92439920062E+02  0.13354084461E+03  0.16378845400E+03  0.47000000000E+01 0. -1.
         -5    1    4    4    0  502 -0.57896725744E+01 -0.24001187639E+02 -0.17737229564E+00  0.25133618473E+02  0.47000000000E+01 0.  1.
<mgrwt>
<rscale>  0 0.16719201E+03</rscale>
<asrwt>0</asrwt>
<pdfrwt beam="1">  1        2 0.44568712E-01 0.17321924E+03</pdfrwt>
<pdfrwt beam="2">  1       -2 0.31005623E-01 0.17321924E+03</pdfrwt>
<totfact> 0.10859856E+03</totfact>
</mgrwt>
</event>
<event>
 8    1  0.3629925E-004  0.1766738E+03  0.7546771E-02  0.1177883E+00
          2   -1    0    0  501    0  0.00000000000E+00  0.00000000000E+00  0.33568183391E+03  0.33568183391E+03  0.00000000000E+00 0.  1.
         -2   -1    0    0    0  501 -0.00000000000E+00 -0.00000000000E+00 -0.10388433387E+03  0.10388433387E+03  0.00000000000E+00 0. -1.
         25    2    1    2    0    0  0.11991154093E+03  0.34848683903E+02  0.17943375786E+02  0.17758268121E+03  0.12498174071E+03 0.  0.
         23    2    1    2    0    0 -0.11991154093E+03 -0.34848683903E+02  0.21385412426E+03  0.26198348657E+03  0.85490071677E+02 0.  0.
          5    1    3    3  502    0  0.15135518104E+02 -0.22308500473E+02 -0.37071245943E+02  0.46077330407E+02  0.47000000000E+01 0.  1.
         -5    1    4    4    0  503 -0.63478263828E+02 -0.24399853802E+02  0.18583627141E+03  0.19794456955E+03  0.47000000000E+01 0.  1.
          5    1    4    4  503    0 -0.56433277100E+02 -0.10448830101E+02  0.28017852855E+02  0.64038917022E+02  0.47000000000E+01 0. -1.
         -5    1    3    3    0  502  0.10477602282E+03  0.57157184376E+02  0.55014621729E+02  0.13150535080E+03  0.47000000000E+01 0.  1.
<mgrwt>
<rscale>  0 0.16996629E+03</rscale>
<asrwt>0</asrwt>
<pdfrwt beam="1">  1        2 0.51643359E-01 0.17667383E+03</pdfrwt>
<pdfrwt beam="2">  1       -2 0.15982205E-01 0.17667383E+03</pdfrwt>
<totfact> 0.29211904E+03</totfact>
</mgrwt>
</event>
<event>
 8    1  0.3629925E-004  0.1251279E+03  0.7546771E-02  0.1252121E+00
         -1   -1    0    0    0  501 -0.00000000000E+00  0.00000000000E+00  0.35073467789E+02  0.35073467789E+02  0.00000000000E+00 0.  1.
          1   -1    0    0  501    0  0.00000000000E+00 -0.00000000000E+00 -0.33733879486E+03  0.33733879486E+03  0.00000000000E+00 0. -1.
         25    2    1    2    0    0 -0.15081500110E+01  0.54551004453E+01 -0.21167765779E+03  0.24589516654E+03  0.12499987793E+03 0.  0.
         23    2    1    2    0    0  0.15081500110E+01 -0.54551004453E+01 -0.90587669282E+02  0.12651709611E+03  0.88138624594E+02 0.  0.
          5    1    4    4  502    0  0.28853761961E+02 -0.33278684573E+02 -0.68113652781E+02  0.81250046901E+02  0.47000000000E+01 0. -1.
         -5    1    4    4    0  502 -0.27345611950E+02  0.27823584127E+02 -0.22474016501E+02  0.45267049212E+02  0.47000000000E+01 0.  1.
          5    1    3    3  503    0  0.28853770905E+02 -0.21365772980E+02 -0.66056349045E+01  0.36807074904E+02  0.47000000000E+01 0. -1.
         -5    1    3    3    0  503 -0.30361920916E+02  0.26820873426E+02 -0.20507202289E+03  0.20908809164E+03  0.47000000000E+01 0. -1.
<mgrwt>
<rscale>  0 0.11469136E+03</rscale>
<asrwt>0</asrwt>
<pdfrwt beam="1">  1        1 0.51898274E-01 0.12512794E+03</pdfrwt>
<pdfrwt beam="2">  1       -1 0.53959183E-02 0.12512794E+03</pdfrwt>
<totfact> 0.11116592E+04</totfact>
</mgrwt>
</event>
<event>
 8    1  0.3629925E-004  0.2324245E+03  0.7546771E-02  0.1127992E+00
         -1   -1    0    0    0  501 -0.00000000000E+00  0.00000000000E+00  0.97021891396E+02  0.97021891396E+02  0.00000000000E+00 0.  1.
          1   -1    0    0  501    0  0.00000000000E+00 -0.00000000000E+00 -0.76437637093E+03  0.76437637093E+03  0.00000000000E+00 0. -1.
         25    2    1    2    0    0  0.18240918662E+03 -0.71571980598E+02 -0.97338009063E+02  0.25198383875E+03  0.12500202885E+03 0.  0.
         23    2    1    2    0    0 -0.18240918662E+03  0.71571980598E+02 -0.57001647047E+03  0.60941442357E+03  0.89841545402E+02 0.  0.
          5    1    3    3  502    0  0.70205463983E+02 -0.35093703616E+02  0.24460091478E+02  0.82345378022E+02  0.47000000000E+01 0. -1.
         -5    1    4    4    0  503 -0.12756940357E+03  0.21132132391E+02 -0.25848790678E+03  0.28906505790E+03  0.47000000000E+01 0.  1.
          5    1    4    4  503    0 -0.54839783046E+02  0.50439848207E+02 -0.31152856369E+03  0.32034936567E+03  0.47000000000E+01 0. -1.
         -5    1    3    3    0  502  0.11220372263E+03 -0.36478276982E+02 -0.12179810054E+03  0.16963846073E+03  0.47000000000E+01 0. -1.
<mgrwt>
<rscale>  0 0.22808922E+03</rscale>
<asrwt>0</asrwt>
<pdfrwt beam="1">  1        1 0.11759637E+00 0.23242454E+03</pdfrwt>
<pdfrwt beam="2">  1       -1 0.14926444E-01 0.23242454E+03</pdfrwt>
<totfact> 0.80385743E+02</totfact>
</mgrwt>
</event>
<event>
 8    1  0.3629925E-004  0.1351046E+03  0.7546771E-02  0.1231484E+00
         -2   -1    0    0    0  501 -0.00000000000E+00  0.00000000000E+00  0.39730957115E+02  0.39730957115E+02  0.00000000000E+00 0.  1.
          2   -1    0    0  501    0  0.00000000000E+00 -0.00000000000E+00 -0.37509817290E+03  0.37509817290E+03  0.00000000000E+00 0. -1.
         25    2    1    2    0    0  0.13849983626E+02  0.49366056055E+02 -0.21642191062E+03  0.25513073363E+03  0.12499767323E+03 0.  0.
         23    2    1    2    0    0 -0.13849983626E+02 -0.49366056055E+02 -0.11894530517E+03  0.15969839638E+03  0.93417143222E+02 0.  0.
          5    1    4    4  502    0  0.20167632375E+02 -0.65445324375E+02 -0.76386707681E+02  0.10269782368E+03  0.47000000000E+01 0. -1.
         -5    1    4    4    0  502 -0.34017616002E+02  0.16079268319E+02 -0.42558597489E+02  0.57000572702E+02  0.47000000000E+01 0.  1.
          5    1    3    3  503    0 -0.35892730921E+02  0.34522152433E+02 -0.23453701552E+02  0.55247020354E+02  0.47000000000E+01 0.  1.
         -5    1    3    3    0  503  0.49742714547E+02  0.14843903622E+02 -0.19296820906E+03  0.19988371328E+03  0.47000000000E+01 0.  1.
<mgrwt>
<rscale>  0 0.12732210E+03</rscale>
<asrwt>0</asrwt>
<pdfrwt beam="1">  1        2 0.57707412E-01 0.13510458E+03</pdfrwt>
<pdfrwt beam="2">  1       -2 0.61124549E-02 0.13510458E+03</pdfrwt>
<totfact> 0.11650965E+04</totfact>
</mgrwt>
</event>
<event>
 8    1  0.3629925E-004  0.1626539E+03  0.7546771E-02  0.1192047E+00
         -1   -1    0    0    0  501 -0.00000000000E+00  0.00000000000E+00  0.10024527432E+03  0.10024527432E+03  0.00000000000E+00 0.  1.
          1   -1    0    0  501    0  0.00000000000E+00 -0.00000000000E+00 -0.23653168486E+03  0.23653168486E+03  0.00000000000E+00 0. -1.
         25    2    1    2    0    0  0.87672908051E+02  0.56088621403E+02 -0.46204115909E+02  0.16908903856E+03  0.12499524141E+03 0.  0.
         23    2    1    2    0    0 -0.87672908051E+02 -0.56088621403E+02 -0.90082294632E+02  0.16768792062E+03  0.95770280659E+02 0.  0.
          5    1    3    3  502    0  0.57374566861E+02  0.84454719302E+02 -0.67218511413E+02  0.12233093971E+03  0.47000000000E+01 0.  1.
         -5    1    4    4    0  503 -0.27147881264E+02  0.22108532629E+02 -0.23370157934E+01  0.35402631469E+02  0.47000000000E+01 0.  1.
          5    1    4    4  503    0 -0.60525026787E+02 -0.78197154032E+02 -0.87745278839E+02  0.13228528915E+03  0.47000000000E+01 0. -1.
         -5    1    3    3    0  502  0.30298341190E+02 -0.28366097900E+02  0.21014395504E+02  0.46758098842E+02  0.47000000000E+01 0.  1.
<mgrwt>
<rscale>  0 0.15706848E+03</rscale>
<asrwt>0</asrwt>
<pdfrwt beam="1">  1        1 0.36389489E-01 0.16265387E+03</pdfrwt>
<pdfrwt beam="2">  1       -1 0.15422350E-01 0.16265387E+03</pdfrwt>
<totfact> 0.35444374E+03</totfact>
</mgrwt>
</event>
<event>
 8    1  0.3629925E-004  0.1319076E+03  0.7546771E-02  0.1235395E+00
         -2   -1    0    0    0  501 -0.00000000000E+00  0.00000000000E+00  0.23703782275E+02  0.23703782275E+02  0.00000000000E+00 0.  1.
          2   -1    0    0  501    0  0.00000000000E+00 -0.00000000000E+00 -0.65743987538E+03  0.65743987538E+03  0.00000000000E+00 0. -1.
         25    2    1    2    0    0  0.41403380085E+02 -0.77589301191E+01 -0.24441668744E+03  0.27773934611E+03  0.12500074558E+03 0.  0.
         23    2    1    2    0    0 -0.41403380085E+02  0.77589301191E+01 -0.38931940567E+03  0.40340431155E+03  0.96907162125E+02 0.  0.
          5    1    4    4  502    0 -0.62504279520E+02  0.31107199033E+02 -0.21192410442E+03  0.22317786365E+03  0.47000000000E+01 0. -1.
         -5    1    4    4    0  502  0.21100899435E+02 -0.23348268914E+02 -0.17739530125E+03  0.18022644790E+03  0.47000000000E+01 0.  1.
          5    1    3    3  503    0 -0.12428136767E+02 -0.45154936028E+02 -0.17873264310E+03  0.18482660669E+03  0.47000000000E+01 0. -1.
         -5    1    3    3    0  503  0.53831516852E+02  0.37396005909E+02 -0.65684044340E+02  0.92912739414E+02  0.47000000000E+01 0. -1.
<mgrwt>
<rscale>  0 0.12479206E+03</rscale>
<asrwt>0</asrwt>
<pdfrwt beam="1">  1        2 0.10114457E+00 0.13190765E+03</pdfrwt>
<pdfrwt beam="2">  1       -2 0.36467365E-02 0.13190765E+03</pdfrwt>
<totfact> 0.13579929E+04</totfact>
</mgrwt>
</event>
<event>
 8    1  0.3629925E-004  0.1758276E+03  0.7546771E-02  0.1177872E+00
          1   -1    0    0  501    0  0.00000000000E+00  0.00000000000E+00  0.42704573910E+03  0.42704573910E+03  0.00000000000E+00 0. -1.
         -1   -1    0    0    0  501 -0.00000000000E+00 -0.00000000000E+00 -0.67603497327E+02  0.67603497327E+02  0.00000000000E+00 0.  1.
         25    2    1    2    0    0  0.36856349614E+02 -0.11800636775E+03  0.13046387552E+03  0.21894330818E+03  0.12502582152E+03 0.  0.
         23    2    1    2    0    0 -0.36856349614E+02  0.11800636775E+03  0.22897836625E+03  0.27570592824E+03  0.91097603255E+02 0.  0.
          5    1    4    4  502    0  0.20218620825E+02  0.77604585196E+02  0.14968161003E+03  0.16987624511E+03  0.47000000000E+01 0. -1.
         -5    1    4    4    0  502 -0.57074970439E+02  0.40401782553E+02  0.79296756226E+02  0.10582968313E+03  0.47000000000E+01 0.  1.
          5    1    3    3  503    0 -0.18596834289E+02 -0.89223443829E+02  0.22306100945E+02  0.93948482231E+02  0.47000000000E+01 0.  1.
         -5    1    3    3    0  503  0.55453183903E+02 -0.28782923920E+02  0.10815777457E+03  0.12499482595E+03  0.47000000000E+01 0.  1.
<mgrwt>
<rscale>  0 0.16997671E+03</rscale>
<asrwt>0</asrwt>
<pdfrwt beam="1">  1        1 0.65699342E-01 0.17582761E+03</pdfrwt>
<pdfrwt beam="2">  1       -1 0.10400538E-01 0.17582761E+03</pdfrwt>
<totfact> 0.31313121E+03</totfact>
</mgrwt>
</event>
<event>
 8    1  0.3629925E-004  0.2026649E+03  0.7546771E-02  0.1152592E+00
          2   -1    0    0  501    0  0.00000000000E+00  0.00000000000E+00  0.87851673559E+03  0.87851673559E+03  0.00000000000E+00 0. -1.
         -2   -1    0    0    0  501 -0.00000000000E+00 -0.00000000000E+00 -0.47064919340E+02  0.47064919340E+02  0.00000000000E+00 0.  1.
         25    2    1    2    0    0  0.97214482557E+02 -0.12648041537E+03  0.59527547654E+03  0.62882903619E+03  0.12500045077E+03 0.  0.
         23    2    1    2    0    0 -0.97214482557E+02  0.12648041537E+03  0.23617633971E+03  0.29675261874E+03  0.82673467335E+02 0.  0.
          5    1    4    4  502    0 -0.22239730928E+02  0.94064608040E+02  0.14408080255E+03  0.17356302538E+03  0.47000000000E+01 0. -1.
         -5    1    4    4    0  502 -0.74974751629E+02  0.32415807326E+02  0.92095537158E+02  0.12318959335E+03  0.47000000000E+01 0.  1.
          5    1    3    3  503    0 -0.23031637810E+02 -0.10465595570E+02  0.30849050645E+02  0.40171369861E+02  0.47000000000E+01 0. -1.
         -5    1    3    3    0  503  0.12024612037E+03 -0.11601481980E+03  0.56442642590E+03  0.58865766633E+03  0.47000000000E+01 0. -1.
<mgrwt>
<rscale>  0 0.19665518E+03</rscale>
<asrwt>0</asrwt>
<pdfrwt beam="1">  1        2 0.13515641E+00 0.20266491E+03</pdfrwt>
<pdfrwt beam="2">  1       -2 0.72407575E-02 0.20266491E+03</pdfrwt>
<totfact> 0.34386755E+03</totfact>
</mgrwt>
</event>
<event>
 8    1  0.3629925E-004  0.1368889E+03  0.7546771E-02  0.1226007E+00
          4   -1    0    0  501    0  0.00000000000E+00  0.00000000000E+00  0.33353964646E+02  0.33353964646E+02  0.00000000000E+00 0. -1.
         -4   -1    0    0    0  501 -0.00000000000E+00 -0.00000000000E+00 -0.47462525827E+03  0.47462525827E+03  0.00000000000E+00 0.  1.
         25    2    1    2    0    0 -0.44845206451E+02 -0.33175047691E+02 -0.24193736290E+03  0.27797885871E+03  0.12500752774E+03 0.  0.
         23    2    1    2    0    0  0.44845206451E+02  0.33175047691E+02 -0.19933393072E+03  0.23000036421E+03  0.10027200639E+03 0.  0.
          5    1    3    3  502    0  0.17532452469E+02  0.34212945923E+02 -0.37935848069E+02  0.54213754039E+02  0.47000000000E+01 0.  1.
         -5    1    4    4    0  503 -0.14621304642E+02  0.34870186544E+02 -0.14280548585E+03  0.14780124914E+03  0.47000000000E+01 0.  1.
          5    1    4    4  503    0  0.59466511093E+02 -0.16951388527E+01 -0.56528444872E+02  0.82199115061E+02  0.47000000000E+01 0. -1.
         -5    1    3    3    0  502 -0.62377658919E+02 -0.67387993614E+02 -0.20400151483E+03  0.22376510467E+03  0.47000000000E+01 0.  1.
<mgrwt>
<rscale>  0 0.13098104E+03</rscale>
<asrwt>0</asrwt>
<pdfrwt beam="1">  1        4 0.51313791E-02 0.13688885E+03</pdfrwt>
<pdfrwt beam="2">  1       -4 0.73019271E-01 0.13688885E+03</pdfrwt>
<totfact> 0.66124335E+02</totfact>
</mgrwt>
</event>
<event>
 8    1  0.3629925E-004  0.1363866E+03  0.7546771E-02  0.1230485E+00
         -1   -1    0    0    0  501 -0.00000000000E+00  0.00000000000E+00  0.60472653922E+03  0.60472653922E+03  0.00000000000E+00 0.  1.
          1   -1    0    0  501    0  0.00000000000E+00 -0.00000000000E+00 -0.24692372764E+02  0.24692372764E+02  0.00000000000E+00 0. -1.
         25    2    1    2    0    0  0.51752892858E+02 -0.17238305817E+02  0.28362520976E+03  0.31471345448E+03  0.12500311080E+03 0.  0.
         23    2    1    2    0    0 -0.51752892858E+02  0.17238305817E+02  0.29640895670E+03  0.31470545751E+03  0.90585508060E+02 0.  0.
          5    1    3    3  502    0 -0.32879635466E+02 -0.58553157642E+01  0.24078911612E+02  0.41439584162E+02  0.47000000000E+01 0.  1.
         -5    1    3    3    0  502  0.84632528324E+02 -0.11382990052E+02  0.25954629815E+03  0.27327387031E+03  0.47000000000E+01 0.  1.
          5    1    4    4  503    0 -0.15551266116E+02  0.29791357495E+02  0.29332928314E+02  0.44853957938E+02  0.47000000000E+01 0. -1.
         -5    1    4    4    0  503 -0.36201626743E+02 -0.12553051679E+02  0.26707602838E+03  0.26985149957E+03  0.47000000000E+01 0.  1.
<mgrwt>
<rscale>  0 0.12797939E+03</rscale>
<asrwt>0</asrwt>
<pdfrwt beam="1">  1        1 0.37988270E-02 0.13638658E+03</pdfrwt>
<pdfrwt beam="2">  1       -1 0.93034842E-01 0.13638658E+03</pdfrwt>
<totfact> 0.27895238E+03</totfact>
</mgrwt>
</event>
<event>
 8    1  0.3629925E-004  0.1258306E+03  0.7546771E-02  0.1249250E+00
          2   -1    0    0  501    0  0.00000000000E+00  0.00000000000E+00  0.10623265003E+04  0.10623265003E+04  0.00000000000E+00 0. -1.
         -2   -1    0    0    0  501 -0.00000000000E+00 -0.00000000000E+00 -0.11445960288E+02  0.11445960288E+02  0.00000000000E+00 0.  1.
         25    2    1    2    0    0  0.10608669828E+02 -0.97250821567E+01  0.52177233695E+03  0.53673057009E+03  0.12500484854E+03 0.  0.
         23    2    1    2    0    0 -0.10608669828E+02  0.97250821567E+01  0.52910820302E+03  0.53704189046E+03  0.90837109755E+02 0.  0.
          5    1    3    3  502    0 -0.47883508217E+02 -0.31113493516E+02  0.16838684545E+03  0.17786820840E+03  0.47000000000E+01 0.  1.
         -5    1    3    3    0  502  0.58492178045E+02  0.21388411359E+02  0.35338549150E+03  0.35886236169E+03  0.47000000000E+01 0.  1.
          5    1    4    4  503    0 -0.21241416646E+01 -0.38643422696E+02  0.31042481017E+03  0.31286335494E+03  0.47000000000E+01 0. -1.
         -5    1    4    4    0  503 -0.84845281635E+01  0.48368504853E+02  0.21868339285E+03  0.22417853552E+03  0.47000000000E+01 0.  1.
<mgrwt>
<rscale>  0 0.11634596E+03</rscale>
<asrwt>0</asrwt>
<pdfrwt beam="1">  1        2 0.16343477E+00 0.12583057E+03</pdfrwt>
<pdfrwt beam="2">  1       -2 0.17609178E-02 0.12583057E+03</pdfrwt>
<totfact> 0.21284067E+04</totfact>
</mgrwt>
</event>
<event>
 8    1  0.3629925E-004  0.1277268E+03  0.7546771E-02  0.1245180E+00
         -2   -1    0    0    0  501 -0.00000000000E+00  0.00000000000E+00  0.77708627949E+02  0.77708627949E+02  0.00000000000E+00 0.  1.
          2   -1    0    0  501    0  0.00000000000E+00 -0.00000000000E+00 -0.19591304109E+03  0.19591304109E+03  0.00000000000E+00 0. -1.
         25    2    1    2    0    0  0.25379851917E+02 -0.67097815639E+01 -0.12401457945E+03  0.17802736396E+03  0.12499987341E+03 0.  0.
         23    2    1    2    0    0 -0.25379851917E+02  0.67097815639E+01  0.58101663054E+01  0.95594305078E+02  0.91735244475E+02 0.  0.
          5    1    4    4  502    0  0.32564895682E+02  0.96321532764E+01  0.13569378882E+02  0.36870975723E+02  0.47000000000E+01 0. -1.
         -5    1    4    4    0  502 -0.57944747599E+02 -0.29223717125E+01 -0.77592125765E+01  0.58723329355E+02  0.47000000000E+01 0.  1.
          5    1    3    3  503    0  0.30242028325E+02 -0.29158353117E+02  0.87844987792E+01  0.43174613519E+02  0.47000000000E+01 0. -1.
         -5    1    3    3    0  503 -0.48621764083E+01  0.22448571553E+02 -0.13279907823E+03  0.13485275044E+03  0.47000000000E+01 0. -1.
<mgrwt>
<rscale>  0 0.11874587E+03</rscale>
<asrwt>0</asrwt>
<pdfrwt beam="1">  1        2 0.30140468E-01 0.12772676E+03</pdfrwt>
<pdfrwt beam="2">  1       -2 0.11955174E-01 0.12772676E+03</pdfrwt>
<totfact> 0.81770128E+03</totfact>
</mgrwt>
</event>
<event>
 8    1  0.3629925E-004  0.1531576E+03  0.7546771E-02  0.1205228E+00
         -1   -1    0    0    0  501 -0.00000000000E+00  0.00000000000E+00  0.34648945498E+03  0.34648945498E+03  0.00000000000E+00 0.  1.
          1   -1    0    0  501    0  0.00000000000E+00 -0.00000000000E+00 -0.58490679486E+02  0.58490679486E+02  0.00000000000E+00 0. -1.
         25    2    1    2    0    0  0.75569546827E+02  0.46061348429E+02  0.19230929243E+03  0.24584568288E+03  0.12499932644E+03 0.  0.
         23    2    1    2    0    0 -0.75569546827E+02 -0.46061348429E+02  0.95689483067E+02  0.15913445159E+03  0.91295631255E+02 0.  0.
          5    1    4    4  502    0  0.18318738121E+02 -0.11014388182E+02  0.21919246341E+01  0.21995168719E+02  0.47000000000E+01 0. -1.
         -5    1    3    3    0  503  0.33690578763E+02  0.86964523346E+02  0.13174756553E+03  0.16148496661E+03  0.47000000000E+01 0. -1.
          5    1    3    3  503    0  0.41878968064E+02 -0.40903174917E+02  0.60561726897E+02  0.84360716267E+02  0.47000000000E+01 0. -1.
         -5    1    4    4    0  502 -0.93888284948E+02 -0.35046960247E+02  0.93497558433E+02  0.13713928287E+03  0.47000000000E+01 0.  1.
<mgrwt>
<rscale>  0 0.14619533E+03</rscale>
<asrwt>0</asrwt>
<pdfrwt beam="1">  1        1 0.89985663E-02 0.15315755E+03</pdfrwt>
<pdfrwt beam="2">  1       -1 0.53306069E-01 0.15315755E+03</pdfrwt>
<totfact> 0.26240750E+03</totfact>
</mgrwt>
</event>
<event>
 8    1  0.3629925E-004  0.1870421E+03  0.7546771E-02  0.1165860E+00
          2   -1    0    0  501    0  0.00000000000E+00  0.00000000000E+00  0.15130114872E+03  0.15130114872E+03  0.00000000000E+00 0. -1.
         -2   -1    0    0    0  501 -0.00000000000E+00 -0.00000000000E+00 -0.20952120389E+03  0.20952120389E+03  0.00000000000E+00 0.  1.
         25    2    1    2    0    0 -0.10566947989E+03  0.90519850200E+02 -0.15340923500E+02  0.18767018274E+03  0.12499948518E+03 0.  0.
         23    2    1    2    0    0  0.10566947989E+03 -0.90519850200E+02 -0.42879131671E+02  0.17315216986E+03  0.93718577323E+02 0.  0.
          5    1    4    4  502    0  0.32258823992E+02 -0.41639256145E+02  0.28063693389E+02  0.59867522617E+02  0.47000000000E+01 0. -1.
         -5    1    4    4    0  502  0.73410655896E+02 -0.48880594055E+02 -0.70942825060E+02  0.11328464725E+03  0.47000000000E+01 0.  1.
          5    1    3    3  503    0 -0.74958382479E+02  0.28821494084E+02 -0.64312529673E+02  0.10299334492E+03  0.47000000000E+01 0. -1.
         -5    1    3    3    0  503 -0.30711097410E+02  0.61698356116E+02  0.48971606173E+02  0.84676837817E+02  0.47000000000E+01 0. -1.
<mgrwt>
<rscale>  0 0.18202287E+03</rscale>
<asrwt>0</asrwt>
<pdfrwt beam="1">  1        2 0.23277100E-01 0.18704212E+03</pdfrwt>
<pdfrwt beam="2">  1       -2 0.32234031E-01 0.18704212E+03</pdfrwt>
<totfact> 0.20570601E+03</totfact>
</mgrwt>
</event>
<event>
 8    1  0.3629925E-004  0.1353480E+03  0.7546771E-02  0.1232066E+00
          2   -1    0    0  501    0  0.00000000000E+00  0.00000000000E+00  0.15927500715E+03  0.15927500715E+03  0.00000000000E+00 0. -1.
         -2   -1    0    0    0  501 -0.00000000000E+00 -0.00000000000E+00 -0.92780148577E+02  0.92780148577E+02  0.00000000000E+00 0.  1.
         25    2    1    2    0    0  0.46966612695E+02 -0.22066347701E+02  0.57129515856E+02  0.14691104629E+03  0.12500515002E+03 0.  0.
         23    2    1    2    0    0 -0.46966612695E+02  0.22066347701E+02  0.93653427129E+01  0.10514410943E+03  0.90965860050E+02 0.  0.
          5    1    4    4  502    0 -0.27779284217E+02  0.56540996334E+02  0.15226182450E+02  0.64980762770E+02  0.47000000000E+01 0. -1.
         -5    1    3    3    0  503  0.92269111388E+01 -0.60029413337E+02 -0.91344385187E+01  0.61597031762E+02  0.47000000000E+01 0.  1.
          5    1    3    3  503    0  0.37739701556E+02  0.37963065636E+02  0.66263954375E+02  0.85314014531E+02  0.47000000000E+01 0.  1.
         -5    1    4    4    0  502 -0.19187328477E+02 -0.34474648633E+02 -0.58608397370E+01  0.40163346660E+02  0.47000000000E+01 0.  1.
<mgrwt>
<rscale>  0 0.12694121E+03</rscale>
<asrwt>0</asrwt>
<pdfrwt beam="1">  1        2 0.24503847E-01 0.13534797E+03</pdfrwt>
<pdfrwt beam="2">  1       -2 0.14273869E-01 0.13534797E+03</pdfrwt>
<totfact> 0.77414061E+03</totfact>
</mgrwt>
</event>
<event>
 8    1  0.3629925E-004  0.1322320E+03  0.7546771E-02  0.1238102E+00
          3   -1    0    0  501    0  0.00000000000E+00  0.00000000000E+00  0.65738042990E+03  0.65738042990E+03  0.00000000000E+00 0. -1.
         -3   -1    0    0    0  501 -0.00000000000E+00 -0.00000000000E+00 -0.46104208499E+02  0.46104208499E+02  0.00000000000E+00 0.  1.
         25    2    1    2    0    0 -0.22246364106E+02  0.36951064109E+02  0.58645573859E+03  0.60117853794E+03  0.12500007721E+03 0.  0.
         23    2    1    2    0    0  0.22246364106E+02 -0.36951064109E+02  0.24820482810E+02  0.10230610046E+03  0.89387918474E+02 0.  0.
          5    1    4    4  502    0 -0.81090714228E+01 -0.52576666695E+02  0.37854336608E+02  0.65460703633E+02  0.47000000000E+01 0. -1.
         -5    1    3    3    0  503  0.47846931312E+02  0.18911336193E+02  0.35168470945E+03  0.35545912892E+03  0.47000000000E+01 0. -1.
          5    1    3    3  503    0 -0.70093295418E+02  0.18039727916E+02  0.23477102914E+03  0.24571940902E+03  0.47000000000E+01 0. -1.
         -5    1    4    4    0  502  0.30355435529E+02  0.15625602585E+02 -0.13033853798E+02  0.36845396824E+02  0.47000000000E+01 0.  1.
<mgrwt>
<rscale>  0 0.12307918E+03</rscale>
<asrwt>0</asrwt>
<pdfrwt beam="1">  1        3 0.10113544E+00 0.13223200E+03</pdfrwt>
<pdfrwt beam="2">  1       -3 0.70929556E-02 0.13223200E+03</pdfrwt>
<totfact> 0.26671282E+02</totfact>
</mgrwt>
</event>
<event>
 8    1  0.3629925E-004  0.1450285E+03  0.7546771E-02  0.1216248E+00
          2   -1    0    0  501    0  0.00000000000E+00  0.00000000000E+00  0.13221359185E+03  0.13221359185E+03  0.00000000000E+00 0. -1.
         -2   -1    0    0    0  501 -0.00000000000E+00 -0.00000000000E+00 -0.13239274289E+03  0.13239274289E+03  0.00000000000E+00 0.  1.
         25    2    1    2    0    0 -0.73447511414E+02 -0.37050628445E+01  0.12384837746E+02  0.14555635042E+03  0.12500001007E+03 0.  0.
         23    2    1    2    0    0  0.73447511414E+02  0.37050628445E+01 -0.12563988789E+02  0.11904998432E+03  0.92772735919E+02 0.  0.
          5    1    3    3  502    0  0.27950206482E+02  0.23106024053E+02  0.17300373753E+02  0.40453619392E+02  0.47000000000E+01 0.  1.
         -5    1    4    4    0  503 -0.34058506354E+01  0.34706295928E+02 -0.68585859664E+01  0.35850481127E+02  0.47000000000E+01 0.  1.
          5    1    4    4  503    0  0.76853362049E+02 -0.31001233083E+02 -0.57054028225E+01  0.83199503198E+02  0.47000000000E+01 0. -1.
         -5    1    3    3    0  502 -0.10139771790E+03 -0.26811086898E+02 -0.49155360075E+01  0.10510273103E+03  0.47000000000E+01 0.  1.
<mgrwt>
<rscale>  0 0.13785240E+03</rscale>
<asrwt>0</asrwt>
<pdfrwt beam="1">  1        2 0.20340552E-01 0.14502850E+03</pdfrwt>
<pdfrwt beam="2">  1       -2 0.20368114E-01 0.14502850E+03</pdfrwt>
<totfact> 0.53075887E+03</totfact>
</mgrwt>
</event>
<event>
 8    1  0.3629925E-004  0.2832613E+03  0.7546771E-02  0.1095691E+00
          1   -1    0    0  501    0  0.00000000000E+00  0.00000000000E+00  0.64016751603E+03  0.64016751603E+03  0.00000000000E+00 0. -1.
         -1   -1    0    0    0  501 -0.00000000000E+00 -0.00000000000E+00 -0.12895710968E+03  0.12895710968E+03  0.00000000000E+00 0.  1.
         25    2    1    2    0    0  0.17578494299E+03 -0.18360822805E+03  0.15822738533E+03  0.32445780707E+03  0.12499854203E+03 0.  0.
         23    2    1    2    0    0 -0.17578494299E+03  0.18360822805E+03  0.35298302102E+03  0.44466681865E+03  0.92299723119E+02 0.  0.
          5    1    3    3  502    0  0.14877526032E+03 -0.11552836837E+03  0.52222058594E+02  0.19552522953E+03  0.47000000000E+01 0. -1.
         -5    1    3    3    0  502  0.27009682668E+02 -0.68079859688E+02  0.10600532674E+03  0.12893257753E+03  0.47000000000E+01 0. -1.
          5    1    4    4  503    0 -0.12261078400E+03  0.13389111454E+03  0.31196681897E+03  0.36097869888E+03  0.47000000000E+01 0. -1.
         -5    1    4    4    0  503 -0.53174158987E+02  0.49717113512E+02  0.41016202052E+02  0.83688119770E+02  0.47000000000E+01 0.  1.
<mgrwt>
<rscale>  0 0.27999710E+03</rscale>
<asrwt>0</asrwt>
<pdfrwt beam="1">  1        1 0.98487308E-01 0.28326130E+03</pdfrwt>
<pdfrwt beam="2">  1       -1 0.19839556E-01 0.28326130E+03</pdfrwt>
<totfact> 0.65801229E+02</totfact>
</mgrwt>
</event>
<event>
 8    1  0.3629925E-004  0.1325895E+03  0.7546771E-02  0.1236642E+00
          2   -1    0    0  501    0  0.00000000000E+00  0.00000000000E+00  0.55882613871E+03  0.55882613871E+03  0.00000000000E+00 0. -1.
         -2   -1    0    0    0  501 -0.00000000000E+00 -0.00000000000E+00 -0.25321673903E+02  0.25321673903E+02  0.00000000000E+00 0.  1.
         25    2    1    2    0    0  0.17348331547E+02  0.40676875563E+02  0.35331457251E+03  0.37737402852E+03  0.12499758973E+03 0.  0.
         23    2    1    2    0    0 -0.17348331547E+02 -0.40676875563E+02  0.18018989230E+03  0.20677378410E+03  0.91276654681E+02 0.  0.
          5    1    4    4  502    0  0.31804651630E+02 -0.18592604650E+02  0.12109044950E+03  0.12665783739E+03  0.47000000000E+01 0. -1.
         -5    1    4    4    0  502 -0.49152983177E+02 -0.22084270913E+02  0.59099442797E+02  0.80115946701E+02  0.47000000000E+01 0.  1.
          5    1    3    3  503    0 -0.21611801064E+01  0.67363887585E+02  0.93131023515E+02  0.11505668860E+03  0.47000000000E+01 0. -1.
         -5    1    3    3    0  503  0.19509511654E+02 -0.26687012023E+02  0.26018354900E+03  0.26231733992E+03  0.47000000000E+01 0. -1.
<mgrwt>
<rscale>  0 0.12399892E+03</rscale>
<asrwt>0</asrwt>
<pdfrwt beam="1">  1        2 0.85973243E-01 0.13258948E+03</pdfrwt>
<pdfrwt beam="2">  1       -2 0.38956426E-02 0.13258948E+03</pdfrwt>
<totfact> 0.14827351E+04</totfact>
</mgrwt>
</event>
<event>
 8    1  0.3629925E-004  0.1457348E+03  0.7546771E-02  0.1215646E+00
          1   -1    0    0  501    0  0.00000000000E+00  0.00000000000E+00  0.84181764100E+02  0.84181764100E+02  0.00000000000E+00 0. -1.
         -1   -1    0    0    0  501 -0.00000000000E+00 -0.00000000000E+00 -0.21083913167E+03  0.21083913167E+03  0.00000000000E+00 0.  1.
         25    2    1    2    0    0 -0.39504386371E+02 -0.63665398571E+02 -0.49579283354E+02  0.15393740778E+03  0.12499896263E+03 0.  0.
         23    2    1    2    0    0  0.39504386371E+02  0.63665398571E+02 -0.77078084216E+02  0.14108348799E+03  0.91376364557E+02 0.  0.
          5    1    3    3  502    0 -0.29235900474E+01 -0.68518087731E+02 -0.80291472072E+02  0.10569808992E+03  0.47000000000E+01 0. -1.
         -5    1    3    3    0  502 -0.36580796324E+02  0.48526891604E+01  0.30712188717E+02  0.48239317860E+02  0.47000000000E+01 0. -1.
          5    1    4    4  503    0  0.67778920961E+02  0.38681374491E+02 -0.63461402278E+02  0.10069593059E+03  0.47000000000E+01 0. -1.
         -5    1    4    4    0  503 -0.28274534590E+02  0.24984024080E+02 -0.13616681937E+02  0.40387557397E+02  0.47000000000E+01 0.  1.
<mgrwt>
<rscale>  0 0.13829189E+03</rscale>
<asrwt>0</asrwt>
<pdfrwt beam="1">  1        1 0.12951041E-01 0.14573476E+03</pdfrwt>
<pdfrwt beam="2">  1       -1 0.32436789E-01 0.14573476E+03</pdfrwt>
<totfact> 0.38968695E+03</totfact>
</mgrwt>
</event>
<event>
 8    1  0.3629925E-004  0.1334665E+03  0.7546771E-02  0.1236130E+00
         -1   -1    0    0    0  501 -0.00000000000E+00  0.00000000000E+00  0.19069383433E+03  0.19069383433E+03  0.00000000000E+00 0.  1.
          1   -1    0    0  501    0  0.00000000000E+00 -0.00000000000E+00 -0.72232050128E+02  0.72232050128E+02  0.00000000000E+00 0. -1.
         25    2    1    2    0    0 -0.36180604185E+02  0.29658890562E+02  0.78103810279E+02  0.15463996153E+03  0.12499850644E+03 0.  0.
         23    2    1    2    0    0  0.36180604185E+02 -0.29658890562E+02  0.40357973921E+02  0.10828592293E+03  0.88929124233E+02 0.  0.
          5    1    3    3  502    0 -0.80427530311E+02  0.35192297051E+01  0.57647097165E+02  0.99127445348E+02  0.47000000000E+01 0. -1.
         -5    1    4    4    0  503  0.35814427787E+02  0.21547465657E+02  0.38199459376E+02  0.56817736760E+02  0.47000000000E+01 0.  1.
          5    1    4    4  503    0  0.36617639752E+00 -0.51206356219E+02  0.21585145451E+01  0.51468186168E+02  0.47000000000E+01 0. -1.
         -5    1    3    3    0  502  0.44246926126E+02  0.26139660857E+02  0.20456713113E+02  0.55512516181E+02  0.47000000000E+01 0. -1.
<mgrwt>
<rscale>  0 0.12432364E+03</rscale>
<asrwt>0</asrwt>
<pdfrwt beam="1">  1        1 0.11112623E-01 0.13346652E+03</pdfrwt>
<pdfrwt beam="2">  1       -1 0.29337513E-01 0.13346652E+03</pdfrwt>
<totfact> 0.56138109E+03</totfact>
</mgrwt>
</event>
<event>
 8    1  0.3629925E-004  0.1927606E+03  0.7546771E-02  0.1160858E+00
          2   -1    0    0  501    0  0.00000000000E+00  0.00000000000E+00  0.92386870576E+03  0.92386870576E+03  0.00000000000E+00 0. -1.
         -2   -1    0    0    0  501 -0.00000000000E+00 -0.00000000000E+00 -0.38228333424E+02  0.38228333424E+02  0.00000000000E+00 0.  1.
         25    2    1    2    0    0  0.14372362914E+03  0.29604189130E+02  0.35098030552E+03  0.40042955412E+03  0.12499505337E+03 0.  0.
         23    2    1    2    0    0 -0.14372362914E+03 -0.29604189130E+02  0.53466006681E+03  0.56166748505E+03  0.89867052553E+02 0.  0.
          5    1    4    4  502    0 -0.22432650635E+02 -0.32914072440E+02  0.23400883205E+03  0.23742110996E+03  0.47000000000E+01 0. -1.
         -5    1    3    3    0  503  0.19223034096E+02 -0.41428953134E+02  0.12074783164E+03  0.12918208871E+03  0.47000000000E+01 0. -1.
          5    1    3    3  503    0  0.12450059505E+03  0.71033142264E+02  0.23023247388E+03  0.27124746542E+03  0.47000000000E+01 0. -1.
         -5    1    4    4    0  502 -0.12129097851E+03  0.33098833094E+01  0.30065123477E+03  0.32424637509E+03  0.47000000000E+01 0.  1.
<mgrwt>
<rscale>  0 0.18736637E+03</rscale>
<asrwt>0</asrwt>
<pdfrwt beam="1">  1        2 0.14213363E+00 0.19276061E+03</pdfrwt>
<pdfrwt beam="2">  1       -2 0.58812828E-02 0.19276061E+03</pdfrwt>
<totfact> 0.44224468E+03</totfact>
</mgrwt>
</event>
<event>
 8    1  0.3629925E-004  0.1538257E+03  0.7546771E-02  0.1205120E+00
         -1   -1    0    0    0  501 -0.00000000000E+00  0.00000000000E+00  0.42546135946E+02  0.42546135946E+02  0.00000000000E+00 0.  1.
          1   -1    0    0  501    0  0.00000000000E+00 -0.00000000000E+00 -0.59120739017E+03  0.59120739017E+03  0.00000000000E+00 0. -1.
         25    2    1    2    0    0 -0.80034876644E+02 -0.40407188327E+02 -0.14667884013E+03  0.21254888770E+03  0.12499610064E+03 0.  0.
         23    2    1    2    0    0  0.80034876644E+02  0.40407188327E+02 -0.40198241410E+03  0.42120463842E+03  0.88233575411E+02 0.  0.
          5    1    4    4  502    0  0.46590052082E+02  0.37859174427E+02 -0.36916551535E+03  0.37404440614E+03  0.47000000000E+01 0. -1.
         -5    1    4    4    0  502  0.33444824562E+02  0.25480139004E+01 -0.32816898752E+02  0.47160232278E+02  0.47000000000E+01 0.  1.
          5    1    3    3  503    0 -0.81149119444E+02 -0.79103421342E+02 -0.12104892493E+03  0.16588388433E+03  0.47000000000E+01 0. -1.
         -5    1    3    3    0  503  0.11142428002E+01  0.38696233015E+02 -0.25629915195E+02  0.46665003370E+02  0.47000000000E+01 0. -1.
<mgrwt>
<rscale>  0 0.14627983E+03</rscale>
<asrwt>0</asrwt>
<pdfrwt beam="1">  1        1 0.90954980E-01 0.15382571E+03</pdfrwt>
<pdfrwt beam="2">  1       -1 0.65455596E-02 0.15382571E+03</pdfrwt>
<totfact> 0.41004321E+03</totfact>
</mgrwt>
</event>
<event>
 8    1  0.3629925E-004  0.2519008E+03  0.7546771E-02  0.1114574E+00
          3   -1    0    0  501    0  0.00000000000E+00  0.00000000000E+00  0.10178420678E+03  0.10178420678E+03  0.00000000000E+00 0. -1.
         -3   -1    0    0    0  501 -0.00000000000E+00 -0.00000000000E+00 -0.62214163741E+03  0.62214163741E+03  0.00000000000E+00 0.  1.
         25    2    1    2    0    0  0.52726966823E+02  0.21224780558E+03 -0.18096713026E+03  0.31016627799E+03  0.12499901504E+03 0.  0.
         23    2    1    2    0    0 -0.52726966823E+02 -0.21224780558E+03 -0.33939030036E+03  0.41375956620E+03  0.90454069235E+02 0.  0.
          5    1    3    3  502    0  0.32465369396E+02  0.31301311253E+00 -0.35598709048E+01  0.32997891873E+02  0.47000000000E+01 0.  1.
         -5    1    4    4    0  503  0.13645028098E+02 -0.11352755823E+03 -0.13266651023E+03  0.17520612491E+03  0.47000000000E+01 0.  1.
          5    1    4    4  503    0 -0.66371994921E+02 -0.98720247355E+02 -0.20672379013E+03  0.23855344130E+03  0.47000000000E+01 0. -1.
         -5    1    3    3    0  502  0.20261597427E+02  0.21193479247E+03 -0.17740725936E+03  0.27716838611E+03  0.47000000000E+01 0.  1.
<mgrwt>
<rscale>  0 0.24800277E+03</rscale>
<asrwt>0</asrwt>
<pdfrwt beam="1">  1        3 0.15659109E-01 0.25190081E+03</pdfrwt>
<pdfrwt beam="2">  1       -3 0.95714098E-01 0.25190081E+03</pdfrwt>
<totfact> 0.85739731E+01</totfact>
</mgrwt>
</event>
<event>
 8    1  0.3629925E-004  0.1322396E+03  0.7546771E-02  0.1235382E+00
          2   -1    0    0  501    0  0.00000000000E+00  0.00000000000E+00  0.16453041295E+03  0.16453041295E+03  0.00000000000E+00 0. -1.
         -2   -1    0    0    0  501 -0.00000000000E+00 -0.00000000000E+00 -0.11170525017E+03  0.11170525017E+03  0.00000000000E+00 0.  1.
         25    2    1    2    0    0  0.67140671241E+01  0.42633476231E+02 -0.37879497375E+02  0.13755788109E+03  0.12499848934E+03 0.  0.
         23    2    1    2    0    0 -0.67140671241E+01 -0.42633476231E+02  0.90704660147E+02  0.13867778202E+03  0.95611191091E+02 0.  0.
          5    1    4    4  502    0  0.39206305694E+02 -0.34655354989E+02  0.69844809086E+02  0.87398600629E+02  0.47000000000E+01 0. -1.
         -5    1    3    3    0  503  0.38249785488E+02 -0.16649122460E+02  0.22062328984E+02  0.47424421227E+02  0.47000000000E+01 0. -1.
          5    1    3    3  503    0 -0.31535718364E+02  0.59282598690E+02 -0.59941826359E+02  0.90133459866E+02  0.47000000000E+01 0. -1.
         -5    1    4    4    0  502 -0.45920372818E+02 -0.79781212421E+01  0.20859851061E+02  0.51279181396E+02  0.47000000000E+01 0.  1.
<mgrwt>
<rscale>  0 0.12480039E+03</rscale>
<asrwt>0</asrwt>
<pdfrwt beam="1">  1        2 0.25312371E-01 0.13223961E+03</pdfrwt>
<pdfrwt beam="2">  1       -2 0.17185423E-01 0.13223961E+03</pdfrwt>
<totfact> 0.54986790E+03</totfact>
</mgrwt>
</event>
<event>
 8    1  0.3629925E-004  0.1412165E+03  0.7546771E-02  0.1222611E+00
          2   -1    0    0  501    0  0.00000000000E+00  0.00000000000E+00  0.67215635225E+03  0.67215635225E+03  0.00000000000E+00 0. -1.
         -2   -1    0    0    0  501 -0.00000000000E+00 -0.00000000000E+00 -0.24888430407E+02  0.24888430407E+02  0.00000000000E+00 0.  1.
         25    2    1    2    0    0  0.55717119669E+02 -0.34853679771E+02  0.28958733457E+03  0.32218459448E+03  0.12499164837E+03 0.  0.
         23    2    1    2    0    0 -0.55717119669E+02  0.34853679771E+02  0.35768058728E+03  0.37486018818E+03  0.90915244861E+02 0.  0.
          5    1    4    4  502    0 -0.23389356504E+02  0.58206328095E+02  0.28464588235E+03  0.29151399103E+03  0.47000000000E+01 0. -1.
         -5    1    4    4    0  502 -0.32327763165E+02 -0.23352648325E+02  0.73034704926E+02  0.83346197145E+02  0.47000000000E+01 0.  1.
          5    1    3    3  503    0  0.15776168625E+02  0.36948072177E+02  0.18357097503E+03  0.18797457383E+03  0.47000000000E+01 0.  1.
         -5    1    3    3    0  503  0.39940951044E+02 -0.71801751947E+02  0.10601635954E+03  0.13421002065E+03  0.47000000000E+01 0.  1.
<mgrwt>
<rscale>  0 0.13331978E+03</rscale>
<asrwt>0</asrwt>
<pdfrwt beam="1">  1        2 0.10340866E+00 0.14121646E+03</pdfrwt>
<pdfrwt beam="2">  1       -2 0.38289898E-02 0.14121646E+03</pdfrwt>
<totfact> 0.12369108E+04</totfact>
</mgrwt>
</event>
<event>
 8    1  0.3629925E-004  0.1252109E+03  0.7546771E-02  0.1253188E+00
          1   -1    0    0  501    0  0.00000000000E+00  0.00000000000E+00  0.40093883326E+03  0.40093883326E+03  0.00000000000E+00 0. -1.
         -1   -1    0    0    0  501 -0.00000000000E+00 -0.00000000000E+00 -0.31439611094E+02  0.31439611094E+02  0.00000000000E+00 0.  1.
         25    2    1    2    0    0 -0.62643816813E+01  0.37746167545E+01  0.28641646687E+03  0.31258944719E+03  0.12499711913E+03 0.  0.
         23    2    1    2    0    0  0.62643816813E+01 -0.37746167545E+01  0.83082755296E+02  0.11978899717E+03  0.85983541476E+02 0.  0.
          5    1    4    4  502    0  0.19661321606E+02  0.24133504955E+02  0.82684188650E+02  0.88474621680E+02  0.47000000000E+01 0. -1.
         -5    1    3    3    0  503 -0.43406175445E+02  0.37781876639E+02  0.22857128894E+03  0.23575090752E+03  0.47000000000E+01 0. -1.
          5    1    3    3  503    0  0.37141793764E+02 -0.34007259885E+02  0.57845177933E+02  0.76838539672E+02  0.47000000000E+01 0. -1.
         -5    1    4    4    0  502 -0.13396939924E+02 -0.27908121709E+02  0.39856664646E+00  0.31314375486E+02  0.47000000000E+01 0.  1.
<mgrwt>
<rscale>  0 0.11408454E+03</rscale>
<asrwt>0</asrwt>
<pdfrwt beam="1">  1        1 0.61682894E-01 0.12521090E+03</pdfrwt>
<pdfrwt beam="2">  1       -1 0.48368635E-02 0.12521090E+03</pdfrwt>
<totfact> 0.10532262E+04</totfact>
</mgrwt>
</event>
<event>
 8    1  0.3629925E-004  0.1327097E+03  0.7546771E-02  0.1235421E+00
         -2   -1    0    0    0  501 -0.00000000000E+00  0.00000000000E+00  0.11347046146E+02  0.11347046146E+02  0.00000000000E+00 0.  1.
          2   -1    0    0  501    0  0.00000000000E+00 -0.00000000000E+00 -0.12389173625E+04  0.12389173625E+04  0.00000000000E+00 0. -1.
         25    2    1    2    0    0  0.34749192384E+02  0.27922588733E+02 -0.73685794463E+03  0.74871323445E+03  0.12499879817E+03 0.  0.
         23    2    1    2    0    0 -0.34749192384E+02 -0.27922588733E+02 -0.49071237172E+03  0.50155117419E+03  0.93636377755E+02 0.  0.
          5    1    3    3  502    0 -0.41720369953E+02 -0.14123692255E+02 -0.20588294962E+03  0.21059427080E+03  0.47000000000E+01 0.  1.
         -5    1    3    3    0  502  0.76469562338E+02  0.42046280988E+02 -0.53097499501E+03  0.53811896364E+03  0.47000000000E+01 0.  1.
          5    1    4    4  503    0 -0.19005169117E+01  0.32083249070E+02 -0.10930488025E+03  0.11402891599E+03  0.47000000000E+01 0. -1.
         -5    1    4    4    0  503 -0.32848675473E+02 -0.60005837803E+02 -0.38140749146E+03  0.38752225819E+03  0.47000000000E+01 0.  1.
<mgrwt>
<rscale>  0 0.12477517E+03</rscale>
<asrwt>0</asrwt>
<pdfrwt beam="1">  1        2 0.19060259E+00 0.13270975E+03</pdfrwt>
<pdfrwt beam="2">  1       -2 0.17457001E-02 0.13270975E+03</pdfrwt>
<totfact> 0.17216596E+04</totfact>
</mgrwt>
</event>
<event>
 8    1  0.3629925E-004  0.1347134E+03  0.7546771E-02  0.1232991E+00
          1   -1    0    0  501    0  0.00000000000E+00  0.00000000000E+00  0.14792246780E+03  0.14792246780E+03  0.00000000000E+00 0. -1.
         -1   -1    0    0    0  501 -0.00000000000E+00 -0.00000000000E+00 -0.10320463130E+03  0.10320463130E+03  0.00000000000E+00 0.  1.
         25    2    1    2    0    0  0.22423759161E+02 -0.44961881803E+02 -0.67797737482E+01  0.13488393523E+03  0.12499325926E+03 0.  0.
         23    2    1    2    0    0 -0.22423759161E+02  0.44961881803E+02  0.51497610248E+02  0.11624316388E+03  0.91302100177E+02 0.  0.
          5    1    4    4  502    0 -0.10895430015E+02 -0.19835111967E+02  0.44174381264E+02  0.49855872493E+02  0.47000000000E+01 0. -1.
         -5    1    4    4    0  502 -0.11528329146E+02  0.64796993770E+02  0.73232289835E+01  0.66387291384E+02  0.47000000000E+01 0.  1.
          5    1    3    3  503    0  0.34748445443E+02  0.27413752748E+02  0.28952905993E+02  0.53097354604E+02  0.47000000000E+01 0. -1.
         -5    1    3    3    0  503 -0.12324686282E+02 -0.72375634551E+02 -0.35732679742E+02  0.81786580624E+02  0.47000000000E+01 0. -1.
<mgrwt>
<rscale>  0 0.12633953E+03</rscale>
<asrwt>0</asrwt>
<pdfrwt beam="1">  1        1 0.22757303E-01 0.13471344E+03</pdfrwt>
<pdfrwt beam="2">  1       -1 0.15877636E-01 0.13471344E+03</pdfrwt>
<totfact> 0.60247255E+03</totfact>
</mgrwt>
</event>
<event>
 8    1  0.3629925E-004  0.1531905E+03  0.7546771E-02  0.1205206E+00
         -2   -1    0    0    0  501 -0.00000000000E+00  0.00000000000E+00  0.82380518270E+02  0.82380518270E+02  0.00000000000E+00 0. -1.
          2   -1    0    0  501    0  0.00000000000E+00 -0.00000000000E+00 -0.25410972868E+03  0.25410972868E+03  0.00000000000E+00 0.  1.
         25    2    1    2    0    0 -0.85093516016E+02 -0.24498854706E+02 -0.51775004031E+02  0.16170333963E+03  0.12500487452E+03 0.  0.
         23    2    1    2    0    0  0.85093516016E+02  0.24498854706E+02 -0.11995420638E+03  0.17478690732E+03  0.91215957995E+02 0.  0.
          5    1    4    4  502    0 -0.53941438439E+01  0.32566720848E+02 -0.49698781949E+02  0.59847698551E+02  0.47000000000E+01 0. -1.
         -5    1    4    4    0  502  0.90487659860E+02 -0.80678661415E+01 -0.70255424430E+02  0.11493920877E+03  0.47000000000E+01 0.  1.
          5    1    3    3  503    0 -0.11118366839E+03 -0.40915559609E+01 -0.61038369566E+02  0.12698945431E+03  0.47000000000E+01 0. -1.
         -5    1    3    3    0  503  0.26090152373E+02 -0.20407298745E+02  0.92633655351E+01  0.34713885319E+02  0.47000000000E+01 0. -1.
<mgrwt>
<rscale>  0 0.14621228E+03</rscale>
<asrwt>0</asrwt>
<pdfrwt beam="1">  1        2 0.39093804E-01 0.15319047E+03</pdfrwt>
<pdfrwt beam="2">  1       -2 0.12673926E-01 0.15319047E+03</pdfrwt>
<totfact> 0.57010985E+03</totfact>
</mgrwt>
</event>
<event>
 8    1  0.3629925E-004  0.1538159E+03  0.7546771E-02  0.1204153E+00
         -2   -1    0    0    0  501 -0.00000000000E+00  0.00000000000E+00  0.39580227353E+02  0.39580227353E+02  0.00000000000E+00 0.  1.
          2   -1    0    0  501    0  0.00000000000E+00 -0.00000000000E+00 -0.52550250751E+03  0.52550250751E+03  0.00000000000E+00 0. -1.
         25    2    1    2    0    0  0.32236140893E+02 -0.83624278365E+02 -0.20600896802E+03  0.25709728474E+03  0.12500852052E+03 0.  0.
         23    2    1    2    0    0 -0.32236140893E+02  0.83624278365E+02 -0.27991331213E+03  0.30798545013E+03  0.92040135092E+02 0.  0.
          5    1    4    4  502    0 -0.55457959769E+02  0.17699889266E+02 -0.12919872743E+03  0.14178600972E+03  0.47000000000E+01 0. -1.
         -5    1    4    4    0  502  0.23221818876E+02  0.65924389098E+02 -0.15071458470E+03  0.16619944041E+03  0.47000000000E+01 0.  1.
          5    1    3    3  503    0  0.72738473981E+02 -0.56956484095E+02 -0.81094059510E+02  0.12301732872E+03  0.47000000000E+01 0. -1.
         -5    1    3    3    0  503 -0.40502333088E+02 -0.26667794270E+02 -0.12491490851E+03  0.13407995602E+03  0.47000000000E+01 0. -1.
<mgrwt>
<rscale>  0 0.14704427E+03</rscale>
<asrwt>0</asrwt>
<pdfrwt beam="1">  1        2 0.80846536E-01 0.15381586E+03</pdfrwt>
<pdfrwt beam="2">  1       -2 0.60892660E-02 0.15381586E+03</pdfrwt>
<totfact> 0.82022354E+03</totfact>
</mgrwt>
</event>
<event>
 8    1  0.3629925E-004  0.1282473E+03  0.7546771E-02  0.1244750E+00
          4   -1    0    0  501    0  0.00000000000E+00  0.00000000000E+00  0.38185639052E+03  0.38185639052E+03  0.00000000000E+00 0. -1.
         -4   -1    0    0    0  501 -0.00000000000E+00 -0.00000000000E+00 -0.34591324670E+02  0.34591324670E+02  0.00000000000E+00 0.  1.
         25    2    1    2    0    0 -0.23745244927E+02  0.16182975723E+02  0.14920209922E+03  0.19674510010E+03  0.12498656984E+03 0.  0.
         23    2    1    2    0    0  0.23745244927E+02 -0.16182975723E+02  0.19806296663E+03  0.21970261509E+03  0.90634292457E+02 0.  0.
          5    1    4    4  502    0  0.10393371774E+02 -0.33782902532E+02  0.19337561422E+03  0.19663551270E+03  0.47000000000E+01 0. -1.
         -5    1    3    3    0  503  0.49963296402E+02  0.72245202066E+01  0.82438116757E+02  0.96781494998E+02  0.47000000000E+01 0. -1.
          5    1    3    3  503    0 -0.73708541329E+02  0.89584555166E+01  0.66763982463E+02  0.99963605099E+02  0.47000000000E+01 0. -1.
         -5    1    4    4    0  502  0.13351873153E+02  0.17599926809E+02  0.46873524147E+01  0.23067102398E+02  0.47000000000E+01 0.  1.
<mgrwt>
<rscale>  0 0.11900330E+03</rscale>
<asrwt>0</asrwt>
<pdfrwt beam="1">  1        4 0.58747134E-01 0.12824729E+03</pdfrwt>
<pdfrwt beam="2">  1       -4 0.53217425E-02 0.12824729E+03</pdfrwt>
<totfact> 0.97798908E+02</totfact>
</mgrwt>
</event>
<event>
 8    1  0.3629925E-004  0.1567834E+03  0.7546771E-02  0.1200468E+00
          1   -1    0    0  501    0  0.00000000000E+00  0.00000000000E+00  0.29702022445E+03  0.29702022445E+03  0.00000000000E+00 0. -1.
         -1   -1    0    0    0  501 -0.00000000000E+00 -0.00000000000E+00 -0.69944379184E+02  0.69944379184E+02  0.00000000000E+00 0.  1.
         25    2    1    2    0    0  0.64819172981E+02 -0.68932521860E+02  0.11842560575E+03  0.19648318856E+03  0.12501120563E+03 0.  0.
         23    2    1    2    0    0 -0.64819172981E+02  0.68932521860E+02  0.10865023951E+03  0.17048141507E+03  0.91136274794E+02 0.  0.
          5    1    3    3  502    0  0.42650585856E+02 -0.86486523010E+02  0.26390814634E+02  0.10008774267E+03  0.47000000000E+01 0. -1.
         -5    1    3    3    0  502  0.22168587125E+02  0.17554001150E+02  0.92034791119E+02  0.96395445888E+02  0.47000000000E+01 0. -1.
          5    1    4    4  503    0 -0.72901035905E+02  0.49929854358E+02  0.11786697033E+03  0.14738474849E+03  0.47000000000E+01 0. -1.
         -5    1    4    4    0  503  0.80818629249E+01  0.19002667502E+02 -0.92167308145E+01  0.23096666587E+02  0.47000000000E+01 0.  1.
<mgrwt>
<rscale>  0 0.15000372E+03</rscale>
<asrwt>0</asrwt>
<pdfrwt beam="1">  1        1 0.45695418E-01 0.15678335E+03</pdfrwt>
<pdfrwt beam="2">  1       -1 0.10760674E-01 0.15678335E+03</pdfrwt>
<totfact> 0.46691457E+03</totfact>
</mgrwt>
</event>
<event>
 8    1  0.3629925E-004  0.1402955E+03  0.7546771E-02  0.1223709E+00
         -1   -1    0    0    0  501 -0.00000000000E+00  0.00000000000E+00  0.87576428449E+02  0.87576428449E+02  0.00000000000E+00 0.  1.
          1   -1    0    0  501    0  0.00000000000E+00 -0.00000000000E+00 -0.18858026896E+03  0.18858026896E+03  0.00000000000E+00 0. -1.
         25    2    1    2    0    0 -0.87706712766E+01  0.63102404471E+02 -0.82696815130E+02  0.16285449489E+03  0.12499594053E+03 0.  0.
         23    2    1    2    0    0  0.87706712766E+01 -0.63102404471E+02 -0.18307025377E+02  0.11330220252E+03  0.91887995908E+02 0.  0.
          5    1    3    3  502    0 -0.63348608922E+02  0.10867081264E+02 -0.34194614573E+02  0.72955475280E+02  0.47000000000E+01 0. -1.
         -5    1    3    3    0  502  0.54577937645E+02  0.52235323207E+02 -0.48502200557E+02  0.89899019611E+02  0.47000000000E+01 0. -1.
          5    1    4    4  503    0  0.19544957795E+02 -0.38528290899E+02 -0.53418488166E+02  0.68862612880E+02  0.47000000000E+01 0. -1.
         -5    1    4    4    0  503 -0.10774286519E+02 -0.24574113572E+02  0.35111462788E+02  0.44439589635E+02  0.47000000000E+01 0.  1.
<mgrwt>
<rscale>  0 0.13255810E+03</rscale>
<asrwt>0</asrwt>
<pdfrwt beam="1">  1        1 0.29012348E-01 0.14029549E+03</pdfrwt>
<pdfrwt beam="2">  1       -1 0.13473297E-01 0.14029549E+03</pdfrwt>
<totfact> 0.57599698E+03</totfact>
</mgrwt>
</event>
<event>
 8    1  0.3629925E-004  0.1277878E+03  0.7546771E-02  0.1245233E+00
          1   -1    0    0  501    0  0.00000000000E+00  0.00000000000E+00  0.56714771858E+03  0.56714771858E+03  0.00000000000E+00 0. -1.
         -1   -1    0    0    0  501 -0.00000000000E+00 -0.00000000000E+00 -0.22824875105E+02  0.22824875105E+02  0.00000000000E+00 0.  1.
         25    2    1    2    0    0  0.14484096435E+02  0.22248992623E+02  0.25206912040E+03  0.28261026984E+03  0.12499966574E+03 0.  0.
         23    2    1    2    0    0 -0.14484096435E+02 -0.22248992623E+02  0.29225372307E+03  0.30736232384E+03  0.91403242555E+02 0.  0.
          5    1    4    4  502    0 -0.36877749912E+02 -0.41158948607E+02  0.24764509582E+03  0.25377984745E+03  0.47000000000E+01 0. -1.
         -5    1    4    4    0  502  0.22393653476E+02  0.18909955984E+02  0.44608627243E+02  0.53582476388E+02  0.47000000000E+01 0.  1.
          5    1    3    3  503    0  0.21450378780E+02  0.64541847495E+02  0.21564623242E+03  0.22616621406E+03  0.47000000000E+01 0.  1.
         -5    1    3    3    0  503 -0.69662823443E+01 -0.42292854872E+02  0.36422887986E+02  0.56444055774E+02  0.47000000000E+01 0.  1.
<mgrwt>
<rscale>  0 0.11871463E+03</rscale>
<asrwt>0</asrwt>
<pdfrwt beam="1">  1        1 0.87253484E-01 0.12778781E+03</pdfrwt>
<pdfrwt beam="2">  1       -1 0.35115197E-02 0.12778781E+03</pdfrwt>
<totfact> 0.10779055E+04</totfact>
</mgrwt>
</event>
<event>
 8    1  0.3629925E-004  0.2212355E+03  0.7546771E-02  0.1136225E+00
         -2   -1    0    0    0  501 -0.00000000000E+00  0.00000000000E+00  0.50578239159E+02  0.50578239159E+02  0.00000000000E+00 0.  1.
          2   -1    0    0  501    0  0.00000000000E+00 -0.00000000000E+00 -0.89562934381E+03  0.89562934381E+03  0.00000000000E+00 0. -1.
         25    2    1    2    0    0  0.51928368676E+01  0.18244457439E+03 -0.44892040614E+03  0.50047444735E+03  0.12502860920E+03 0.  0.
         23    2    1    2    0    0 -0.51928368676E+01 -0.18244457439E+03 -0.39613069851E+03  0.44573313562E+03  0.91899453808E+02 0.  0.
          5    1    3    3  502    0 -0.44727024985E+02  0.11686461951E+03 -0.34946549507E+03  0.37122239736E+03  0.47000000000E+01 0.  1.
         -5    1    3    3    0  502  0.49919861853E+02  0.65579954883E+02 -0.99454911071E+02  0.12925204999E+03  0.47000000000E+01 0.  1.
          5    1    4    4  503    0  0.31432998289E+02 -0.64572494198E+02 -0.21307217460E+03  0.22489882609E+03  0.47000000000E+01 0. -1.
         -5    1    4    4    0  503 -0.36625835157E+02 -0.11787208019E+03 -0.18305852391E+03  0.22083430953E+03  0.47000000000E+01 0.  1.
<mgrwt>
<rscale>  0 0.21688734E+03</rscale>
<asrwt>0</asrwt>
<pdfrwt beam="1">  1        2 0.13778912E+00 0.22123549E+03</pdfrwt>
<pdfrwt beam="2">  1       -2 0.77812681E-02 0.22123549E+03</pdfrwt>
<totfact> 0.30030340E+03</totfact>
</mgrwt>
</event>
<event>
 8    1  0.3629925E-004  0.1474278E+03  0.7546771E-02  0.1213833E+00
         -2   -1    0    0    0  501 -0.00000000000E+00  0.00000000000E+00  0.58652924423E+02  0.58652924423E+02  0.00000000000E+00 0.  1.
          2   -1    0    0  501    0  0.00000000000E+00 -0.00000000000E+00 -0.32784271916E+03  0.32784271916E+03  0.00000000000E+00 0. -1.
         25    2    1    2    0    0  0.18069260544E+02 -0.76052688128E+02 -0.20231079918E+03  0.25032899373E+03  0.12499774434E+03 0.  0.
         23    2    1    2    0    0 -0.18069260544E+02  0.76052688128E+02 -0.66878995560E+02  0.13616664985E+03  0.89207886072E+02 0.  0.
          5    1    4    4  502    0 -0.13279492147E+02  0.33914426975E+02 -0.82835910474E+02  0.90611320113E+02  0.47000000000E+01 0. -1.
         -5    1    3    3    0  503 -0.57682865664E+00 -0.36252900032E+02 -0.20285557467E+03  0.20612394248E+03  0.47000000000E+01 0. -1.
          5    1    3    3  503    0  0.18646089201E+02 -0.39799788096E+02  0.54477549200E+00  0.44205051241E+02  0.47000000000E+01 0. -1.
         -5    1    4    4    0  502 -0.47897683968E+01  0.42138261153E+02  0.15956914913E+02  0.45555329742E+02  0.47000000000E+01 0.  1.
<mgrwt>
<rscale>  0 0.13962579E+03</rscale>
<asrwt>0</asrwt>
<pdfrwt beam="1">  1        2 0.50437342E-01 0.14742776E+03</pdfrwt>
<pdfrwt beam="2">  1       -2 0.90235267E-02 0.14742776E+03</pdfrwt>
<totfact> 0.74299097E+03</totfact>
</mgrwt>
</event>
<event>
 8    1  0.3629925E-004  0.1762259E+03  0.7546771E-02  0.1177472E+00
         -1   -1    0    0    0  501 -0.00000000000E+00  0.00000000000E+00  0.14838983770E+03  0.14838983770E+03  0.00000000000E+00 0.  1.
          1   -1    0    0  501    0  0.00000000000E+00 -0.00000000000E+00 -0.26638572830E+03  0.26638572830E+03  0.00000000000E+00 0. -1.
         25    2    1    2    0    0 -0.12370950970E+03 -0.11211188772E+02  0.53667985503E+02  0.18421676665E+03  0.12500332357E+03 0.  0.
         23    2    1    2    0    0  0.12370950970E+03  0.11211188772E+02 -0.17166387610E+03  0.23055879935E+03  0.90879811036E+02 0.  0.
          5    1    4    4  502    0  0.82491019290E+02  0.32394327591E+02 -0.15931884905E+03  0.18236980668E+03  0.47000000000E+01 0. -1.
         -5    1    4    4    0  502  0.41218490408E+02 -0.21183138819E+02 -0.12345027051E+02  0.48188992671E+02  0.47000000000E+01 0.  1.
          5    1    3    3  503    0 -0.71451708585E+02 -0.44577285375E+02  0.80406330323E+02  0.11653218005E+03  0.47000000000E+01 0. -1.
         -5    1    3    3    0  503 -0.52257801114E+02  0.33366096603E+02 -0.26738344821E+02  0.67684586602E+02  0.47000000000E+01 0. -1.
<mgrwt>
<rscale>  0 0.17036106E+03</rscale>
<asrwt>0</asrwt>
<pdfrwt beam="1">  1        1 0.40982419E-01 0.17622589E+03</pdfrwt>
<pdfrwt beam="2">  1       -1 0.22829206E-01 0.17622589E+03</pdfrwt>
<totfact> 0.16330169E+03</totfact>
</mgrwt>
</event>
<event>
 8    1  0.3629925E-004  0.1574489E+03  0.7546771E-02  0.1200585E+00
         -1   -1    0    0    0  501 -0.00000000000E+00  0.00000000000E+00  0.88826295838E+02  0.88826295838E+02  0.00000000000E+00 0.  1.
          1   -1    0    0  501    0  0.00000000000E+00 -0.00000000000E+00 -0.25852320192E+03  0.25852320192E+03  0.00000000000E+00 0. -1.
         25    2    1    2    0    0  0.61535714398E+02 -0.73355112921E+02 -0.36437146714E+02  0.16161008263E+03  0.12499014525E+03 0.  0.
         23    2    1    2    0    0 -0.61535714398E+02  0.73355112921E+02 -0.13325975937E+03  0.18573941513E+03  0.87024997140E+02 0.  0.
          5    1    3    3  502    0  0.16229127667E+02 -0.94911773388E+02  0.47585117172E+01  0.96521307214E+02  0.47000000000E+01 0. -1.
         -5    1    4    4    0  503  0.13939346832E+02  0.20679923087E+02 -0.21349471050E+01  0.25467874040E+02  0.47000000000E+01 0.  1.
          5    1    4    4  503    0 -0.75475061230E+02  0.52675189834E+02 -0.13112481227E+03  0.16027154109E+03  0.47000000000E+01 0. -1.
         -5    1    3    3    0  502  0.45306586731E+02  0.21556660467E+02 -0.41195658431E+02  0.65088775417E+02  0.47000000000E+01 0. -1.
<mgrwt>
<rscale>  0 0.14990885E+03</rscale>
<asrwt>0</asrwt>
<pdfrwt beam="1">  1        1 0.39772800E-01 0.15744889E+03</pdfrwt>
<pdfrwt beam="2">  1       -1 0.13665584E-01 0.15744889E+03</pdfrwt>
<totfact> 0.38311399E+03</totfact>
</mgrwt>
</event>
<event>
 8    1  0.3629925E-004  0.1641370E+03  0.7546771E-02  0.1191658E+00
          2   -1    0    0  501    0  0.00000000000E+00  0.00000000000E+00  0.21014970733E+03  0.21014970733E+03  0.00000000000E+00 0. -1.
         -2   -1    0    0    0  501 -0.00000000000E+00 -0.00000000000E+00 -0.11299938355E+03  0.11299938355E+03  0.00000000000E+00 0.  1.
         25    2    1    2    0    0 -0.67698306662E+02 -0.82054201602E+02  0.82072768862E+02  0.18351261054E+03  0.12499994446E+03 0.  0.
         23    2    1    2    0    0  0.67698306662E+02  0.82054201602E+02  0.15077554918E+02  0.13963648033E+03  0.89191150075E+02 0.  0.
          5    1    4    4  502    0  0.69395518244E+02  0.52356226899E+02  0.44293859158E+02  0.97677778468E+02  0.47000000000E+01 0. -1.
         -5    1    4    4    0  502 -0.16972115813E+01  0.29697974703E+02 -0.29216304240E+02  0.41958701864E+02  0.47000000000E+01 0.  1.
          5    1    3    3  503    0 -0.87790629935E+02 -0.15816677006E+02  0.22622760844E+02  0.92147931523E+02  0.47000000000E+01 0. -1.
         -5    1    3    3    0  503  0.20092323272E+02 -0.66237524596E+02  0.59450008018E+02  0.91364679020E+02  0.47000000000E+01 0. -1.
<mgrwt>
<rscale>  0 0.15740475E+03</rscale>
<asrwt>0</asrwt>
<pdfrwt beam="1">  1        2 0.32330724E-01 0.16413695E+03</pdfrwt>
<pdfrwt beam="2">  1       -2 0.17384521E-01 0.16413695E+03</pdfrwt>
<totfact> 0.41829641E+03</totfact>
</mgrwt>
</event>
<event>
 8    1  0.3629925E-004  0.1313364E+03  0.7546771E-02  0.1238782E+00
          3   -1    0    0  501    0  0.00000000000E+00  0.00000000000E+00  0.72423164272E+03  0.72423164272E+03  0.00000000000E+00 0. -1.
         -3   -1    0    0    0  501 -0.00000000000E+00 -0.00000000000E+00 -0.25468693300E+02  0.25468693300E+02  0.00000000000E+00 0.  1.
         25    2    1    2    0    0 -0.16010655827E+02 -0.36998742068E+02  0.57915099849E+03  0.59385615061E+03  0.12499600216E+03 0.  0.
         23    2    1    2    0    0  0.16010655827E+02  0.36998742068E+02  0.11961195093E+03  0.15584418541E+03  0.91406472993E+02 0.  0.
          5    1    4    4  502    0  0.29676076699E+02 -0.13081225290E+02  0.90259913489E+02  0.96024632081E+02  0.47000000000E+01 0. -1.
         -5    1    4    4    0  502 -0.13665420872E+02  0.50079967358E+02  0.29352037445E+02  0.59819553328E+02  0.47000000000E+01 0.  1.
          5    1    3    3  503    0  0.48678863423E+01  0.45503103690E+02  0.19206177724E+03  0.19749441774E+03  0.47000000000E+01 0. -1.
         -5    1    3    3    0  503 -0.20878542169E+02 -0.82501845758E+02  0.38708922125E+03  0.39636173287E+03  0.47000000000E+01 0. -1.
<mgrwt>
<rscale>  0 0.12265415E+03</rscale>
<asrwt>0</asrwt>
<pdfrwt beam="1">  1        3 0.11142024E+00 0.13133639E+03</pdfrwt>
<pdfrwt beam="2">  1       -3 0.39182611E-02 0.13133639E+03</pdfrwt>
<totfact> 0.54682468E+02</totfact>
</mgrwt>
</event>
<event>
 8    1  0.3629925E-004  0.1618047E+03  0.7546771E-02  0.1193696E+00
         -1   -1    0    0    0  501 -0.00000000000E+00  0.00000000000E+00  0.37072589923E+03  0.37072589923E+03  0.00000000000E+00 0.  1.
          1   -1    0    0  501    0  0.00000000000E+00 -0.00000000000E+00 -0.60903465967E+02  0.60903465967E+02  0.00000000000E+00 0. -1.
         25    2    1    2    0    0 -0.84527155360E+02 -0.58401475752E+02  0.17385734733E+03  0.23750185802E+03  0.12500073191E+03 0.  0.
         23    2    1    2    0    0  0.84527155360E+02  0.58401475752E+02  0.13596508593E+03  0.19412750718E+03  0.92969952609E+02 0.  0.
          5    1    4    4  502    0  0.64186772441E+02 -0.85027535791E+01  0.43675747665E+02  0.78242568394E+02  0.47000000000E+01 0. -1.
         -5    1    3    3    0  503 -0.13492420288E+01 -0.74233438340E+02  0.10262187485E+03  0.12675079100E+03  0.47000000000E+01 0.  1.
          5    1    3    3  503    0 -0.83177913332E+02  0.15831962588E+02  0.71235472480E+02  0.11075106702E+03  0.47000000000E+01 0.  1.
         -5    1    4    4    0  502  0.20340382920E+02  0.66904229331E+02  0.92289338267E+02  0.11588493879E+03  0.47000000000E+01 0.  1.
<mgrwt>
<rscale>  0 0.15565142E+03</rscale>
<asrwt>0</asrwt>
<pdfrwt beam="1">  1        1 0.93697642E-02 0.16180468E+03</pdfrwt>
<pdfrwt beam="2">  1       -1 0.57034752E-01 0.16180468E+03</pdfrwt>
<totfact> 0.21962649E+03</totfact>
</mgrwt>
</event>
<event>
 8    1  0.3629925E-004  0.1285377E+03  0.7546771E-02  0.1243685E+00
         -1   -1    0    0    0  501 -0.00000000000E+00  0.00000000000E+00  0.20921717817E+03  0.20921717817E+03  0.00000000000E+00 0.  1.
          1   -1    0    0  501    0  0.00000000000E+00 -0.00000000000E+00 -0.61154561503E+02  0.61154561503E+02  0.00000000000E+00 0. -1.
         25    2    1    2    0    0 -0.26225561119E+02 -0.14440619305E+02  0.70703297796E+02  0.14670003318E+03  0.12500252747E+03 0.  0.
         23    2    1    2    0    0  0.26225561119E+02  0.14440619305E+02  0.77359318874E+02  0.12367170650E+03  0.91727396287E+02 0.  0.
          5    1    3    3  502    0  0.40367404943E+02 -0.32711957196E+02  0.70085454143E+01  0.52638476747E+02  0.47000000000E+01 0. -1.
         -5    1    3    3    0  502 -0.66592966062E+02  0.18271337891E+02  0.63694752382E+02  0.94061556432E+02  0.47000000000E+01 0. -1.
          5    1    4    4  503    0  0.31521494008E+02 -0.33418486191E+02  0.50119336110E+02  0.68150111195E+02  0.47000000000E+01 0. -1.
         -5    1    4    4    0  503 -0.52959328891E+01  0.47859105496E+02  0.27239982763E+02  0.55521595303E+02  0.47000000000E+01 0.  1.
<mgrwt>
<rscale>  0 0.11964456E+03</rscale>
<asrwt>0</asrwt>
<pdfrwt beam="1">  1        1 0.94083942E-02 0.12853771E+03</pdfrwt>
<pdfrwt beam="2">  1       -1 0.32187258E-01 0.12853771E+03</pdfrwt>
<totfact> 0.59695576E+03</totfact>
</mgrwt>
</event>
<event>
 8    1  0.3629925E-004  0.1835963E+03  0.7546771E-02  0.1169099E+00
         -2   -1    0    0    0  501 -0.00000000000E+00  0.00000000000E+00  0.39291849132E+02  0.39291849132E+02  0.00000000000E+00 0.  1.
          2   -1    0    0  501    0  0.00000000000E+00 -0.00000000000E+00 -0.81806015296E+03  0.81806015296E+03  0.00000000000E+00 0. -1.
         25    2    1    2    0    0  0.12836032514E+03  0.40083703399E+02 -0.51129149529E+03  0.54325555092E+03  0.12499809639E+03 0.  0.
         23    2    1    2    0    0 -0.12836032514E+03 -0.40083703399E+02 -0.26747680853E+03  0.31409645116E+03  0.95024529376E+02 0.  0.
          5    1    3    3  502    0  0.10742432227E+03 -0.27972340009E+02 -0.28124889797E+03  0.30239951956E+03  0.47000000000E+01 0.  1.
         -5    1    4    4    0  503 -0.49550140784E+02 -0.23909798157E+02 -0.28998283882E+02  0.62368945539E+02  0.47000000000E+01 0.  1.
          5    1    4    4  503    0 -0.78810184360E+02 -0.16173905242E+02 -0.23847852465E+03  0.25172750562E+03  0.47000000000E+01 0. -1.
         -5    1    3    3    0  502  0.20936002874E+02  0.68056043408E+02 -0.23004259732E+03  0.24085603136E+03  0.47000000000E+01 0.  1.
<mgrwt>
<rscale>  0 0.17866711E+03</rscale>
<asrwt>0</asrwt>
<pdfrwt beam="1">  1        2 0.12585542E+00 0.18359630E+03</pdfrwt>
<pdfrwt beam="2">  1       -2 0.60448995E-02 0.18359630E+03</pdfrwt>
<totfact> 0.49623944E+03</totfact>
</mgrwt>
</event>
<event>
 8    1  0.3629925E-004  0.1321277E+03  0.7546771E-02  0.1238576E+00
          2   -1    0    0  501    0  0.00000000000E+00  0.00000000000E+00  0.37912153230E+03  0.37912153230E+03  0.00000000000E+00 0. -1.
         -2   -1    0    0    0  501 -0.00000000000E+00 -0.00000000000E+00 -0.42470058665E+02  0.42470058665E+02  0.00000000000E+00 0.  1.
         25    2    1    2    0    0 -0.42565093596E+01 -0.42588696356E+02  0.10143973500E+03  0.16657653229E+03  0.12500322533E+03 0.  0.
         23    2    1    2    0    0  0.42565093596E+01  0.42588696356E+02  0.23521173864E+03  0.25501505867E+03  0.88747975916E+02 0.  0.
          5    1    3    3  502    0 -0.36993650319E+02 -0.32083239282E+02 -0.97044613681E+01  0.50141110649E+02  0.47000000000E+01 0. -1.
         -5    1    3    3    0  502  0.32737140959E+02 -0.10505457074E+02  0.11114419636E+03  0.11643542164E+03  0.47000000000E+01 0. -1.
          5    1    4    4  503    0  0.45462295719E+02  0.30740861606E+02  0.14196249981E+03  0.15227364269E+03  0.47000000000E+01 0. -1.
         -5    1    4    4    0  503 -0.41205786360E+02  0.11847834749E+02  0.93249238824E+02  0.10274141599E+03  0.47000000000E+01 0.  1.
<mgrwt>
<rscale>  0 0.12278271E+03</rscale>
<asrwt>0</asrwt>
<pdfrwt beam="1">  1        2 0.58326387E-01 0.13212767E+03</pdfrwt>
<pdfrwt beam="2">  1       -2 0.65338554E-02 0.13212767E+03</pdfrwt>
<totfact> 0.10391915E+04</totfact>
</mgrwt>
</event>
<event>
 8    1  0.3629925E-004  0.1432237E+03  0.7546771E-02  0.1219374E+00
          1   -1    0    0  501    0  0.00000000000E+00  0.00000000000E+00  0.52125481160E+03  0.52125481160E+03  0.00000000000E+00 0. -1.
         -1   -1    0    0    0  501 -0.00000000000E+00 -0.00000000000E+00 -0.32808691977E+02  0.32808691977E+02  0.00000000000E+00 0.  1.
         25    2    1    2    0    0 -0.68889580758E+02  0.11945429520E+02  0.31341442412E+03  0.34458906535E+03  0.12499822035E+03 0.  0.
         23    2    1    2    0    0  0.68889580758E+02 -0.11945429520E+02  0.17503169550E+03  0.20947443822E+03  0.91405569934E+02 0.  0.
          5    1    4    4  502    0  0.21135364413E+02  0.38736728965E+02  0.81151896216E+02  0.92493016273E+02  0.47000000000E+01 0. -1.
         -5    1    3    3    0  503 -0.20070596283E+02  0.61866212514E+02  0.94924055618E+02  0.11516476640E+03  0.47000000000E+01 0. -1.
          5    1    3    3  503    0 -0.48818984475E+02 -0.49920782995E+02  0.21849036850E+03  0.22942429895E+03  0.47000000000E+01 0. -1.
         -5    1    4    4    0  502  0.47754216345E+02 -0.50682158485E+02  0.93879799286E+02  0.11698142195E+03  0.47000000000E+01 0.  1.
<mgrwt>
<rscale>  0 0.13560049E+03</rscale>
<asrwt>0</asrwt>
<pdfrwt beam="1">  1        1 0.80193042E-01 0.14322368E+03</pdfrwt>
<pdfrwt beam="2">  1       -1 0.50474915E-02 0.14322368E+03</pdfrwt>
<totfact> 0.71239223E+03</totfact>
</mgrwt>
</event>
<event>
 8    1  0.3629925E-004  0.1348124E+03  0.7546771E-02  0.1233406E+00
         -1   -1    0    0    0  501 -0.00000000000E+00  0.00000000000E+00  0.16227181867E+02  0.16227181867E+02  0.00000000000E+00 0.  1.
          1   -1    0    0  501    0  0.00000000000E+00 -0.00000000000E+00 -0.89124636935E+03  0.89124636935E+03  0.00000000000E+00 0. -1.
         25    2    1    2    0    0  0.25407938713E+02  0.43688647728E+02 -0.56059801859E+03  0.57658001960E+03  0.12498047551E+03 0.  0.
         23    2    1    2    0    0 -0.25407938713E+02 -0.43688647728E+02 -0.31442116889E+03  0.33089353162E+03  0.89864322903E+02 0.  0.
          5    1    4    4  502    0  0.18536313406E+01 -0.63786213311E+02 -0.24882274544E+03  0.25691820801E+03  0.47000000000E+01 0. -1.
         -5    1    4    4    0  502 -0.27261570053E+02  0.20097565583E+02 -0.65598423450E+02  0.73975323611E+02  0.47000000000E+01 0.  1.
          5    1    3    3  503    0 -0.37302963758E+02 -0.14355148014E+02 -0.28979899895E+03  0.29258012778E+03  0.47000000000E+01 0. -1.
         -5    1    3    3    0  503  0.62710902470E+02  0.58043795742E+02 -0.27079901965E+03  0.28399989182E+03  0.47000000000E+01 0. -1.
<mgrwt>
<rscale>  0 0.12607045E+03</rscale>
<asrwt>0</asrwt>
<pdfrwt beam="1">  1        1 0.13711486E+00 0.13481239E+03</pdfrwt>
<pdfrwt beam="2">  1       -1 0.24964889E-02 0.13481239E+03</pdfrwt>
<totfact> 0.92505305E+03</totfact>
</mgrwt>
</event>
<event>
 8    1  0.3629925E-004  0.3260123E+03  0.7546771E-02  0.1074217E+00
         -2   -1    0    0    0  501 -0.00000000000E+00  0.00000000000E+00  0.49006945655E+02  0.49006945655E+02  0.00000000000E+00 0.  1.
          2   -1    0    0  501    0  0.00000000000E+00 -0.00000000000E+00 -0.23347209775E+04  0.23347209775E+04  0.00000000000E+00 0. -1.
         25    2    1    2    0    0 -0.28871599615E+03 -0.85430905266E+02 -0.15439119906E+04  0.15779569856E+04  0.12501459001E+03 0.  0.
         23    2    1    2    0    0  0.28871599615E+03  0.85430905266E+02 -0.74180204130E+03  0.80577093760E+03  0.91330002681E+02 0.  0.
          5    1    4    4  502    0  0.14638144802E+03  0.87215502211E+02 -0.44609188247E+03  0.47755013324E+03  0.47000000000E+01 0. -1.
         -5    1    4    4    0  502  0.14233454813E+03 -0.17845969449E+01 -0.29571015883E+03  0.32822080436E+03  0.47000000000E+01 0.  1.
          5    1    3    3  503    0 -0.18587094674E+03 -0.24251939995E+02 -0.11810917008E+04  0.11958828794E+04  0.47000000000E+01 0.  1.
         -5    1    3    3    0  503 -0.10284504941E+03 -0.61178965271E+02 -0.36282028974E+03  0.38207410620E+03  0.47000000000E+01 0.  1.
<mgrwt>
<rscale>  0 0.32313052E+03</rscale>
<asrwt>0</asrwt>
<pdfrwt beam="1">  1        2 0.35918782E+00 0.32601229E+03</pdfrwt>
<pdfrwt beam="2">  1       -2 0.75395306E-02 0.32601229E+03</pdfrwt>
<totfact> 0.50714282E+02</totfact>
</mgrwt>
</event>
<event>
 8    1  0.3629925E-004  0.1287290E+03  0.7546771E-02  0.1243243E+00
         -2   -1    0    0    0  501 -0.00000000000E+00  0.00000000000E+00  0.85851338891E+02  0.85851338891E+02  0.00000000000E+00 0.  1.
          2   -1    0    0  501    0  0.00000000000E+00 -0.00000000000E+00 -0.15012572784E+03  0.15012572784E+03  0.00000000000E+00 0. -1.
         25    2    1    2    0    0 -0.21851768833E+02  0.21605773305E+02 -0.23632661084E+02  0.13088034673E+03  0.12500741277E+03 0.  0.
         23    2    1    2    0    0  0.21851768833E+02 -0.21605773305E+02 -0.40641727864E+02  0.10509672000E+03  0.91919863306E+02 0.  0.
          5    1    4    4  502    0 -0.23765041716E+02  0.32766945161E+00 -0.47966677656E+02  0.53738038114E+02  0.47000000000E+01 0.  1.
         -5    1    4    4    0  502  0.45616810549E+02 -0.21933442757E+02  0.73249497918E+01  0.51358681888E+02  0.47000000000E+01 0. -1.
          5    1    3    3  503    0 -0.60116215033E+02  0.51304937581E+02 -0.71275440896E+01  0.79492438727E+02  0.47000000000E+01 0. -1.
         -5    1    3    3    0  503  0.38264446200E+02 -0.29699164276E+02 -0.16505116994E+02  0.51387908000E+02  0.47000000000E+01 0. -1.
<mgrwt>
<rscale>  0 0.11991160E+03</rscale>
<asrwt>0</asrwt>
<pdfrwt beam="1">  1        2 0.23096266E-01 0.12872903E+03</pdfrwt>
<pdfrwt beam="2">  1       -2 0.13207898E-01 0.12872903E+03</pdfrwt>
<totfact> 0.93356769E+03</totfact>
</mgrwt>
</event>
<event>
 8    1  0.3629925E-004  0.1352154E+03  0.7546771E-02  0.1232367E+00
          2   -1    0    0  501    0  0.00000000000E+00  0.00000000000E+00  0.22179828915E+03  0.22179828915E+03  0.00000000000E+00 0.  1.
         -2   -1    0    0    0  501 -0.00000000000E+00 -0.00000000000E+00 -0.10506003527E+03  0.10506003527E+03  0.00000000000E+00 0. -1.
         25    2    1    2    0    0  0.51544953455E+02  0.82898243992E+00 -0.37770648552E+02  0.14039166763E+03  0.12500251601E+03 0.  0.
         23    2    1    2    0    0 -0.51544953455E+02 -0.82898243992E+00  0.15450890243E+03  0.18646665679E+03  0.90770279978E+02 0.  0.
          5    1    3    3  502    0  0.46975571492E+02 -0.58049410373E+02 -0.30117344189E+02  0.80657193000E+02  0.47000000000E+01 0. -1.
         -5    1    3    3    0  502  0.45693819635E+01  0.58878392812E+02 -0.76533043634E+01  0.59734474631E+02  0.47000000000E+01 0. -1.
          5    1    4    4  503    0 -0.68509296151E+02  0.24953806022E+02  0.10436111003E+03  0.12739524081E+03  0.47000000000E+01 0. -1.
         -5    1    4    4    0  503  0.16964342695E+02 -0.25782788462E+02  0.50147792393E+02  0.59071415980E+02  0.47000000000E+01 0.  1.
<mgrwt>
<rscale>  0 0.12674534E+03</rscale>
<asrwt>0</asrwt>
<pdfrwt beam="1">  1        2 0.34122814E-01 0.13521538E+03</pdfrwt>
<pdfrwt beam="2">  1       -2 0.16163082E-01 0.13521538E+03</pdfrwt>
<totfact> 0.44064244E+03</totfact>
</mgrwt>
</event>
<event>
 8    1  0.3629925E-004  0.1495361E+03  0.7546771E-02  0.1210222E+00
         -2   -1    0    0    0  501 -0.00000000000E+00  0.00000000000E+00  0.36836422275E+02  0.36836422275E+02  0.00000000000E+00 0. -1.
          2   -1    0    0  501    0  0.00000000000E+00 -0.00000000000E+00 -0.50682447470E+03  0.50682447470E+03  0.00000000000E+00 0.  1.
         25    2    1    2    0    0  0.78765859553E+02 -0.23080107320E+02 -0.23489149640E+03  0.27845118077E+03  0.12499717199E+03 0.  0.
         23    2    1    2    0    0 -0.78765859553E+02  0.23080107320E+02 -0.23509655602E+03  0.26520971621E+03  0.91263634219E+02 0.  0.
          5    1    3    3  502    0  0.27538376031E+02 -0.72782217981E+02 -0.12593380590E+03  0.14811153526E+03  0.47000000000E+01 0.  1.
         -5    1    3    3    0  502  0.51227483522E+02  0.49702110662E+02 -0.10895769051E+03  0.13033964552E+03  0.47000000000E+01 0.  1.
          5    1    4    4  503    0  0.10704268987E+02  0.24263525276E+02 -0.24764578705E+02  0.36587899527E+02  0.47000000000E+01 0. -1.
         -5    1    4    4    0  503 -0.89470128540E+02 -0.11834179560E+01 -0.21033197732E+03  0.22862181668E+03  0.47000000000E+01 0.  1.
<mgrwt>
<rscale>  0 0.14233397E+03</rscale>
<asrwt>0</asrwt>
<pdfrwt beam="1">  1        2 0.77972993E-01 0.14953610E+03</pdfrwt>
<pdfrwt beam="2">  1       -2 0.56671421E-02 0.14953610E+03</pdfrwt>
<totfact> 0.95051545E+03</totfact>
</mgrwt>
</event>
<event>
 8    1  0.3629925E-004  0.1270082E+03  0.7546771E-02  0.1244758E+00
         -1   -1    0    0    0  501 -0.00000000000E+00  0.00000000000E+00  0.21626578492E+02  0.21626578492E+02  0.00000000000E+00 0.  1.
          1   -1    0    0  501    0  0.00000000000E+00 -0.00000000000E+00 -0.65174892583E+03  0.65174892583E+03  0.00000000000E+00 0. -1.
         25    2    1    2    0    0  0.21698831681E+02  0.59103049390E+01 -0.24442947652E+03  0.27545754106E+03  0.12500126773E+03 0.  0.
         23    2    1    2    0    0 -0.21698831681E+02 -0.59103049390E+01 -0.38569287081E+03  0.39791796326E+03  0.95257251096E+02 0.  0.
          5    1    3    3  502    0 -0.20153431996E+01 -0.38126504311E+02 -0.21245331478E+03  0.21590783427E+03  0.47000000000E+01 0.  1.
         -5    1    4    4    0  503 -0.57661776935E+00  0.33811949728E+02 -0.59467639825E+02  0.68571645881E+02  0.47000000000E+01 0.  1.
          5    1    4    4  503    0 -0.21122213912E+02 -0.39722254667E+02 -0.32622523099E+03  0.32934631738E+03  0.47000000000E+01 0. -1.
         -5    1    3    3    0  502  0.23714174881E+02  0.44036809250E+02 -0.31976161747E+02  0.59549706794E+02  0.47000000000E+01 0.  1.
<mgrwt>
<rscale>  0 0.11899890E+03</rscale>
<asrwt>0</asrwt>
<pdfrwt beam="1">  1        1 0.10026907E+00 0.12700822E+03</pdfrwt>
<pdfrwt beam="2">  1       -1 0.33271658E-02 0.12700822E+03</pdfrwt>
<totfact> 0.96432873E+03</totfact>
</mgrwt>
</event>
<event>
 8    1  0.3629925E-004  0.4157355E+03  0.7546771E-02  0.1039136E+00
         -1   -1    0    0    0  501 -0.00000000000E+00  0.00000000000E+00  0.10450013108E+04  0.10450013108E+04  0.00000000000E+00 0.  1.
          1   -1    0    0  501    0  0.00000000000E+00 -0.00000000000E+00 -0.17388591585E+03  0.17388591585E+03  0.00000000000E+00 0. -1.
         25    2    1    2    0    0  0.13276773184E+01 -0.39649811975E+03  0.28153137153E+03  0.50209156758E+03  0.12499402943E+03 0.  0.
         23    2    1    2    0    0 -0.13276773184E+01  0.39649811975E+03  0.58958402338E+03  0.71679565903E+03  0.94732119655E+02 0.  0.
          5    1    3    3  502    0 -0.18454145304E+02 -0.25227831074E+03  0.10678892545E+03  0.27461038973E+03  0.47000000000E+01 0.  1.
         -5    1    3    3    0  502  0.19781822622E+02 -0.14421980901E+03  0.17474244608E+03  0.22748117785E+03  0.47000000000E+01 0.  1.
          5    1    4    4  503    0 -0.59549916260E+01  0.37080338849E+03  0.49479530389E+03  0.61836485798E+03  0.47000000000E+01 0.  1.
         -5    1    4    4    0  503  0.46273143076E+01  0.25694731255E+02  0.94788719491E+02  0.98430801047E+02  0.47000000000E+01 0.  1.
<mgrwt>
<rscale>  0 0.41370178E+03</rscale>
<asrwt>0</asrwt>
<pdfrwt beam="1">  1        1 0.26751680E-01 0.41573553E+03</pdfrwt>
<pdfrwt beam="2">  1       -1 0.16076943E+00 0.41573553E+03</pdfrwt>
<totfact> 0.54236898E+01</totfact>
</mgrwt>
</event>
