<event>
 8    1  0.9456677E-004  0.1327825E+03  0.7546771E-02  0.1223939E+00
          2   -1    0    0  501    0  0.00000000000E+00  0.00000000000E+00  0.65149168991E+02  0.65149168991E+02  0.00000000000E+00 0. -1.
         -2   -1    0    0    0  501 -0.00000000000E+00 -0.00000000000E+00 -0.28736914442E+03  0.28736914442E+03  0.00000000000E+00 0.  1.
         23    2    1    2    0    0 -0.18256507818E+02  0.93631074147E+02 -0.65389516476E+02  0.14801003216E+03  0.92363968259E+02 0.  0.
         23    2    1    2    0    0  0.18256507818E+02 -0.93631074147E+02 -0.15683045895E+03  0.20450828125E+03  0.90154124251E+02 0.  0.
          5    1    3    3  502    0 -0.35777885327E+02  0.91574111369E+01  0.36597498490E+01  0.37408542155E+02  0.47000000000E+01 0. -1.
         -5    1    4    4    0  503  0.26426263822E+02 -0.31662321594E+02 -0.12974890855E+03  0.13622672020E+03  0.47000000000E+01 0.  1.
          5    1    4    4  503    0 -0.81697560044E+01 -0.61968752553E+02 -0.27081550406E+02  0.68281561043E+02  0.47000000000E+01 0. -1.
         -5    1    3    3    0  502  0.17521377509E+02  0.84473663010E+02 -0.69049266325E+02  0.11060149001E+03  0.47000000000E+01 0.  1.
<mgrwt>
<rscale>  0 0.13239890E+03</rscale>
<asrwt>0</asrwt>
<pdfrwt beam="1">  1        2 0.10022949E-01 0.13278246E+03</pdfrwt>
<pdfrwt beam="2">  1       -2 0.44210637E-01 0.13278246E+03</pdfrwt>
<totfact> 0.30036066E+03</totfact>
</mgrwt>
</event>
<event>
 8    1  0.9456677E-004  0.9716430E+02  0.7546771E-02  0.1289973E+00
         -2   -1    0    0    0  501 -0.00000000000E+00  0.00000000000E+00  0.23568022025E+02  0.23568022025E+02  0.00000000000E+00 0.  1.
          2   -1    0    0  501    0  0.00000000000E+00 -0.00000000000E+00 -0.52841270689E+03  0.52841270689E+03  0.00000000000E+00 0. -1.
         23    2    1    2    0    0  0.16033233927E+02 -0.26824676759E+02 -0.97638678307E+02  0.13334289926E+03  0.85266578495E+02 0.  0.
         23    2    1    2    0    0 -0.16033233927E+02  0.26824676759E+02 -0.40720600656E+03  0.41863782965E+03  0.92001482421E+02 0.  0.
          5    1    4    4  502    0 -0.34275971412E+02  0.48418008498E+02 -0.34569382252E+03  0.35077835551E+03  0.47000000000E+01 0. -1.
         -5    1    3    3    0  503  0.40084514800E+02 -0.20061112633E+02 -0.15981135725E+02  0.47819486257E+02  0.47000000000E+01 0.  1.
          5    1    3    3  503    0 -0.24051280872E+02 -0.67635641266E+01 -0.81657542581E+02  0.85523413003E+02  0.47000000000E+01 0.  1.
         -5    1    4    4    0  502  0.18242737485E+02 -0.21593331739E+02 -0.61512184034E+02  0.67859474144E+02  0.47000000000E+01 0.  1.
<mgrwt>
<rscale>  0 0.95536021E+02</rscale>
<asrwt>0</asrwt>
<pdfrwt beam="1">  1        2 0.81294254E-01 0.97164297E+02</pdfrwt>
<pdfrwt beam="2">  1       -2 0.36258499E-02 0.97164297E+02</pdfrwt>
<totfact> 0.17079144E+04</totfact>
</mgrwt>
</event>
<event>
 8    1  0.9456677E-004  0.1852533E+03  0.7546771E-02  0.1162985E+00
          1   -1    0    0  501    0  0.00000000000E+00  0.00000000000E+00  0.78913999118E+02  0.78913999118E+02  0.00000000000E+00 0. -1.
         -1   -1    0    0    0  501 -0.00000000000E+00 -0.00000000000E+00 -0.43686875827E+03  0.43686875827E+03  0.00000000000E+00 0.  1.
         23    2    1    2    0    0 -0.14466225045E+03 -0.70847581042E+02 -0.15487233774E+03  0.24089870154E+03  0.90001094233E+02 0.  0.
         23    2    1    2    0    0  0.14466225045E+03  0.70847581042E+02 -0.20308242142E+03  0.27488405585E+03  0.91499878825E+02 0.  0.
          5    1    3    3  502    0 -0.12104020056E+03 -0.82858974155E+02 -0.93842192021E+02  0.17419755094E+03  0.47000000000E+01 0. -1.
         -5    1    4    4    0  503  0.56810325132E+02  0.74349250748E+02 -0.13122235590E+03  0.16123467622E+03  0.47000000000E+01 0.  1.
          5    1    4    4  503    0  0.87851925320E+02 -0.35016697062E+01 -0.71860065519E+02  0.11364937963E+03  0.47000000000E+01 0. -1.
         -5    1    3    3    0  502 -0.23622049890E+02  0.12011393113E+02 -0.61030145717E+02  0.66701150603E+02  0.47000000000E+01 0.  1.
<mgrwt>
<rscale>  0 0.18506908E+03</rscale>
<asrwt>0</asrwt>
<pdfrwt beam="1">  1        1 0.12140615E-01 0.18525327E+03</pdfrwt>
<pdfrwt beam="2">  1       -1 0.67210577E-01 0.18525327E+03</pdfrwt>
<totfact> 0.11392439E+03</totfact>
</mgrwt>
</event>
<event>
 8    1  0.9456677E-004  0.1367144E+03  0.7546771E-02  0.1217869E+00
          2   -1    0    0  501    0  0.00000000000E+00  0.00000000000E+00  0.90643436641E+03  0.90643436641E+03  0.00000000000E+00 0. -1.
         -2   -1    0    0    0  501 -0.00000000000E+00 -0.00000000000E+00 -0.46771154241E+02  0.46771154241E+02  0.00000000000E+00 0.  1.
         23    2    1    2    0    0 -0.10437613315E+03 -0.34897181991E+01  0.78625813379E+03  0.79803097544E+03  0.88005849272E+02 0.  0.
         23    2    1    2    0    0  0.10437613315E+03  0.34897181991E+01  0.73405078377E+02  0.15517454521E+03  0.88228559126E+02 0.  0.
          5    1    4    4  502    0  0.21115035720E+02  0.30278673203E+02  0.53801835482E+02  0.65416896026E+02  0.47000000000E+01 0. -1.
         -5    1    3    3    0  503 -0.41185341574E+02  0.38002976971E+02  0.44042348266E+03  0.44399931610E+03  0.47000000000E+01 0.  1.
          5    1    3    3  503    0 -0.63190791574E+02 -0.41492695170E+02  0.34583465113E+03  0.35403165934E+03  0.47000000000E+01 0. -1.
         -5    1    4    4    0  502  0.83261097427E+02 -0.26788955004E+02  0.19603242895E+02  0.89757649184E+02  0.47000000000E+01 0.  1.
<mgrwt>
<rscale>  0 0.13667851E+03</rscale>
<asrwt>0</asrwt>
<pdfrwt beam="1">  1        2 0.13945143E+00 0.13671442E+03</pdfrwt>
<pdfrwt beam="2">  1       -2 0.71955629E-02 0.13671442E+03</pdfrwt>
<totfact> 0.32972235E+03</totfact>
</mgrwt>
</event>
<event>
 8    1  0.9456677E-004  0.1046724E+03  0.7546771E-02  0.1274392E+00
          1   -1    0    0  501    0  0.00000000000E+00  0.00000000000E+00  0.49799390097E+03  0.49799390097E+03  0.00000000000E+00 0. -1.
         -1   -1    0    0    0  501 -0.00000000000E+00 -0.00000000000E+00 -0.26688547943E+03  0.26688547943E+03  0.00000000000E+00 0.  1.
         23    2    1    2    0    0  0.43142574446E+02 -0.28595990978E+02 -0.25216566879E+03  0.27039970538E+03  0.82761486960E+02 0.  0.
         23    2    1    2    0    0 -0.43142574446E+02  0.28595990978E+02  0.48327409033E+03  0.49447967502E+03  0.90979614169E+02 0.  0.
          5    1    4    4  502    0 -0.42978979404E+02  0.55646358816E+02  0.25491035585E+03  0.26447133954E+03  0.47000000000E+01 0. -1.
         -5    1    3    3    0  503  0.40957144785E+02  0.17287188361E+02 -0.17365779018E+03  0.17931941524E+03  0.47000000000E+01 0.  1.
          5    1    3    3  503    0  0.21854296614E+01 -0.45883179339E+02 -0.78507878610E+02  0.91080290145E+02  0.47000000000E+01 0. -1.
         -5    1    4    4    0  502 -0.16359504244E+00 -0.27050367838E+02  0.22836373448E+03  0.23000833548E+03  0.47000000000E+01 0.  1.
<mgrwt>
<rscale>  0 0.10286128E+03</rscale>
<asrwt>0</asrwt>
<pdfrwt beam="1">  1        1 0.76614446E-01 0.10467236E+03</pdfrwt>
<pdfrwt beam="2">  1       -1 0.41059305E-01 0.10467236E+03</pdfrwt>
<totfact> 0.27590707E+02</totfact>
</mgrwt>
</event>
<event>
 8    1  0.9456677E-004  0.9948459E+02  0.7546771E-02  0.1281833E+00
          1   -1    0    0  501    0  0.00000000000E+00  0.00000000000E+00  0.60069601106E+03  0.60069601106E+03  0.00000000000E+00 0. -1.
         -1   -1    0    0    0  501 -0.00000000000E+00 -0.00000000000E+00 -0.22210026376E+02  0.22210026376E+02  0.00000000000E+00 0.  1.
         23    2    1    2    0    0 -0.28268283368E+02  0.21531672287E+02  0.12998718124E+03  0.16368827165E+03  0.92921871669E+02 0.  0.
         23    2    1    2    0    0  0.28268283368E+02 -0.21531672287E+02  0.44849880345E+03  0.45921776578E+03  0.92016688495E+02 0.  0.
          5    1    3    3  502    0  0.13830245653E+02  0.17921418293E+02  0.11696032975E+03  0.11922357848E+03  0.47000000000E+01 0. -1.
         -5    1    3    3    0  502 -0.42098529021E+02  0.36102539940E+01  0.13026851482E+02  0.44464693175E+02  0.47000000000E+01 0.  1.
          5    1    4    4  503    0  0.51868651952E+02  0.90405821210E+01  0.33712142967E+03  0.34124043946E+03  0.47000000000E+01 0. -1.
         -5    1    4    4    0  503 -0.23600368584E+02 -0.30572254408E+02  0.11137737378E+03  0.11797732632E+03  0.47000000000E+01 0.  1.
<mgrwt>
<rscale>  0 0.99272675E+02</rscale>
<asrwt>0</asrwt>
<pdfrwt beam="1">  1        1 0.92414759E-01 0.99484587E+02</pdfrwt>
<pdfrwt beam="2">  1       -1 0.34169276E-02 0.99484587E+02</pdfrwt>
<totfact> 0.10192524E+04</totfact>
</mgrwt>
</event>
<event>
 8    1  0.9456677E-004  0.1011264E+03  0.7546771E-02  0.1278279E+00
          1   -1    0    0  501    0  0.00000000000E+00  0.00000000000E+00  0.30850323021E+02  0.30850323021E+02  0.00000000000E+00 0. -1.
         -1   -1    0    0    0  501 -0.00000000000E+00 -0.00000000000E+00 -0.33495749480E+03  0.33495749480E+03  0.00000000000E+00 0.  1.
         23    2    1    2    0    0  0.33850417974E+02  0.26461266312E+02 -0.12799158028E+03  0.16272345208E+03  0.90835168433E+02 0.  0.
         23    2    1    2    0    0 -0.33850417974E+02 -0.26461266312E+02 -0.17611559150E+03  0.20308436574E+03  0.91545117977E+02 0.  0.
          5    1    3    3  502    0  0.48715051656E+02 -0.15122636254E+02 -0.93039516269E+02  0.10620871891E+03  0.47000000000E+01 0.  1.
         -5    1    4    4    0  503  0.29165588311E+02  0.47930530522E+01 -0.42046946322E+02  0.51610469811E+02  0.47000000000E+01 0.  1.
          5    1    4    4  503    0 -0.63016006285E+02 -0.31254319364E+02 -0.13406864518E+03  0.15147389593E+03  0.47000000000E+01 0. -1.
         -5    1    3    3    0  502 -0.14864633681E+02  0.41583902566E+02 -0.34952064007E+02  0.56514733172E+02  0.47000000000E+01 0. -1.
<mgrwt>
<rscale>  0 0.10096550E+03</rscale>
<asrwt>0</asrwt>
<pdfrwt beam="1">  1        1 0.47462038E-02 0.10112645E+03</pdfrwt>
<pdfrwt beam="2">  1       -1 0.51531920E-01 0.10112645E+03</pdfrwt>
<totfact> 0.64417693E+03</totfact>
</mgrwt>
</event>
<event>
 8    1  0.9456677E-004  0.1675804E+03  0.7546771E-02  0.1180512E+00
         -1   -1    0    0    0  501 -0.00000000000E+00  0.00000000000E+00  0.21224849484E+02  0.21224849484E+02  0.00000000000E+00 0.  1.
          1   -1    0    0  501    0  0.00000000000E+00 -0.00000000000E+00 -0.18863797748E+04  0.18863797748E+04  0.00000000000E+00 0. -1.
         23    2    1    2    0    0  0.60867618781E+02  0.12694995710E+03 -0.41064103711E+03  0.44351918214E+03  0.90895791664E+02 0.  0.
         23    2    1    2    0    0 -0.60867618781E+02 -0.12694995710E+03 -0.14545138882E+04  0.14640854421E+04  0.90079810711E+02 0.  0.
          5    1    3    3  502    0  0.19963752638E+02  0.15885288774E+02 -0.20150870955E+03  0.20317171024E+03  0.47000000000E+01 0. -1.
         -5    1    3    3    0  502  0.40903866144E+02  0.11106466833E+03 -0.20913232757E+03  0.24034747190E+03  0.47000000000E+01 0.  1.
          5    1    4    4  503    0 -0.23569787793E+02  0.51635949867E+01 -0.11810268053E+03  0.12063387069E+03  0.47000000000E+01 0. -1.
         -5    1    4    4    0  503 -0.37297830988E+02 -0.13211355209E+03 -0.13364112077E+04  0.13434515714E+04  0.47000000000E+01 0.  1.
<mgrwt>
<rscale>  0 0.16747003E+03</rscale>
<asrwt>0</asrwt>
<pdfrwt beam="1">  1        1 0.29021222E+00 0.16758044E+03</pdfrwt>
<pdfrwt beam="2">  1       -1 0.32653621E-02 0.16758044E+03</pdfrwt>
<totfact> 0.13390785E+03</totfact>
</mgrwt>
</event>
<event>
 8    1  0.9456677E-004  0.9241652E+02  0.7546771E-02  0.1297351E+00
          2   -1    0    0  501    0  0.00000000000E+00  0.00000000000E+00  0.91632883402E+03  0.91632883402E+03  0.00000000000E+00 0. -1.
         -2   -1    0    0    0  501 -0.00000000000E+00 -0.00000000000E+00 -0.17818195097E+02  0.17818195097E+02  0.00000000000E+00 0.  1.
         23    2    1    2    0    0 -0.19182715231E+02 -0.10823724607E+01  0.12536016127E+03  0.15549275789E+03  0.89964879977E+02 0.  0.
         23    2    1    2    0    0  0.19182715231E+02  0.10823724607E+01  0.77315047765E+03  0.77865427122E+03  0.90397261625E+02 0.  0.
          5    1    4    4  502    0  0.39313460268E+02 -0.33308322206E+02  0.47696495766E+03  0.47976312209E+03  0.47000000000E+01 0. -1.
         -5    1    4    4    0  502 -0.20130745037E+02  0.34390694666E+02  0.29618551999E+03  0.29889114913E+03  0.47000000000E+01 0.  1.
          5    1    3    3  503    0 -0.90668526714E+01 -0.39617750798E+02  0.26350341216E+02  0.48664201194E+02  0.47000000000E+01 0. -1.
         -5    1    3    3    0  503 -0.10115862560E+02  0.38535378337E+02  0.99009820055E+02  0.10682855670E+03  0.47000000000E+01 0.  1.
<mgrwt>
<rscale>  0 0.92310615E+02</rscale>
<asrwt>0</asrwt>
<pdfrwt beam="1">  1        2 0.14097363E+00 0.92416519E+02</pdfrwt>
<pdfrwt beam="2">  1       -2 0.27412615E-02 0.92416519E+02</pdfrwt>
<totfact> 0.13387850E+04</totfact>
</mgrwt>
</event>
<event>
 8    1  0.9456677E-004  0.9475521E+02  0.7546771E-02  0.1292880E+00
          1   -1    0    0  501    0  0.00000000000E+00  0.00000000000E+00  0.53684083964E+03  0.53684083964E+03  0.00000000000E+00 0. -1.
         -1   -1    0    0    0  501 -0.00000000000E+00 -0.00000000000E+00 -0.30148184587E+02  0.30148184587E+02  0.00000000000E+00 0.  1.
         23    2    1    2    0    0 -0.15119281099E+02 -0.16623651679E+01  0.44646008862E+03  0.45640460236E+03  0.93526435849E+02 0.  0.
         23    2    1    2    0    0  0.15119281099E+02  0.16623651679E+01  0.60232566428E+02  0.11058442187E+03  0.91485497112E+02 0.  0.
          5    1    4    4  502    0 -0.28029915545E+02 -0.24076231329E+02  0.43838667593E+02  0.57526166714E+02  0.47000000000E+01 0. -1.
         -5    1    3    3    0  503  0.12447376069E+02 -0.42835646439E+02  0.22353946677E+03  0.22799520386E+03  0.47000000000E+01 0. -1.
          5    1    3    3  503    0 -0.27566657168E+02  0.41173281271E+02  0.22292062185E+03  0.22840939850E+03  0.47000000000E+01 0.  1.
         -5    1    4    4    0  502  0.43149196644E+02  0.25738596497E+02  0.16393898836E+02  0.53058255151E+02  0.47000000000E+01 0.  1.
<mgrwt>
<rscale>  0 0.94247676E+02</rscale>
<asrwt>0</asrwt>
<pdfrwt beam="1">  1        1 0.82590892E-01 0.94755213E+02</pdfrwt>
<pdfrwt beam="2">  1       -1 0.46381826E-02 0.94755213E+02</pdfrwt>
<totfact> 0.75562135E+03</totfact>
</mgrwt>
</event>
<event>
 8    1  0.9456677E-004  0.9941264E+02  0.7546771E-02  0.1281686E+00
          1   -1    0    0  501    0  0.00000000000E+00  0.00000000000E+00  0.89202538695E+02  0.89202538695E+02  0.00000000000E+00 0. -1.
         -1   -1    0    0    0  501 -0.00000000000E+00 -0.00000000000E+00 -0.20301499029E+03  0.20301499029E+03  0.00000000000E+00 0.  1.
         23    2    1    2    0    0  0.15261002085E+01  0.40691944205E+02 -0.15559475762E+03  0.18464181728E+03  0.90690180188E+02 0.  0.
         23    2    1    2    0    0 -0.15261002085E+01 -0.40691944205E+02  0.41782306029E+02  0.10757571171E+03  0.90380359299E+02 0.  0.
          5    1    3    3  502    0  0.79496163741E+01 -0.28248098568E+02 -0.53357552601E+02  0.61075935464E+02  0.47000000000E+01 0. -1.
         -5    1    3    3    0  502 -0.64235161656E+01  0.68940042774E+02 -0.10223720502E+03  0.12356588181E+03  0.47000000000E+01 0.  1.
          5    1    4    4  503    0 -0.29714513578E+02  0.52081367872E+01  0.43890428442E+02  0.53465285137E+02  0.47000000000E+01 0. -1.
         -5    1    4    4    0  503  0.28188413370E+02 -0.45900080992E+02 -0.21081224131E+01  0.54110426569E+02  0.47000000000E+01 0.  1.
<mgrwt>
<rscale>  0 0.99341921E+02</rscale>
<asrwt>0</asrwt>
<pdfrwt beam="1">  1        1 0.13723468E-01 0.99412635E+02</pdfrwt>
<pdfrwt beam="2">  1       -1 0.31233075E-01 0.99412635E+02</pdfrwt>
<totfact> 0.37642612E+03</totfact>
</mgrwt>
</event>
<event>
 8    1  0.9456677E-004  0.1098823E+03  0.7546771E-02  0.1262398E+00
         -2   -1    0    0    0  501 -0.00000000000E+00  0.00000000000E+00  0.20000167322E+03  0.20000167322E+03  0.00000000000E+00 0.  1.
          2   -1    0    0  501    0  0.00000000000E+00 -0.00000000000E+00 -0.67294971317E+02  0.67294971317E+02  0.00000000000E+00 0. -1.
         23    2    1    2    0    0  0.53203803920E+02  0.31847709080E+01  0.11554809784E+03  0.15945367688E+03  0.96090190127E+02 0.  0.
         23    2    1    2    0    0 -0.53203803920E+02 -0.31847709080E+01  0.17158604066E+02  0.10784296766E+03  0.92167784300E+02 0.  0.
          5    1    4    4  502    0 -0.20744716062E+02 -0.38725299987E+02 -0.18354350428E+02  0.47843121587E+02  0.47000000000E+01 0. -1.
         -5    1    3    3    0  503  0.48452687132E+02  0.33028274581E+02  0.25069228294E+02  0.63945961712E+02  0.47000000000E+01 0.  1.
          5    1    3    3  503    0  0.47511167890E+01 -0.29843503673E+02  0.90478869545E+02  0.95507715166E+02  0.47000000000E+01 0. -1.
         -5    1    4    4    0  502 -0.32459087858E+02  0.35540529079E+02  0.35512954494E+02  0.59999846072E+02  0.47000000000E+01 0.  1.
<mgrwt>
<rscale>  0 0.10901887E+03</rscale>
<asrwt>0</asrwt>
<pdfrwt beam="1">  1        2 0.10353073E-01 0.10988226E+03</pdfrwt>
<pdfrwt beam="2">  1       -2 0.30769488E-01 0.10988226E+03</pdfrwt>
<totfact> 0.55932382E+03</totfact>
</mgrwt>
</event>
<event>
 8    1  0.9456677E-004  0.1171796E+03  0.7546771E-02  0.1248339E+00
         -2   -1    0    0    0  501 -0.00000000000E+00  0.00000000000E+00  0.27955197844E+03  0.27955197844E+03  0.00000000000E+00 0.  1.
          2   -1    0    0  501    0  0.00000000000E+00 -0.00000000000E+00 -0.52730149619E+02  0.52730149619E+02  0.00000000000E+00 0. -1.
         23    2    1    2    0    0  0.69014620793E+02  0.19935049578E+02  0.67536877918E+02  0.13524895865E+03  0.92577680099E+02 0.  0.
         23    2    1    2    0    0 -0.69014620793E+02 -0.19935049578E+02  0.15928495090E+03  0.19703316941E+03  0.91049163524E+02 0.  0.
          5    1    3    3  502    0  0.78269105989E+02 -0.14842362886E+02  0.54710852172E+02  0.96755961231E+02  0.47000000000E+01 0. -1.
         -5    1    4    4    0  503 -0.53325195928E+02  0.30722290646E+02  0.98387944076E+02  0.11614522462E+03  0.47000000000E+01 0.  1.
          5    1    4    4  503    0 -0.15689424865E+02 -0.50657340224E+02  0.60897006826E+02  0.80887944785E+02  0.47000000000E+01 0. -1.
         -5    1    3    3    0  502 -0.92544851968E+01  0.34777412464E+02  0.12826025747E+02  0.38492997420E+02  0.47000000000E+01 0.  1.
<mgrwt>
<rscale>  0 0.11687745E+03</rscale>
<asrwt>0</asrwt>
<pdfrwt beam="1">  1        2 0.81123308E-02 0.11717957E+03</pdfrwt>
<pdfrwt beam="2">  1       -2 0.43007996E-01 0.11717957E+03</pdfrwt>
<totfact> 0.40798437E+03</totfact>
</mgrwt>
</event>
<event>
 8    1  0.9456677E-004  0.9226408E+02  0.7546771E-02  0.1300890E+00
          1   -1    0    0  501    0  0.00000000000E+00  0.00000000000E+00  0.55526698662E+03  0.55526698662E+03  0.00000000000E+00 0. -1.
         -1   -1    0    0    0  501 -0.00000000000E+00 -0.00000000000E+00 -0.24562290988E+02  0.24562290988E+02  0.00000000000E+00 0.  1.
         23    2    1    2    0    0  0.18799829542E+02 -0.37939834056E+00  0.44681074726E+03  0.45512620674E+03  0.84536634990E+02 0.  0.
         23    2    1    2    0    0 -0.18799829542E+02  0.37939834056E+00  0.83893948370E+02  0.12470307087E+03  0.90327646808E+02 0.  0.
          5    1    4    4  502    0  0.31708449411E+02 -0.90783165086E+01  0.10395758276E+02  0.34899905226E+02  0.47000000000E+01 0. -1.
         -5    1    3    3    0  503 -0.28498472946E+02  0.84425789478E+01  0.86457110645E+02  0.91544317578E+02  0.47000000000E+01 0.  1.
          5    1    3    3  503    0  0.47298302488E+02 -0.88219772884E+01  0.36035363662E+03  0.36358188916E+03  0.47000000000E+01 0. -1.
         -5    1    4    4    0  502 -0.50508278952E+02  0.94577148492E+01  0.73498190094E+02  0.89803165645E+02  0.47000000000E+01 0.  1.
<mgrwt>
<rscale>  0 0.90814942E+02</rscale>
<asrwt>0</asrwt>
<pdfrwt beam="1">  1        1 0.85425680E-01 0.92264085E+02</pdfrwt>
<pdfrwt beam="2">  1       -1 0.37788144E-02 0.92264085E+02</pdfrwt>
<totfact> 0.97227791E+03</totfact>
</mgrwt>
</event>
<event>
 8    1  0.9456677E-004  0.1038873E+03  0.7546771E-02  0.1275460E+00
          3   -1    0    0  501    0  0.00000000000E+00  0.00000000000E+00  0.19973426833E+02  0.19973426833E+02  0.00000000000E+00 0. -1.
         -3   -1    0    0    0  501 -0.00000000000E+00 -0.00000000000E+00 -0.62066853046E+03  0.62066853046E+03  0.00000000000E+00 0.  1.
         23    2    1    2    0    0 -0.27963245785E+02  0.73569890247E+01 -0.44343489714E+03  0.45544163106E+03  0.99782277492E+02 0.  0.
         23    2    1    2    0    0  0.27963245785E+02 -0.73569890247E+01 -0.15726020649E+03  0.18520032624E+03  0.93446882715E+02 0.  0.
          5    1    4    4  502    0  0.22088975651E+02 -0.26909816964E+02 -0.10096082204E+02  0.36552455050E+02  0.47000000000E+01 0. -1.
         -5    1    3    3    0  503 -0.87821920251E+01  0.52398010352E+02 -0.19363039501E+03  0.20084197335E+03  0.47000000000E+01 0.  1.
          5    1    3    3  503    0 -0.19181053760E+02 -0.45041021327E+02 -0.24980450213E+03  0.25459965771E+03  0.47000000000E+01 0. -1.
         -5    1    4    4    0  502  0.58742701333E+01  0.19552827939E+02 -0.14716412429E+03  0.14864787119E+03  0.47000000000E+01 0.  1.
<mgrwt>
<rscale>  0 0.10233559E+03</rscale>
<asrwt>0</asrwt>
<pdfrwt beam="1">  1        3 0.30728355E-02 0.10388730E+03</pdfrwt>
<pdfrwt beam="2">  1       -3 0.95487447E-01 0.10388730E+03</pdfrwt>
<totfact> 0.10875522E+03</totfact>
</mgrwt>
</event>
<event>
 8    1  0.9456677E-004  0.1312338E+03  0.7546771E-02  0.1226023E+00
         -1   -1    0    0    0  501 -0.00000000000E+00  0.00000000000E+00  0.20614168144E+02  0.20614168144E+02  0.00000000000E+00 0.  1.
          1   -1    0    0  501    0  0.00000000000E+00 -0.00000000000E+00 -0.83751787151E+03  0.83751787151E+03  0.00000000000E+00 0. -1.
         23    2    1    2    0    0  0.60277969875E+02 -0.71531950183E+02 -0.36302607573E+03  0.38566275807E+03  0.90540475752E+02 0.  0.
         23    2    1    2    0    0 -0.60277969875E+02  0.71531950183E+02 -0.45387762764E+03  0.47246928159E+03  0.92043835361E+02 0.  0.
          5    1    4    4  502    0 -0.42325120843E+02  0.45809971258E+02 -0.42499076162E+03  0.42956862872E+03  0.47000000000E+01 0. -1.
         -5    1    3    3    0  503  0.13032355759E+02 -0.78586618090E+02 -0.26066799448E+03  0.27260886300E+03  0.47000000000E+01 0.  1.
          5    1    3    3  503    0  0.47245614116E+02  0.70546679072E+01 -0.10235808125E+03  0.11305389507E+03  0.47000000000E+01 0. -1.
         -5    1    4    4    0  502 -0.17952849033E+02  0.25721978924E+02 -0.28886866018E+02  0.42900652868E+02  0.47000000000E+01 0.  1.
<mgrwt>
<rscale>  0 0.13097055E+03</rscale>
<asrwt>0</asrwt>
<pdfrwt beam="1">  1        1 0.12884888E+00 0.13123384E+03</pdfrwt>
<pdfrwt beam="2">  1       -1 0.31714111E-02 0.13123384E+03</pdfrwt>
<totfact> 0.71882599E+03</totfact>
</mgrwt>
</event>
<event>
 8    1  0.1330033E-003  0.1406147E+03  0.7546771E-02  0.1212661E+00
         -3   -1    0    0    0  501 -0.00000000000E+00  0.00000000000E+00  0.27194531398E+03  0.27194531398E+03  0.00000000000E+00 0.  1.
          3   -1    0    0  501    0  0.00000000000E+00 -0.00000000000E+00 -0.25282945197E+03  0.25282945197E+03  0.00000000000E+00 0. -1.
         23    2    1    2    0    0 -0.99851830888E+02  0.37608759863E+02 -0.21205461150E+03  0.25443986354E+03  0.91584272390E+02 0.  0.
         23    2    1    2    0    0  0.99851830888E+02 -0.37608759863E+02  0.23117047352E+03  0.27033490241E+03  0.90864540320E+02 0.  0.
          5    1    3    3  502    0 -0.11008600558E+03  0.19773124121E+02 -0.20228174792E+03  0.23119234547E+03  0.47000000000E+01 0. -1.
         -5    1    4    4    0  503  0.90489240002E+02 -0.60515670164E+02  0.15035994786E+03  0.18568966803E+03  0.47000000000E+01 0.  1.
          5    1    4    4  503    0  0.93625908862E+01  0.22906910301E+02  0.80810525658E+02  0.84645234389E+02  0.47000000000E+01 0. -1.
         -5    1    3    3    0  502  0.10234174689E+02  0.17835635741E+02 -0.97728635765E+01  0.23247518068E+02  0.47000000000E+01 0.  1.
<mgrwt>
<rscale>  0 0.14049760E+03</rscale>
<asrwt>0</asrwt>
<pdfrwt beam="1">  1        3 0.38896838E-01 0.14061467E+03</pdfrwt>
<pdfrwt beam="2">  1       -3 0.41837741E-01 0.14061467E+03</pdfrwt>
<totfact> 0.88149666E+01</totfact>
</mgrwt>
</event>
<event>
 8    1  0.9456677E-004  0.1004629E+03  0.7546771E-02  0.1283609E+00
          1   -1    0    0  501    0  0.00000000000E+00  0.00000000000E+00  0.36326642151E+03  0.36326642151E+03  0.00000000000E+00 0. -1.
         -1   -1    0    0    0  501 -0.00000000000E+00 -0.00000000000E+00 -0.25883719501E+02  0.25883719501E+02  0.00000000000E+00 0.  1.
         23    2    1    2    0    0  0.61246799842E+01  0.16171399239E+02  0.15723358731E+03  0.18658829527E+03  0.98963453316E+02 0.  0.
         23    2    1    2    0    0 -0.61246799842E+01 -0.16171399239E+02  0.18014911469E+03  0.20256184574E+03  0.90986658187E+02 0.  0.
          5    1    3    3  502    0  0.19595376780E+02 -0.36075939648E+02  0.97840262102E+02  0.10620856416E+03  0.47000000000E+01 0. -1.
         -5    1    3    3    0  502 -0.13470696796E+02  0.52247338887E+02  0.59393325213E+02  0.80379731107E+02  0.47000000000E+01 0.  1.
          5    1    4    4  503    0  0.30033626101E+02 -0.12224177818E+02  0.20265550485E+02  0.38525728502E+02  0.47000000000E+01 0. -1.
         -5    1    4    4    0  503 -0.36158306086E+02 -0.39472214212E+01  0.15988356420E+03  0.16403611724E+03  0.47000000000E+01 0.  1.
<mgrwt>
<rscale>  0 0.98440756E+02</rscale>
<asrwt>0</asrwt>
<pdfrwt beam="1">  1        1 0.55887138E-01 0.10046288E+03</pdfrwt>
<pdfrwt beam="2">  1       -1 0.39821109E-02 0.10046288E+03</pdfrwt>
<totfact> 0.15543395E+04</totfact>
</mgrwt>
</event>
<event>
 8    1  0.9456677E-004  0.1265744E+03  0.7546771E-02  0.1232919E+00
         -2   -1    0    0    0  501 -0.00000000000E+00  0.00000000000E+00  0.16744281048E+02  0.16744281048E+02  0.00000000000E+00 0.  1.
          2   -1    0    0  501    0  0.00000000000E+00 -0.00000000000E+00 -0.10505335834E+04  0.10505335834E+04  0.00000000000E+00 0. -1.
         23    2    1    2    0    0 -0.59809981056E+02  0.62527111310E+02 -0.68244324708E+03  0.69408203889E+03  0.92380829906E+02 0.  0.
         23    2    1    2    0    0  0.59809981056E+02 -0.62527111310E+02 -0.35134605528E+03  0.37319582557E+03  0.91346593703E+02 0.  0.
          5    1    3    3  502    0 -0.55615370127E+02 -0.49269415847E+01 -0.38256442685E+03  0.38664580023E+03  0.47000000000E+01 0. -1.
         -5    1    3    3    0  502 -0.41946109284E+01  0.67454052894E+02 -0.29987882023E+03  0.30743623865E+03  0.47000000000E+01 0.  1.
          5    1    4    4  503    0  0.71651294766E+02 -0.14353100132E+02 -0.16938982649E+03  0.18453975952E+03  0.47000000000E+01 0. -1.
         -5    1    4    4    0  503 -0.11841313710E+02 -0.48174011178E+02 -0.18195622878E+03  0.18865606605E+03  0.47000000000E+01 0.  1.
<mgrwt>
<rscale>  0 0.12638581E+03</rscale>
<asrwt>0</asrwt>
<pdfrwt beam="1">  1        2 0.16162064E+00 0.12657445E+03</pdfrwt>
<pdfrwt beam="2">  1       -2 0.25760418E-02 0.12657445E+03</pdfrwt>
<totfact> 0.12451804E+04</totfact>
</mgrwt>
</event>
<event>
 8    1  0.9456677E-004  0.9659655E+02  0.7546771E-02  0.1288706E+00
          1   -1    0    0  501    0  0.00000000000E+00  0.00000000000E+00  0.23887914411E+02  0.23887914411E+02  0.00000000000E+00 0. -1.
         -1   -1    0    0    0  501 -0.00000000000E+00 -0.00000000000E+00 -0.38290577536E+03  0.38290577536E+03  0.00000000000E+00 0.  1.
         23    2    1    2    0    0 -0.28099120862E+02  0.12050390167E+02 -0.17747552421E+03  0.20206052195E+03  0.91630346179E+02 0.  0.
         23    2    1    2    0    0  0.28099120862E+02 -0.12050390167E+02 -0.18154233675E+03  0.20473316783E+03  0.89572749655E+02 0.  0.
          5    1    3    3  502    0  0.30805269229E+02 -0.11172593749E+02 -0.60323493353E+02  0.68809921622E+02  0.47000000000E+01 0. -1.
         -5    1    4    4    0  503  0.19515498830E+02 -0.40670626513E+02 -0.16314157013E+03  0.16932872308E+03  0.47000000000E+01 0.  1.
          5    1    4    4  503    0  0.85836220322E+01  0.28620236346E+02 -0.18400766614E+02  0.35404444745E+02  0.47000000000E+01 0. -1.
         -5    1    3    3    0  502 -0.58904390091E+02  0.23222983916E+02 -0.11715203085E+03  0.13325060032E+03  0.47000000000E+01 0.  1.
<mgrwt>
<rscale>  0 0.96105421E+02</rscale>
<asrwt>0</asrwt>
<pdfrwt beam="1">  1        1 0.36750634E-02 0.96596547E+02</pdfrwt>
<pdfrwt beam="2">  1       -1 0.58908587E-01 0.96596547E+02</pdfrwt>
<totfact> 0.70983786E+03</totfact>
</mgrwt>
</event>
<event>
 8    1  0.9456677E-004  0.1095118E+03  0.7546771E-02  0.1261875E+00
         -2   -1    0    0    0  501 -0.00000000000E+00  0.00000000000E+00  0.43951729489E+02  0.43951729489E+02  0.00000000000E+00 0.  1.
          2   -1    0    0  501    0  0.00000000000E+00 -0.00000000000E+00 -0.27956213187E+03  0.27956213187E+03  0.00000000000E+00 0. -1.
         23    2    1    2    0    0  0.35922159969E+02 -0.47918776709E+02 -0.14697937094E+03  0.18329148501E+03  0.91685452796E+02 0.  0.
         23    2    1    2    0    0 -0.35922159969E+02  0.47918776709E+02 -0.88631031438E+02  0.14022237635E+03  0.90665563245E+02 0.  0.
          5    1    3    3  502    0 -0.15809879326E+02 -0.38374738780E+02 -0.11304457502E+03  0.12051447549E+03  0.47000000000E+01 0. -1.
         -5    1    3    3    0  502  0.51732039294E+02 -0.95440379295E+01 -0.33934795924E+02  0.62777009517E+02  0.47000000000E+01 0.  1.
          5    1    4    4  503    0 -0.59183058135E+02  0.26151045999E+02 -0.86260670467E+02  0.10793287195E+03  0.47000000000E+01 0. -1.
         -5    1    4    4    0  503  0.23260898167E+02  0.21767730711E+02 -0.23703609715E+01  0.32289504409E+02  0.47000000000E+01 0.  1.
<mgrwt>
<rscale>  0 0.10929806E+03</rscale>
<asrwt>0</asrwt>
<pdfrwt beam="1">  1        2 0.43009561E-01 0.10951179E+03</pdfrwt>
<pdfrwt beam="2">  1       -2 0.67618042E-02 0.10951179E+03</pdfrwt>
<totfact> 0.13403717E+04</totfact>
</mgrwt>
</event>
<event>
 8    1  0.9456677E-004  0.1386000E+03  0.7546771E-02  0.1215668E+00
          1   -1    0    0  501    0  0.00000000000E+00  0.00000000000E+00  0.32245719786E+02  0.32245719786E+02  0.00000000000E+00 0. -1.
         -1   -1    0    0    0  501 -0.00000000000E+00 -0.00000000000E+00 -0.90695001596E+03  0.90695001596E+03  0.00000000000E+00 0.  1.
         23    2    1    2    0    0  0.82383771571E+02  0.65092351102E+02 -0.71620634436E+03  0.72949399123E+03  0.90475717966E+02 0.  0.
         23    2    1    2    0    0 -0.82383771571E+02 -0.65092351102E+02 -0.15849795181E+03  0.20970174452E+03  0.88482319903E+02 0.  0.
          5    1    4    4  502    0 -0.68578169498E+02 -0.34705986601E+02 -0.40540741627E+02  0.87023632246E+02  0.47000000000E+01 0. -1.
         -5    1    4    4    0  502 -0.13805602073E+02 -0.30386364500E+02 -0.11795721019E+03  0.12267811227E+03  0.47000000000E+01 0.  1.
          5    1    3    3  503    0  0.69487516794E+01  0.45540314981E+02 -0.44112914711E+03  0.44355295047E+03  0.47000000000E+01 0. -1.
         -5    1    3    3    0  503  0.75435019891E+02  0.19552036121E+02 -0.27507719725E+03  0.28594104076E+03  0.47000000000E+01 0.  1.
<mgrwt>
<rscale>  0 0.13827561E+03</rscale>
<asrwt>0</asrwt>
<pdfrwt beam="1">  1        1 0.49608801E-02 0.13859998E+03</pdfrwt>
<pdfrwt beam="2">  1       -1 0.13953077E+00 0.13859998E+03</pdfrwt>
<totfact> 0.75815441E+02</totfact>
</mgrwt>
</event>
<event>
 8    1  0.9456677E-004  0.1260596E+03  0.7546771E-02  0.1237628E+00
          1   -1    0    0  501    0  0.00000000000E+00  0.00000000000E+00  0.26979162676E+03  0.26979162676E+03  0.00000000000E+00 0. -1.
         -1   -1    0    0    0  501 -0.00000000000E+00 -0.00000000000E+00 -0.12114424961E+03  0.12114424961E+03  0.00000000000E+00 0.  1.
         23    2    1    2    0    0  0.67525690730E+02  0.43482483216E+02 -0.72409143128E+02  0.13646189246E+03  0.83236523410E+02 0.  0.
         23    2    1    2    0    0 -0.67525690730E+02 -0.43482483216E+02  0.22105652027E+03  0.25447398391E+03  0.97162637246E+02 0.  0.
          5    1    3    3  502    0  0.82649053265E+01 -0.22490082038E+02 -0.48851484403E+01  0.24901147070E+02  0.47000000000E+01 0. -1.
         -5    1    3    3    0  502  0.59260785404E+02  0.65972565253E+02 -0.67523994688E+02  0.11156074539E+03  0.47000000000E+01 0.  1.
          5    1    4    4  503    0 -0.46161673234E+02 -0.55467398231E+02  0.21758860856E+03  0.22929113572E+03  0.47000000000E+01 0. -1.
         -5    1    4    4    0  503 -0.21364017496E+02  0.11984915016E+02  0.34679117117E+01  0.25182848194E+02  0.47000000000E+01 0.  1.
<mgrwt>
<rscale>  0 0.12337693E+03</rscale>
<asrwt>0</asrwt>
<pdfrwt beam="1">  1        1 0.41506404E-01 0.12605960E+03</pdfrwt>
<pdfrwt beam="2">  1       -1 0.18637577E-01 0.12605960E+03</pdfrwt>
<totfact> 0.22067129E+03</totfact>
</mgrwt>
</event>
<event>
 8    1  0.9456677E-004  0.1060307E+03  0.7546771E-02  0.1268804E+00
          3   -1    0    0  501    0  0.00000000000E+00  0.00000000000E+00  0.39027440814E+02  0.39027440814E+02  0.00000000000E+00 0. -1.
         -3   -1    0    0    0  501 -0.00000000000E+00 -0.00000000000E+00 -0.29486354756E+03  0.29486354756E+03  0.00000000000E+00 0.  1.
         23    2    1    2    0    0  0.15101100456E+02 -0.46203746258E+02 -0.15884652105E+03  0.19019170679E+03  0.92616622039E+02 0.  0.
         23    2    1    2    0    0 -0.15101100456E+02  0.46203746258E+02 -0.96989585694E+02  0.14369928158E+03  0.94232024235E+02 0.  0.
          5    1    3    3  502    0 -0.33968443371E+02 -0.12493387115E+02 -0.26834091053E+02  0.45300091714E+02  0.47000000000E+01 0. -1.
         -5    1    4    4    0  503  0.38181238784E+01 -0.28153364582E+02 -0.21285832569E+02  0.35810147659E+02  0.47000000000E+01 0.  1.
          5    1    4    4  503    0 -0.18919224334E+02  0.74357110840E+02 -0.75703753125E+02  0.10788913392E+03  0.47000000000E+01 0. -1.
         -5    1    3    3    0  502  0.49069543827E+02 -0.33710359143E+02 -0.13201243000E+03  0.14489161508E+03  0.47000000000E+01 0.  1.
<mgrwt>
<rscale>  0 0.10567059E+03</rscale>
<asrwt>0</asrwt>
<pdfrwt beam="1">  1        3 0.60042217E-02 0.10603067E+03</pdfrwt>
<pdfrwt beam="2">  1       -3 0.45363622E-01 0.10603067E+03</pdfrwt>
<totfact> 0.18105513E+03</totfact>
</mgrwt>
</event>
<event>
 8    1  0.9456677E-004  0.9340683E+02  0.7546771E-02  0.1295171E+00
         -1   -1    0    0    0  501 -0.00000000000E+00  0.00000000000E+00  0.17676478126E+02  0.17676478126E+02  0.00000000000E+00 0.  1.
          1   -1    0    0  501    0  0.00000000000E+00 -0.00000000000E+00 -0.62396002590E+03  0.62396002590E+03  0.00000000000E+00 0. -1.
         23    2    1    2    0    0 -0.11362077187E+02 -0.15463395317E+01 -0.15543747156E+03  0.18134399047E+03  0.92700309338E+02 0.  0.
         23    2    1    2    0    0  0.11362077187E+02  0.15463395317E+01 -0.45084607621E+03  0.46029251355E+03  0.92062617996E+02 0.  0.
          5    1    3    3  502    0  0.27709002282E+02  0.30745830022E+02 -0.57980939725E+02  0.71393096603E+02  0.47000000000E+01 0. -1.
         -5    1    3    3    0  502 -0.39071079469E+02 -0.32292169554E+02 -0.97456531832E+02  0.10995089387E+03  0.47000000000E+01 0.  1.
          5    1    4    4  503    0  0.21592205731E+02  0.36662062042E+02 -0.35542870612E+03  0.35799718613E+03  0.47000000000E+01 0. -1.
         -5    1    4    4    0  503 -0.10230128545E+02 -0.35115722511E+02 -0.95417370093E+02  0.10229532742E+03  0.47000000000E+01 0.  1.
<mgrwt>
<rscale>  0 0.93248215E+02</rscale>
<asrwt>0</asrwt>
<pdfrwt beam="1">  1        1 0.95993824E-01 0.93406827E+02</pdfrwt>
<pdfrwt beam="2">  1       -1 0.27194589E-02 0.93406827E+02</pdfrwt>
<totfact> 0.13393940E+04</totfact>
</mgrwt>
</event>
<event>
 8    1  0.9456677E-004  0.1459592E+03  0.7546771E-02  0.1205926E+00
         -2   -1    0    0    0  501 -0.00000000000E+00  0.00000000000E+00  0.68848375487E+03  0.68848375487E+03  0.00000000000E+00 0.  1.
          2   -1    0    0  501    0  0.00000000000E+00 -0.00000000000E+00 -0.30689810514E+02  0.30689810514E+02  0.00000000000E+00 0. -1.
         23    2    1    2    0    0 -0.58918826464E+02 -0.97240534199E+02  0.33665844659E+03  0.36693731376E+03  0.91525586404E+02 0.  0.
         23    2    1    2    0    0  0.58918826464E+02  0.97240534199E+02  0.32113549777E+03  0.35223625162E+03  0.89527757864E+02 0.  0.
          5    1    3    3  502    0 -0.31963949280E+02  0.76384423162E+01  0.12240840718E+03  0.12683039069E+03  0.47000000000E+01 0. -1.
         -5    1    4    4    0  503 -0.70508428254E+01  0.39078431082E+02  0.19072092061E+03  0.19486764153E+03  0.47000000000E+01 0.  1.
          5    1    4    4  503    0  0.65969669289E+02  0.58162103116E+02  0.13041457716E+03  0.15736861009E+03  0.47000000000E+01 0. -1.
         -5    1    3    3    0  502 -0.26954877184E+02 -0.10487897651E+03  0.21425003941E+03  0.24010692307E+03  0.47000000000E+01 0.  1.
<mgrwt>
<rscale>  0 0.14564708E+03</rscale>
<asrwt>0</asrwt>
<pdfrwt beam="1">  1        2 0.47215098E-02 0.14595918E+03</pdfrwt>
<pdfrwt beam="2">  1       -2 0.10592057E+00 0.14595918E+03</pdfrwt>
<totfact> 0.12342124E+03</totfact>
</mgrwt>
</event>
<event>
 8    1  0.9456677E-004  0.1894785E+03  0.7546771E-02  0.1159248E+00
          1   -1    0    0  501    0  0.00000000000E+00  0.00000000000E+00  0.56228504712E+03  0.56228504712E+03  0.00000000000E+00 0. -1.
         -1   -1    0    0    0  501 -0.00000000000E+00 -0.00000000000E+00 -0.13246295306E+03  0.13246295306E+03  0.00000000000E+00 0.  1.
         23    2    1    2    0    0  0.14981669427E+03  0.68049089113E+02  0.46538882356E+03  0.50196028737E+03  0.91113405099E+02 0.  0.
         23    2    1    2    0    0 -0.14981669427E+03 -0.68049089113E+02 -0.35566729505E+02  0.19278771280E+03  0.93948866668E+02 0.  0.
          5    1    3    3  502    0  0.11848117142E+03  0.71988651067E+01  0.27385192099E+03  0.29850724660E+03  0.47000000000E+01 0. -1.
         -5    1    3    3    0  502  0.31335522855E+02  0.60850224007E+02  0.19153690257E+03  0.20345304078E+03  0.47000000000E+01 0.  1.
          5    1    4    4  503    0 -0.43326640667E+02 -0.26055670987E+01  0.28616367720E+02  0.52201276544E+02  0.47000000000E+01 0. -1.
         -5    1    4    4    0  503 -0.10649005361E+03 -0.65443522015E+02 -0.64183097224E+02  0.14058643626E+03  0.47000000000E+01 0.  1.
<mgrwt>
<rscale>  0 0.18913012E+03</rscale>
<asrwt>0</asrwt>
<pdfrwt beam="1">  1        1 0.86505390E-01 0.18947852E+03</pdfrwt>
<pdfrwt beam="2">  1       -1 0.20378916E-01 0.18947852E+03</pdfrwt>
<totfact> 0.75615673E+02</totfact>
</mgrwt>
</event>
<event>
 8    1  0.9456677E-004  0.9489011E+02  0.7546771E-02  0.1292263E+00
         -1   -1    0    0    0  501 -0.00000000000E+00  0.00000000000E+00  0.22072505946E+02  0.22072505946E+02  0.00000000000E+00 0.  1.
          1   -1    0    0  501    0  0.00000000000E+00 -0.00000000000E+00 -0.40745918972E+03  0.40745918972E+03  0.00000000000E+00 0. -1.
         23    2    1    2    0    0  0.68788664906E+01  0.19378410276E+02 -0.16846871146E+03  0.19335418325E+03  0.92635262448E+02 0.  0.
         23    2    1    2    0    0 -0.68788664906E+01 -0.19378410276E+02 -0.21691797231E+03  0.23617751242E+03  0.91123921507E+02 0.  0.
          5    1    3    3  502    0  0.39717941875E+02 -0.11126370251E+01 -0.13853554420E+03  0.14419757236E+03  0.47000000000E+01 0. -1.
         -5    1    4    4    0  503  0.36350815483E+02 -0.25556040431E+02 -0.14670550764E+03  0.15335934585E+03  0.47000000000E+01 0. -1.
          5    1    4    4  503    0 -0.43229681973E+02  0.61776301545E+01 -0.70212464677E+02  0.82818166569E+02  0.47000000000E+01 0.  1.
         -5    1    3    3    0  502 -0.32839075384E+02  0.20491047301E+02 -0.29933167261E+02  0.49156610887E+02  0.47000000000E+01 0.  1.
<mgrwt>
<rscale>  0 0.94519230E+02</rscale>
<asrwt>0</asrwt>
<pdfrwt beam="1">  1        1 0.62686022E-01 0.94890112E+02</pdfrwt>
<pdfrwt beam="2">  1       -1 0.33957705E-02 0.94890112E+02</pdfrwt>
<totfact> 0.16892071E+04</totfact>
</mgrwt>
</event>
<event>
 8    1  0.9456677E-004  0.9200184E+02  0.7546771E-02  0.1299121E+00
          2   -1    0    0  501    0  0.00000000000E+00  0.00000000000E+00  0.15551586364E+03  0.15551586364E+03  0.00000000000E+00 0. -1.
         -2   -1    0    0    0  501 -0.00000000000E+00 -0.00000000000E+00 -0.24227195685E+03  0.24227195685E+03  0.00000000000E+00 0.  1.
         23    2    1    2    0    0  0.11031273901E+01 -0.90289377594E+01 -0.21908465158E+03  0.23761823166E+03  0.91551083291E+02 0.  0.
         23    2    1    2    0    0 -0.11031273901E+01  0.90289377594E+01  0.13232855837E+03  0.16016958884E+03  0.89781463685E+02 0.  0.
          5    1    3    3  502    0  0.36365064017E+02  0.22417481493E+02 -0.82619855745E+02  0.93129436382E+02  0.47000000000E+01 0. -1.
         -5    1    4    4    0  503 -0.28807962484E+02 -0.66818939083E+01  0.69718919827E+01  0.30744815603E+02  0.47000000000E+01 0.  1.
          5    1    4    4  503    0  0.27704835094E+02  0.15710831668E+02  0.12535666639E+03  0.12942477324E+03  0.47000000000E+01 0. -1.
         -5    1    3    3    0  502 -0.35261936627E+02 -0.31446419253E+02 -0.13646479584E+03  0.14448879528E+03  0.47000000000E+01 0.  1.
<mgrwt>
<rscale>  0 0.91558455E+02</rscale>
<asrwt>0</asrwt>
<pdfrwt beam="1">  1        2 0.23925518E-01 0.92001845E+02</pdfrwt>
<pdfrwt beam="2">  1       -2 0.37272609E-01 0.92001845E+02</pdfrwt>
<totfact> 0.14835657E+03</totfact>
</mgrwt>
</event>
<event>
 8    1  0.9456677E-004  0.9173908E+02  0.7546771E-02  0.1298832E+00
          2   -1    0    0  501    0  0.00000000000E+00  0.00000000000E+00  0.19604417555E+03  0.19604417555E+03  0.00000000000E+00 0. -1.
         -2   -1    0    0    0  501 -0.00000000000E+00 -0.00000000000E+00 -0.49694612149E+02  0.49694612149E+02  0.00000000000E+00 0.  1.
         23    2    1    2    0    0 -0.79743434752E+01  0.51097375797E+01  0.27555944332E+02  0.95788254051E+02  0.91248890262E+02 0.  0.
         23    2    1    2    0    0  0.79743434752E+01 -0.51097375797E+01  0.11879361907E+03  0.14995053365E+03  0.91013949686E+02 0.  0.
          5    1    4    4  502    0  0.23085128536E+02 -0.30753368483E+02  0.11274641588E+03  0.11921634588E+03  0.47000000000E+01 0. -1.
         -5    1    3    3    0  503 -0.33989026072E+02 -0.39207107333E+01 -0.20529629435E+02  0.40176878310E+02  0.47000000000E+01 0.  1.
          5    1    3    3  503    0  0.26014682597E+02  0.90304483130E+01  0.48085573766E+02  0.55611375741E+02  0.47000000000E+01 0. -1.
         -5    1    4    4    0  502 -0.15110785060E+02  0.25643630904E+02  0.60472031922E+01  0.30734187764E+02  0.47000000000E+01 0.  1.
<mgrwt>
<rscale>  0 0.91680608E+02</rscale>
<asrwt>0</asrwt>
<pdfrwt beam="1">  1        2 0.30160642E-01 0.91739084E+02</pdfrwt>
<pdfrwt beam="2">  1       -2 0.76453250E-02 0.91739084E+02</pdfrwt>
<totfact> 0.15923143E+04</totfact>
</mgrwt>
</event>
<event>
 8    1  0.9456677E-004  0.9703712E+02  0.7546771E-02  0.1287047E+00
         -4   -1    0    0    0  501 -0.00000000000E+00  0.00000000000E+00  0.31627300832E+03  0.31627300832E+03  0.00000000000E+00 0.  1.
          4   -1    0    0  501    0  0.00000000000E+00 -0.00000000000E+00 -0.30452559271E+02  0.30452559271E+02  0.00000000000E+00 0. -1.
         23    2    1    2    0    0  0.32788397087E+02  0.60720033337E+01  0.11259600760E+03  0.14817353533E+03  0.90363640015E+02 0.  0.
         23    2    1    2    0    0 -0.32788397087E+02 -0.60720033337E+01  0.17322444144E+03  0.19855203226E+03  0.91127680710E+02 0.  0.
          5    1    3    3  502    0  0.56962892045E+02  0.27631700942E+02  0.70995905382E+02  0.95240697961E+02  0.47000000000E+01 0. -1.
         -5    1    4    4    0  503 -0.54012225644E+02  0.21094455704E+02  0.79000411608E+02  0.98109385966E+02  0.47000000000E+01 0.  1.
          5    1    4    4  503    0  0.21223828557E+02 -0.27166459038E+02  0.94224029837E+02  0.10044264629E+03  0.47000000000E+01 0. -1.
         -5    1    3    3    0  502 -0.24174494958E+02 -0.21559697608E+02  0.41600102218E+02  0.52932837369E+02  0.47000000000E+01 0.  1.
<mgrwt>
<rscale>  0 0.96857331E+02</rscale>
<asrwt>0</asrwt>
<pdfrwt beam="1">  1        4 0.46850093E-02 0.97037119E+02</pdfrwt>
<pdfrwt beam="2">  1       -4 0.48657384E-01 0.97037119E+02</pdfrwt>
<totfact> 0.16542727E+03</totfact>
</mgrwt>
</event>
<event>
 8    1  0.9456677E-004  0.1025754E+03  0.7546771E-02  0.1275600E+00
          2   -1    0    0  501    0  0.00000000000E+00  0.00000000000E+00  0.35218256697E+03  0.35218256697E+03  0.00000000000E+00 0. -1.
         -2   -1    0    0    0  501 -0.00000000000E+00 -0.00000000000E+00 -0.34502299640E+02  0.34502299640E+02  0.00000000000E+00 0.  1.
         23    2    1    2    0    0 -0.41414912559E+02 -0.10861516285E+02  0.84545600214E+02  0.13198214011E+03  0.91859453916E+02 0.  0.
         23    2    1    2    0    0  0.41414912559E+02  0.10861516285E+02  0.23313466711E+03  0.25470272650E+03  0.93212329427E+02 0.  0.
          5    1    3    3  502    0 -0.82189474220E+01 -0.49219145715E+02  0.46843328568E+02  0.68603664865E+02  0.47000000000E+01 0. -1.
         -5    1    4    4    0  503 -0.18103134059E+02  0.28458028423E+02  0.44311472181E+02  0.55885413225E+02  0.47000000000E+01 0.  1.
          5    1    4    4  503    0  0.59518046619E+02 -0.17596512138E+02  0.18882319493E+03  0.19881731327E+03  0.47000000000E+01 0. -1.
         -5    1    3    3    0  502 -0.33195965137E+02  0.38357629430E+02  0.37702271646E+02  0.63378475243E+02  0.47000000000E+01 0.  1.
<mgrwt>
<rscale>  0 0.10226703E+03</rscale>
<asrwt>0</asrwt>
<pdfrwt beam="1">  1        2 0.54181931E-01 0.10257537E+03</pdfrwt>
<pdfrwt beam="2">  1       -2 0.53080464E-02 0.10257537E+03</pdfrwt>
<totfact> 0.15051805E+04</totfact>
</mgrwt>
</event>
<event>
 8    1  0.9456677E-004  0.9428254E+02  0.7546771E-02  0.1293660E+00
         -1   -1    0    0    0  501 -0.00000000000E+00  0.00000000000E+00  0.21782037034E+02  0.21782037034E+02  0.00000000000E+00 0.  1.
          1   -1    0    0  501    0  0.00000000000E+00 -0.00000000000E+00 -0.41470589279E+03  0.41470589279E+03  0.00000000000E+00 0. -1.
         23    2    1    2    0    0  0.21775674203E+01 -0.20409177188E+02 -0.23367972974E+03  0.25142607956E+03  0.90485253397E+02 0.  0.
         23    2    1    2    0    0 -0.21775674203E+01  0.20409177188E+02 -0.15924412602E+03  0.18506185026E+03  0.92021304253E+02 0.  0.
          5    1    3    3  502    0  0.44195896816E+02 -0.39211779865E+01 -0.14647343026E+03  0.15311828338E+03  0.47000000000E+01 0. -1.
         -5    1    3    3    0  502 -0.42018329396E+02 -0.16487999201E+02 -0.87206299474E+02  0.98307796186E+02  0.47000000000E+01 0.  1.
          5    1    4    4  503    0  0.14386231274E+02 -0.31056263790E+02 -0.33572469111E+02  0.48173186038E+02  0.47000000000E+01 0. -1.
         -5    1    4    4    0  503 -0.16563798695E+02  0.51465440977E+02 -0.12567165691E+03  0.13688866422E+03  0.47000000000E+01 0.  1.
<mgrwt>
<rscale>  0 0.93905631E+02</rscale>
<asrwt>0</asrwt>
<pdfrwt beam="1">  1        1 0.63800903E-01 0.94282537E+02</pdfrwt>
<pdfrwt beam="2">  1       -1 0.33510828E-02 0.94282537E+02</pdfrwt>
<totfact> 0.16833699E+04</totfact>
</mgrwt>
</event>
<event>
 8    1  0.9456677E-004  0.9806363E+02  0.7546771E-02  0.1284561E+00
          1   -1    0    0  501    0  0.00000000000E+00  0.00000000000E+00  0.20251974108E+03  0.20251974108E+03  0.00000000000E+00 0. -1.
         -1   -1    0    0    0  501 -0.00000000000E+00 -0.00000000000E+00 -0.79271651407E+02  0.79271651407E+02  0.00000000000E+00 0.  1.
         23    2    1    2    0    0 -0.46061092432E+01  0.33874885993E+02  0.15106917805E+03  0.18010655865E+03  0.91911651977E+02 0.  0.
         23    2    1    2    0    0  0.46061092432E+01 -0.33874885993E+02 -0.27821088379E+02  0.10168483383E+03  0.91635518931E+02 0.  0.
          5    1    3    3  502    0 -0.40582166231E+02  0.43367404560E+02  0.10474897747E+03  0.12050760256E+03  0.47000000000E+01 0. -1.
         -5    1    4    4    0  503 -0.21470060812E+02 -0.57217236383E+02 -0.99064645571E+01  0.62088676025E+02  0.47000000000E+01 0.  1.
          5    1    4    4  503    0  0.26076170056E+02  0.23342350390E+02 -0.17914623821E+02  0.39596157808E+02  0.47000000000E+01 0. -1.
         -5    1    3    3    0  502  0.35976056988E+02 -0.94925185678E+01  0.46320200581E+02  0.59598956090E+02  0.47000000000E+01 0.  1.
<mgrwt>
<rscale>  0 0.97998877E+02</rscale>
<asrwt>0</asrwt>
<pdfrwt beam="1">  1        1 0.31156883E-01 0.98063632E+02</pdfrwt>
<pdfrwt beam="2">  1       -1 0.12195639E-01 0.98063632E+02</pdfrwt>
<totfact> 0.60011989E+03</totfact>
</mgrwt>
</event>
<event>
 8    1  0.9456677E-004  0.1112160E+03  0.7546771E-02  0.1258366E+00
         -3   -1    0    0    0  501 -0.00000000000E+00  0.00000000000E+00  0.45241978765E+02  0.45241978765E+02  0.00000000000E+00 0.  1.
          3   -1    0    0  501    0  0.00000000000E+00 -0.00000000000E+00 -0.27617389263E+03  0.27617389263E+03  0.00000000000E+00 0. -1.
         23    2    1    2    0    0  0.61054017360E+02  0.20757197572E+02 -0.13210102710E+03  0.17268376829E+03  0.90612075272E+02 0.  0.
         23    2    1    2    0    0 -0.61054017360E+02 -0.20757197572E+02 -0.98830886770E+02  0.14873210310E+03  0.90527565012E+02 0.  0.
          5    1    4    4  502    0 -0.41692873758E+02  0.11914723918E+02 -0.10139589767E+03  0.11037877709E+03  0.47000000000E+01 0. -1.
         -5    1    4    4    0  502 -0.19361143602E+02 -0.32671921491E+02  0.25650108958E+01  0.38353326014E+02  0.47000000000E+01 0.  1.
          5    1    3    3  503    0  0.57052934133E+02 -0.23969055720E+02 -0.53039647447E+02  0.81638514970E+02  0.47000000000E+01 0.  1.
         -5    1    3    3    0  503  0.40010832272E+01  0.44726253292E+02 -0.79061379650E+02  0.91045253323E+02  0.47000000000E+01 0. -1.
<mgrwt>
<rscale>  0 0.11119880E+03</rscale>
<asrwt>0</asrwt>
<pdfrwt beam="1">  1        3 0.42488292E-01 0.11121602E+03</pdfrwt>
<pdfrwt beam="2">  1       -3 0.69603043E-02 0.11121602E+03</pdfrwt>
<totfact> 0.16394074E+03</totfact>
</mgrwt>
</event>
<event>
 8    1  0.9456677E-004  0.9187812E+02  0.7546771E-02  0.1300380E+00
         -1   -1    0    0    0  501 -0.00000000000E+00  0.00000000000E+00  0.89212647634E+02  0.89212647634E+02  0.00000000000E+00 0.  1.
          1   -1    0    0  501    0  0.00000000000E+00 -0.00000000000E+00 -0.10994364272E+03  0.10994364272E+03  0.00000000000E+00 0. -1.
         23    2    1    2    0    0  0.47592902109E+01 -0.90222584940E+01  0.30899883350E+02  0.93764943047E+02  0.87937533294E+02 0.  0.
         23    2    1    2    0    0 -0.47592902109E+01  0.90222584940E+01 -0.51630878441E+02  0.10539134731E+03  0.91310111642E+02 0.  0.
          5    1    3    3  502    0 -0.34957938784E+02  0.18641046776E+02  0.14282442325E+02  0.42374806992E+02  0.47000000000E+01 0. -1.
         -5    1    3    3    0  502  0.39717228995E+02 -0.27663305269E+02  0.16617441026E+02  0.51390136054E+02  0.47000000000E+01 0.  1.
          5    1    4    4  503    0 -0.32352284732E+02  0.37705965717E+02 -0.39107381103E+02  0.63402582240E+02  0.47000000000E+01 0. -1.
         -5    1    4    4    0  503  0.27592994521E+02 -0.28683707223E+02 -0.12523497338E+02  0.41988765072E+02  0.47000000000E+01 0.  1.
<mgrwt>
<rscale>  0 0.91028676E+02</rscale>
<asrwt>0</asrwt>
<pdfrwt beam="1">  1        1 0.16914406E-01 0.91878118E+02</pdfrwt>
<pdfrwt beam="2">  1       -1 0.13725023E-01 0.91878118E+02</pdfrwt>
<totfact> 0.10668894E+04</totfact>
</mgrwt>
</event>
<event>
 8    1  0.9456677E-004  0.1248697E+03  0.7546771E-02  0.1240632E+00
          2   -1    0    0  501    0  0.00000000000E+00  0.00000000000E+00  0.70162176204E+03  0.70162176204E+03  0.00000000000E+00 0. -1.
         -2   -1    0    0    0  501 -0.00000000000E+00 -0.00000000000E+00 -0.20934646256E+02  0.20934646256E+02  0.00000000000E+00 0.  1.
         23    2    1    2    0    0  0.43044708242E+02  0.49412813040E+02  0.39950717671E+03  0.41489651470E+03  0.90767068229E+02 0.  0.
         23    2    1    2    0    0 -0.43044708242E+02 -0.49412813040E+02  0.28117993908E+03  0.30765989360E+03  0.10629195165E+03 0.  0.
          5    1    3    3  502    0  0.34931007202E+01  0.61476368250E+02  0.31127994739E+03  0.31734656333E+03  0.47000000000E+01 0. -1.
         -5    1    3    3    0  502  0.39551607522E+02 -0.12063555210E+02  0.88227229312E+02  0.97549951379E+02  0.47000000000E+01 0.  1.
          5    1    4    4  503    0 -0.17777513198E+02  0.32838364887E+02  0.67973975021E+02  0.77697808619E+02  0.47000000000E+01 0. -1.
         -5    1    4    4    0  503 -0.25267195044E+02 -0.82251177927E+02  0.21320596406E+03  0.22996208498E+03  0.47000000000E+01 0.  1.
<mgrwt>
<rscale>  0 0.12150674E+03</rscale>
<asrwt>0</asrwt>
<pdfrwt beam="1">  1        2 0.10794179E+00 0.12486974E+03</pdfrwt>
<pdfrwt beam="2">  1       -2 0.32207153E-02 0.12486974E+03</pdfrwt>
<totfact> 0.15049313E+04</totfact>
</mgrwt>
</event>
<event>
 8    1  0.9456677E-004  0.1315075E+03  0.7546771E-02  0.1226839E+00
          3   -1    0    0  501    0  0.00000000000E+00  0.00000000000E+00  0.56124171114E+03  0.56124171114E+03  0.00000000000E+00 0. -1.
         -3   -1    0    0    0  501 -0.00000000000E+00 -0.00000000000E+00 -0.36543114344E+02  0.36543114344E+02  0.00000000000E+00 0.  1.
         23    2    1    2    0    0 -0.21718250299E+02  0.80168532337E+02  0.13052862634E+03  0.18225601438E+03  0.96337202108E+02 0.  0.
         23    2    1    2    0    0  0.21718250299E+02 -0.80168532337E+02  0.39416997046E+03  0.41552881111E+03  0.10195857628E+03 0.  0.
          5    1    3    3  502    0 -0.18913692679E+01  0.98068730012E+02  0.11413050498E+03  0.15056199803E+03  0.47000000000E+01 0.  1.
         -5    1    4    4    0  503 -0.24347513249E+02 -0.50171874004E+02  0.87019631091E+02  0.10346267219E+03  0.47000000000E+01 0.  1.
          5    1    4    4  503    0  0.46065763547E+02 -0.29996658333E+02  0.30715033937E+03  0.31206613891E+03  0.47000000000E+01 0. -1.
         -5    1    3    3    0  502 -0.19826881031E+02 -0.17900197675E+02  0.16398121364E+02  0.31694016351E+02  0.47000000000E+01 0. -1.
<mgrwt>
<rscale>  0 0.13041684E+03</rscale>
<asrwt>0</asrwt>
<pdfrwt beam="1">  1        3 0.86344872E-01 0.13150752E+03</pdfrwt>
<pdfrwt beam="2">  1       -3 0.56220180E-02 0.13150752E+03</pdfrwt>
<totfact> 0.55040194E+02</totfact>
</mgrwt>
</event>
<event>
 8    1  0.9456677E-004  0.9496650E+02  0.7546771E-02  0.1293746E+00
         -1   -1    0    0    0  501 -0.00000000000E+00  0.00000000000E+00  0.13394431913E+03  0.13394431913E+03  0.00000000000E+00 0.  1.
          1   -1    0    0  501    0  0.00000000000E+00 -0.00000000000E+00 -0.11779824701E+03  0.11779824701E+03  0.00000000000E+00 0. -1.
         23    2    1    2    0    0 -0.18939654687E+02  0.90760212592E+01  0.92779915064E+02  0.12971231576E+03  0.88182127092E+02 0.  0.
         23    2    1    2    0    0  0.18939654687E+02 -0.90760212592E+01 -0.76633842940E+02  0.12203025038E+03  0.92615071364E+02 0.  0.
          5    1    4    4  502    0  0.13379782816E+02 -0.50733173874E+02 -0.42563358010E+02  0.67724463561E+02  0.47000000000E+01 0. -1.
         -5    1    3    3    0  503 -0.49027406263E+02  0.21746798588E+02  0.38470499829E+02  0.66171588849E+02  0.47000000000E+01 0.  1.
          5    1    3    3  503    0  0.30087751576E+02 -0.12670777329E+02  0.54309415235E+02  0.63540726910E+02  0.47000000000E+01 0. -1.
         -5    1    4    4    0  502  0.55598718715E+01  0.41657152615E+02 -0.34070484930E+02  0.54305786824E+02  0.47000000000E+01 0.  1.
<mgrwt>
<rscale>  0 0.93868121E+02</rscale>
<asrwt>0</asrwt>
<pdfrwt beam="1">  1        1 0.18122807E-01 0.94966500E+02</pdfrwt>
<pdfrwt beam="2">  1       -1 0.20606818E-01 0.94966500E+02</pdfrwt>
<totfact> 0.51865271E+03</totfact>
</mgrwt>
</event>
<event>
 8    1  0.9456677E-004  0.1046419E+03  0.7546771E-02  0.1271879E+00
          2   -1    0    0  501    0  0.00000000000E+00  0.00000000000E+00  0.18762425468E+03  0.18762425468E+03  0.00000000000E+00 0. -1.
         -2   -1    0    0    0  501 -0.00000000000E+00 -0.00000000000E+00 -0.81087564065E+02  0.81087564065E+02  0.00000000000E+00 0.  1.
         23    2    1    2    0    0  0.35301128157E+02  0.32179947864E+02  0.12657893358E+03  0.16423199774E+03  0.93103189854E+02 0.  0.
         23    2    1    2    0    0 -0.35301128157E+02 -0.32179947864E+02 -0.20042242961E+02  0.10447982101E+03  0.90733801870E+02 0.  0.
          5    1    3    3  502    0 -0.10231327920E+02  0.37027768147E+02  0.10776738199E+03  0.11450604484E+03  0.47000000000E+01 0. -1.
         -5    1    3    3    0  502  0.45532456076E+02 -0.48478202829E+01  0.18811551587E+02  0.49725952891E+02  0.47000000000E+01 0.  1.
          5    1    4    4  503    0  0.14136220568E+02 -0.44971026539E+02 -0.23885285234E+02  0.53054903738E+02  0.47000000000E+01 0. -1.
         -5    1    4    4    0  503 -0.49437348725E+02  0.12791078675E+02  0.38430422730E+01  0.51424917273E+02  0.47000000000E+01 0.  1.
<mgrwt>
<rscale>  0 0.10411227E+03</rscale>
<asrwt>0</asrwt>
<pdfrwt beam="1">  1        2 0.28865270E-01 0.10464188E+03</pdfrwt>
<pdfrwt beam="2">  1       -2 0.12475010E-01 0.10464188E+03</pdfrwt>
<totfact> 0.78838920E+03</totfact>
</mgrwt>
</event>
<event>
 8    1  0.9456677E-004  0.1111002E+03  0.7546771E-02  0.1259835E+00
         -2   -1    0    0    0  501 -0.00000000000E+00  0.00000000000E+00  0.11929182695E+02  0.11929182695E+02  0.00000000000E+00 0.  1.
          2   -1    0    0  501    0  0.00000000000E+00 -0.00000000000E+00 -0.11925317437E+04  0.11925317437E+04  0.00000000000E+00 0. -1.
         23    2    1    2    0    0 -0.38186246887E+02 -0.44454825073E+02 -0.36036216468E+03  0.37709963557E+03  0.94386569404E+02 0.  0.
         23    2    1    2    0    0  0.38186246887E+02  0.44454825073E+02 -0.82024039630E+03  0.82736129081E+03  0.91093231824E+02 0.  0.
          5    1    3    3  502    0 -0.49429077169E+02  0.13436924504E+02 -0.18556982173E+03  0.19256695809E+03  0.47000000000E+01 0. -1.
         -5    1    4    4    0  503  0.66872031106E+02  0.21628938513E+02 -0.58690340702E+03  0.59111536835E+03  0.47000000000E+01 0.  1.
          5    1    4    4  503    0 -0.28685784219E+02  0.22825886561E+02 -0.23333698928E+03  0.23624592246E+03  0.47000000000E+01 0. -1.
         -5    1    3    3    0  502  0.11242830282E+02 -0.57891749577E+02 -0.17479234295E+03  0.18453267748E+03  0.47000000000E+01 0.  1.
<mgrwt>
<rscale>  0 0.11039753E+03</rscale>
<asrwt>0</asrwt>
<pdfrwt beam="1">  1        2 0.18346648E+00 0.11110016E+03</pdfrwt>
<pdfrwt beam="2">  1       -2 0.18352583E-02 0.11110016E+03</pdfrwt>
<totfact> 0.16784345E+04</totfact>
</mgrwt>
</event>
<event>
 8    1  0.9456677E-004  0.1147462E+03  0.7546771E-02  0.1254589E+00
         -1   -1    0    0    0  501 -0.00000000000E+00  0.00000000000E+00  0.12415250033E+02  0.12415250033E+02  0.00000000000E+00 0.  1.
          1   -1    0    0  501    0  0.00000000000E+00 -0.00000000000E+00 -0.10656956670E+04  0.10656956670E+04  0.00000000000E+00 0. -1.
         23    2    1    2    0    0 -0.31942567209E+02 -0.44775788505E+02 -0.66417790675E+03  0.67401704653E+03  0.10070495702E+03 0.  0.
         23    2    1    2    0    0  0.31942567209E+02  0.44775788505E+02 -0.38910251017E+03  0.40409387045E+03  0.94158875732E+02 0.  0.
          5    1    4    4  502    0  0.22063202032E+02  0.73629188077E+02 -0.30286476573E+03  0.31250151766E+03  0.47000000000E+01 0. -1.
         -5    1    4    4    0  502  0.98793651778E+01 -0.28853399572E+02 -0.86237744440E+02  0.91592352788E+02  0.47000000000E+01 0.  1.
          5    1    3    3  503    0  0.35216304528E+02 -0.34917767167E+01 -0.21807810562E+03  0.22098083799E+03  0.47000000000E+01 0. -1.
         -5    1    3    3    0  503 -0.67158871737E+02 -0.41284011788E+02 -0.44609980113E+03  0.45303620854E+03  0.47000000000E+01 0.  1.
<mgrwt>
<rscale>  0 0.11329387E+03</rscale>
<asrwt>0</asrwt>
<pdfrwt beam="1">  1        1 0.16395316E+00 0.11474619E+03</pdfrwt>
<pdfrwt beam="2">  1       -1 0.19100387E-02 0.11474619E+03</pdfrwt>
<totfact> 0.10023325E+04</totfact>
</mgrwt>
</event>
<event>
 8    1  0.9456677E-004  0.9192883E+02  0.7546771E-02  0.1298473E+00
          1   -1    0    0  501    0  0.00000000000E+00  0.00000000000E+00  0.77168988379E+02  0.77168988379E+02  0.00000000000E+00 0. -1.
         -1   -1    0    0    0  501 -0.00000000000E+00 -0.00000000000E+00 -0.10927153210E+03  0.10927153210E+03  0.00000000000E+00 0.  1.
         23    2    1    2    0    0 -0.10491908925E+02  0.99160057372E+01 -0.20221946670E+02  0.94126708196E+02  0.90788230217E+02 0.  0.
         23    2    1    2    0    0  0.10491908925E+02 -0.99160057372E+01 -0.11880597049E+02  0.92313812281E+02  0.90400685998E+02 0.  0.
          5    1    3    3  502    0  0.14080111891E+02 -0.35648585376E+02 -0.16561398615E+02  0.42017152620E+02  0.47000000000E+01 0.  1.
         -5    1    4    4    0  503 -0.29449009703E+02 -0.26916707769E+02  0.12795277921E+02  0.42161148783E+02  0.47000000000E+01 0.  1.
          5    1    4    4  503    0  0.39940918627E+02  0.17000702032E+02 -0.24675874971E+02  0.50152663498E+02  0.47000000000E+01 0. -1.
         -5    1    3    3    0  502 -0.24572020816E+02  0.45564591113E+02 -0.36605480547E+01  0.52109555576E+02  0.47000000000E+01 0. -1.
<mgrwt>
<rscale>  0 0.91833003E+02</rscale>
<asrwt>0</asrwt>
<pdfrwt beam="1">  1        1 0.11872152E-01 0.91928832E+02</pdfrwt>
<pdfrwt beam="2">  1       -1 0.16811005E-01 0.91928832E+02</pdfrwt>
<totfact> 0.12266618E+04</totfact>
</mgrwt>
</event>
<event>
 7    1  0.9456677E-004  0.1712417E+03  0.7546771E-02  0.1196842E+00
         -2   -1    0    0    0  501 -0.00000000000E+00  0.00000000000E+00  0.50133833968E+02  0.50133833968E+02  0.00000000000E+00 0.  1.
          2   -1    0    0  501    0  0.00000000000E+00 -0.00000000000E+00 -0.39454470811E+03  0.39454470811E+03  0.00000000000E+00 0. -1.
         23    2    1    2    0    0 -0.18569519473E+02 -0.56834682749E+02 -0.11665383244E+03  0.15972767071E+03  0.91267759647E+02 0.  0.
          5    1    1    2  502    0 -0.26115664379E+02  0.69392893188E+02 -0.22639932532E+03  0.23827745604E+03  0.47000000000E+01 0. -1.
         -5    1    3    3    0  503  0.17374499611E+02  0.18310715567E+02 -0.27799204142E+02  0.37842321444E+02  0.47000000000E+01 0.  1.
          5    1    3    3  503    0 -0.35944019084E+02 -0.75145398316E+02 -0.88854628295E+02  0.12188534926E+03  0.47000000000E+01 0. -1.
         -5    1    1    2    0  502  0.44685183852E+02 -0.12558210439E+02 -0.13577163904E+01  0.46673415336E+02  0.47000000000E+01 0.  1.
<mgrwt>
<rscale>  0 0.15299334E+03</rscale>
<asrwt>0</asrwt>
<pdfrwt beam="1">  1        2 0.60699185E-01 0.17124173E+03</pdfrwt>
<pdfrwt beam="2">  1       -2 0.77128976E-02 0.17124173E+03</pdfrwt>
<totfact> 0.78528287E+03</totfact>
</mgrwt>
</event>
<event>
 8    1  0.9456677E-004  0.9792311E+02  0.7546771E-02  0.1285647E+00
         -1   -1    0    0    0  501 -0.00000000000E+00  0.00000000000E+00  0.53023809426E+03  0.53023809426E+03  0.00000000000E+00 0.  1.
          1   -1    0    0  501    0  0.00000000000E+00 -0.00000000000E+00 -0.62382690553E+02  0.62382690553E+02  0.00000000000E+00 0. -1.
         23    2    1    2    0    0 -0.72150373461E+01  0.29668321246E+02  0.48391372432E+03  0.49338971378E+03  0.91261443259E+02 0.  0.
         23    2    1    2    0    0  0.72150373461E+01 -0.29668321246E+02 -0.16058320610E+02  0.99231071040E+02  0.93041226075E+02 0.  0.
          5    1    3    3  502    0  0.15242307640E+02 -0.24692978221E+02  0.80817621150E+02  0.85997959301E+02  0.47000000000E+01 0. -1.
         -5    1    4    4    0  503  0.33721160697E+01  0.33698549563E+02 -0.74621989483E+01  0.34996254408E+02  0.47000000000E+01 0.  1.
          5    1    4    4  503    0  0.38429212764E+01 -0.63366870809E+02 -0.85961216613E+01  0.64234816632E+02  0.47000000000E+01 0. -1.
         -5    1    3    3    0  502 -0.22457344986E+02  0.54361299467E+02  0.40309610317E+03  0.40739175448E+03  0.47000000000E+01 0.  1.
<mgrwt>
<rscale>  0 0.97497988E+02</rscale>
<asrwt>0</asrwt>
<pdfrwt beam="1">  1        1 0.95973374E-02 0.97923112E+02</pdfrwt>
<pdfrwt beam="2">  1       -1 0.81575088E-01 0.97923112E+02</pdfrwt>
<totfact> 0.10357413E+03</totfact>
</mgrwt>
</event>
<event>
 8    1  0.9456677E-004  0.1006552E+03  0.7546771E-02  0.1280361E+00
          1   -1    0    0  501    0  0.00000000000E+00  0.00000000000E+00  0.51153416656E+03  0.51153416656E+03  0.00000000000E+00 0. -1.
         -1   -1    0    0    0  501 -0.00000000000E+00 -0.00000000000E+00 -0.30811369363E+02  0.30811369363E+02  0.00000000000E+00 0.  1.
         23    2    1    2    0    0  0.42587025922E+01 -0.35812282637E+02  0.40422467279E+03  0.41591990298E+03  0.91055606450E+02 0.  0.
         23    2    1    2    0    0 -0.42587025922E+01  0.35812282637E+02  0.76498124399E+02  0.12642563294E+03  0.93972450705E+02 0.  0.
          5    1    4    4  502    0  0.26013276307E+02 -0.21287406211E+02  0.38431559000E+02  0.51272984452E+02  0.47000000000E+01 0. -1.
         -5    1    3    3    0  503  0.23275473959E+02  0.17471044138E+02  0.24713243316E+03  0.24888454068E+03  0.47000000000E+01 0.  1.
          5    1    3    3  503    0 -0.19016771367E+02 -0.53283326775E+02  0.15709223964E+03  0.16703536230E+03  0.47000000000E+01 0. -1.
         -5    1    4    4    0  502 -0.30271978899E+02  0.57099688848E+02  0.38066565399E+02  0.75152648485E+02  0.47000000000E+01 0.  1.
<mgrwt>
<rscale>  0 0.99968850E+02</rscale>
<asrwt>0</asrwt>
<pdfrwt beam="1">  1        1 0.78697558E-01 0.10065524E+03</pdfrwt>
<pdfrwt beam="2">  1       -1 0.47402110E-02 0.10065524E+03</pdfrwt>
<totfact> 0.78272754E+03</totfact>
</mgrwt>
</event>
<event>
 8    1  0.9456677E-004  0.1656464E+03  0.7546771E-02  0.1184392E+00
         -3   -1    0    0    0  501 -0.00000000000E+00  0.00000000000E+00  0.56979224855E+03  0.56979224855E+03  0.00000000000E+00 0.  1.
          3   -1    0    0  501    0  0.00000000000E+00 -0.00000000000E+00 -0.49010892869E+02  0.49010892869E+02  0.00000000000E+00 0. -1.
         23    2    1    2    0    0 -0.81708716249E+01 -0.14004399802E+03  0.32988205922E+03  0.36605566957E+03  0.74131610691E+02 0.  0.
         23    2    1    2    0    0  0.81708716249E+01  0.14004399802E+03  0.19089929645E+03  0.25274747185E+03  0.88088924470E+02 0.  0.
          5    1    4    4  502    0  0.42347099527E+02  0.10515719372E+03  0.15435761138E+03  0.19157159085E+03  0.47000000000E+01 0. -1.
         -5    1    4    4    0  502 -0.34176227902E+02  0.34886804301E+02  0.36541685071E+02  0.61175880997E+02  0.47000000000E+01 0.  1.
          5    1    3    3  503    0 -0.18925556073E+01 -0.88833076135E+02  0.11716860723E+03  0.14712399431E+03  0.47000000000E+01 0. -1.
         -5    1    3    3    0  503 -0.62783160176E+01 -0.51210921881E+02  0.21271345199E+03  0.21893167526E+03  0.47000000000E+01 0.  1.
<mgrwt>
<rscale>  0 0.16387279E+03</rscale>
<asrwt>0</asrwt>
<pdfrwt beam="1">  1        3 0.75401378E-02 0.16564644E+03</pdfrwt>
<pdfrwt beam="2">  1       -3 0.87660341E-01 0.16564644E+03</pdfrwt>
<totfact> 0.34194658E+02</totfact>
</mgrwt>
</event>
<event>
 8    1  0.9456677E-004  0.1070230E+03  0.7546771E-02  0.1272211E+00
          3   -1    0    0  501    0  0.00000000000E+00  0.00000000000E+00  0.22723396280E+03  0.22723396280E+03  0.00000000000E+00 0. -1.
         -3   -1    0    0    0  501 -0.00000000000E+00 -0.00000000000E+00 -0.47014651781E+02  0.47014651781E+02  0.00000000000E+00 0.  1.
         23    2    1    2    0    0  0.28045537429E+02  0.47274437788E+02  0.56790338665E+02  0.11088206790E+03  0.77770597138E+02 0.  0.
         23    2    1    2    0    0 -0.28045537429E+02 -0.47274437788E+02  0.12342897235E+03  0.16336654668E+03  0.91828605123E+02 0.  0.
          5    1    4    4  502    0  0.17733957585E+02 -0.41397484968E+02  0.10331110553E+03  0.11279857950E+03  0.47000000000E+01 0. -1.
         -5    1    4    4    0  502 -0.45779495014E+02 -0.58769528202E+01  0.20117866827E+02  0.50567967172E+02  0.47000000000E+01 0.  1.
          5    1    3    3  503    0  0.24862056600E+02 -0.14153853980E+02  0.32047796976E+01  0.29168717040E+02  0.47000000000E+01 0. -1.
         -5    1    3    3    0  503  0.31834808294E+01  0.61428291767E+02  0.53585558967E+02  0.81713350864E+02  0.47000000000E+01 0.  1.
<mgrwt>
<rscale>  0 0.10394577E+03</rscale>
<asrwt>0</asrwt>
<pdfrwt beam="1">  1        3 0.34959071E-01 0.10702298E+03</pdfrwt>
<pdfrwt beam="2">  1       -3 0.72330235E-02 0.10702298E+03</pdfrwt>
<totfact> 0.22190600E+03</totfact>
</mgrwt>
</event>
<event>
 8    1  0.9456677E-004  0.9457441E+02  0.7546771E-02  0.1292834E+00
         -1   -1    0    0    0  501 -0.00000000000E+00  0.00000000000E+00  0.47418685506E+03  0.47418685506E+03  0.00000000000E+00 0.  1.
          1   -1    0    0  501    0  0.00000000000E+00 -0.00000000000E+00 -0.21057618060E+02  0.21057618060E+02  0.00000000000E+00 0. -1.
         23    2    1    2    0    0  0.11687054360E+02 -0.22493542682E+02  0.14100787901E+03  0.16910943811E+03  0.89845608769E+02 0.  0.
         23    2    1    2    0    0 -0.11687054360E+02  0.22493542682E+02  0.31212135799E+03  0.32613503500E+03  0.91114061708E+02 0.  0.
          5    1    4    4  502    0  0.60790827118E+01  0.53095423026E+02  0.13154374082E+03  0.14206310197E+03  0.47000000000E+01 0. -1.
         -5    1    3    3    0  503 -0.28707123868E+02  0.18144079789E+02  0.68269007776E+02  0.76394070548E+02  0.47000000000E+01 0.  1.
          5    1    3    3  503    0  0.40394178228E+02 -0.40637622472E+02  0.72738871232E+02  0.92715367566E+02  0.47000000000E+01 0. -1.
         -5    1    4    4    0  502 -0.17766137072E+02 -0.30601880344E+02  0.18057761717E+03  0.18407193303E+03  0.47000000000E+01 0.  1.
<mgrwt>
<rscale>  0 0.94267564E+02</rscale>
<asrwt>0</asrwt>
<pdfrwt beam="1">  1        1 0.32396339E-02 0.94574410E+02</pdfrwt>
<pdfrwt beam="2">  1       -1 0.72951816E-01 0.94574410E+02</pdfrwt>
<totfact> 0.55793252E+03</totfact>
</mgrwt>
</event>
<event>
 8    1  0.9456677E-004  0.9920785E+02  0.7546771E-02  0.1282501E+00
          2   -1    0    0  501    0  0.00000000000E+00  0.00000000000E+00  0.50806319122E+03  0.50806319122E+03  0.00000000000E+00 0. -1.
         -2   -1    0    0    0  501 -0.00000000000E+00 -0.00000000000E+00 -0.21535798568E+02  0.21535798568E+02  0.00000000000E+00 0.  1.
         23    2    1    2    0    0  0.34586706116E+01  0.22829850526E+02  0.15674968844E+03  0.18550649994E+03  0.96483326095E+02 0.  0.
         23    2    1    2    0    0 -0.34586706116E+01 -0.22829850526E+02  0.32977770421E+03  0.34409248985E+03  0.95462782805E+02 0.  0.
          5    1    4    4  502    0 -0.30679500541E+02 -0.46240002750E+02  0.13599873721E+03  0.14695957312E+03  0.47000000000E+01 0. -1.
         -5    1    3    3    0  503 -0.23168051784E+02 -0.19245459273E+02  0.12703132489E+02  0.33024322872E+02  0.47000000000E+01 0.  1.
          5    1    3    3  503    0  0.26626722396E+02  0.42075309800E+02  0.14404655595E+03  0.15248217706E+03  0.47000000000E+01 0. -1.
         -5    1    4    4    0  502  0.27220829929E+02  0.23410152223E+02  0.19377896700E+03  0.19713291674E+03  0.47000000000E+01 0.  1.
<mgrwt>
<rscale>  0 0.98958853E+02</rscale>
<asrwt>0</asrwt>
<pdfrwt beam="1">  1        2 0.78163559E-01 0.99207846E+02</pdfrwt>
<pdfrwt beam="2">  1       -2 0.33132002E-02 0.99207846E+02</pdfrwt>
<totfact> 0.20383695E+04</totfact>
</mgrwt>
</event>
<event>
 8    1  0.9456677E-004  0.1067242E+03  0.7546771E-02  0.1267567E+00
          1   -1    0    0  501    0  0.00000000000E+00  0.00000000000E+00  0.33824188887E+02  0.33824188887E+02  0.00000000000E+00 0. -1.
         -1   -1    0    0    0  501 -0.00000000000E+00 -0.00000000000E+00 -0.43188320259E+03  0.43188320259E+03  0.00000000000E+00 0.  1.
         23    2    1    2    0    0 -0.46468589495E+02  0.31077944034E+02 -0.31007878943E+03  0.32739404158E+03  0.88954113958E+02 0.  0.
         23    2    1    2    0    0  0.46468589495E+02 -0.31077944034E+02 -0.87980224277E+02  0.13831334990E+03  0.90911465080E+02 0.  0.
          5    1    3    3  502    0 -0.34591438429E+02  0.53326246495E+02 -0.12269341756E+03  0.13826069901E+03  0.47000000000E+01 0. -1.
         -5    1    3    3    0  502 -0.11877151066E+02 -0.22248302461E+02 -0.18738537187E+03  0.18913334257E+03  0.47000000000E+01 0.  1.
          5    1    4    4  503    0  0.30161292171E+02  0.41321492448E+01 -0.93861305628E+02  0.98786704050E+02  0.47000000000E+01 0. -1.
         -5    1    4    4    0  503  0.16307297323E+02 -0.35210093279E+02  0.58810813507E+01  0.39526645855E+02  0.47000000000E+01 0.  1.
<mgrwt>
<rscale>  0 0.10630620E+03</rscale>
<asrwt>0</asrwt>
<pdfrwt beam="1">  1        1 0.52037211E-02 0.10672424E+03</pdfrwt>
<pdfrwt beam="2">  1       -1 0.66443574E-01 0.10672424E+03</pdfrwt>
<totfact> 0.35437288E+03</totfact>
</mgrwt>
</event>
<event>
 8    1  0.9456677E-004  0.1116601E+03  0.7546771E-02  0.1258318E+00
         -2   -1    0    0    0  501 -0.00000000000E+00  0.00000000000E+00  0.67441407539E+03  0.67441407539E+03  0.00000000000E+00 0.  1.
          2   -1    0    0  501    0  0.00000000000E+00 -0.00000000000E+00 -0.20137413360E+02  0.20137413360E+02  0.00000000000E+00 0. -1.
         23    2    1    2    0    0 -0.27500528332E+02  0.53825948341E+02  0.43711353182E+03  0.45114989508E+03  0.93885442704E+02 0.  0.
         23    2    1    2    0    0  0.27500528332E+02 -0.53825948341E+02  0.21716313021E+03  0.24340159367E+03  0.91820471071E+02 0.  0.
          5    1    4    4  502    0  0.74634063757E+01 -0.54105547283E+02  0.47622602781E+02  0.72616217039E+02  0.47000000000E+01 0. -1.
         -5    1    3    3    0  503 -0.81723375953E+00  0.63919087399E+02  0.39437666768E+03  0.39955145303E+03  0.47000000000E+01 0.  1.
          5    1    3    3  503    0 -0.26683294572E+02 -0.10093139058E+02  0.42736864143E+02  0.51598442051E+02  0.47000000000E+01 0. -1.
         -5    1    4    4    0  502  0.20037121956E+02  0.27959894193E+00  0.16954052743E+03  0.17078537663E+03  0.47000000000E+01 0.  1.
<mgrwt>
<rscale>  0 0.11122496E+03</rscale>
<asrwt>0</asrwt>
<pdfrwt beam="1">  1        2 0.30980641E-02 0.11166015E+03</pdfrwt>
<pdfrwt beam="2">  1       -2 0.10375599E+00 0.11166015E+03</pdfrwt>
<totfact> 0.22247697E+03</totfact>
</mgrwt>
</event>
<event>
 7    1  0.9456677E-004  0.1697338E+03  0.7546771E-02  0.1202316E+00
          1   -1    0    0  501    0  0.00000000000E+00  0.00000000000E+00  0.19521969302E+03  0.19521969302E+03  0.00000000000E+00 0. -1.
         -1   -1    0    0    0  501 -0.00000000000E+00 -0.00000000000E+00 -0.97516079288E+02  0.97516079288E+02  0.00000000000E+00 0.  1.
         23    2    1    2    0    0 -0.41656919300E+02 -0.42957515377E+01  0.67811189174E+02  0.12038987163E+03  0.90230878343E+02 0.  0.
          5    1    1    2  502    0 -0.56602126036E+02  0.16359207258E+02 -0.18663054802E+02  0.61982448713E+02  0.47000000000E+01 0. -1.
         -5    1    3    3    0  503  0.24816329130E+02 -0.18504163605E+02  0.20032392828E+02  0.37170432129E+02  0.47000000000E+01 0.  1.
          5    1    3    3  503    0 -0.66473248430E+02  0.14208412068E+02  0.47778796346E+02  0.83219439500E+02  0.47000000000E+01 0. -1.
         -5    1    1    2    0  502  0.98259045337E+02 -0.12063455720E+02  0.48555479363E+02  0.11036345197E+03  0.47000000000E+01 0.  1.
<mgrwt>
<rscale>  0 0.14850982E+03</rscale>
<asrwt>0</asrwt>
<pdfrwt beam="1">  1        1 0.30033799E-01 0.16973377E+03</pdfrwt>
<pdfrwt beam="2">  1       -1 0.15002474E-01 0.16973377E+03</pdfrwt>
<totfact> 0.47138602E+03</totfact>
</mgrwt>
</event>
<event>
 8    1  0.9456677E-004  0.1061318E+03  0.7546771E-02  0.1269394E+00
          2   -1    0    0  501    0  0.00000000000E+00  0.00000000000E+00  0.59187727777E+03  0.59187727777E+03  0.00000000000E+00 0. -1.
         -2   -1    0    0    0  501 -0.00000000000E+00 -0.00000000000E+00 -0.27020568750E+02  0.27020568750E+02  0.00000000000E+00 0.  1.
         23    2    1    2    0    0 -0.26333359104E+02 -0.44680571339E+02  0.10581506039E+03  0.14774693231E+03  0.89120871550E+02 0.  0.
         23    2    1    2    0    0  0.26333359104E+02  0.44680571339E+02  0.45904164863E+03  0.47115091421E+03  0.92596703627E+02 0.  0.
          5    1    4    4  502    0  0.41428054913E+02  0.61402911293E+01  0.37490818589E+03  0.37726943258E+03  0.47000000000E+01 0. -1.
         -5    1    3    3    0  503 -0.16337836884E+02  0.26264535246E+02  0.33679242364E+02  0.45968816517E+02  0.47000000000E+01 0.  1.
          5    1    3    3  503    0 -0.99955222200E+01 -0.70945106585E+02  0.72135818025E+02  0.10177811580E+03  0.47000000000E+01 0. -1.
         -5    1    4    4    0  502 -0.15094695810E+02  0.38540280209E+02  0.84133462739E+02  0.93881481628E+02  0.47000000000E+01 0.  1.
<mgrwt>
<rscale>  0 0.10536893E+03</rscale>
<asrwt>0</asrwt>
<pdfrwt beam="1">  1        2 0.91058033E-01 0.10613175E+03</pdfrwt>
<pdfrwt beam="2">  1       -2 0.41570110E-02 0.10613175E+03</pdfrwt>
<totfact> 0.12409331E+04</totfact>
</mgrwt>
</event>
<event>
 8    1  0.9456677E-004  0.1535737E+03  0.7546771E-02  0.1196939E+00
          1   -1    0    0  501    0  0.00000000000E+00  0.00000000000E+00  0.11512848534E+04  0.11512848534E+04  0.00000000000E+00 0. -1.
         -1   -1    0    0    0  501 -0.00000000000E+00 -0.00000000000E+00 -0.25613240899E+02  0.25613240899E+02  0.00000000000E+00 0.  1.
         23    2    1    2    0    0 -0.50835691916E+02 -0.11105483334E+03  0.28693408518E+03  0.32421672653E+03  0.88701031254E+02 0.  0.
         23    2    1    2    0    0  0.50835691916E+02  0.11105483334E+03  0.83873752735E+03  0.85268136780E+03  0.93099042007E+02 0.  0.
          5    1    4    4  502    0 -0.21676700528E+02  0.23352350141E+02  0.95912804130E+02  0.10117592401E+03  0.47000000000E+01 0. -1.
         -5    1    3    3    0  503 -0.24946573738E+02 -0.69858256156E+02  0.70895567394E+02  0.10271698482E+03  0.47000000000E+01 0.  1.
          5    1    3    3  503    0 -0.25889118178E+02 -0.41196577179E+02  0.21603851779E+03  0.22149974171E+03  0.47000000000E+01 0. -1.
         -5    1    4    4    0  502  0.72512392444E+02  0.87702483194E+02  0.74282472322E+03  0.75150544379E+03  0.47000000000E+01 0.  1.
<mgrwt>
<rscale>  0 0.15291302E+03</rscale>
<asrwt>0</asrwt>
<pdfrwt beam="1">  1        1 0.17712071E+00 0.15357368E+03</pdfrwt>
<pdfrwt beam="2">  1       -1 0.39404995E-02 0.15357368E+03</pdfrwt>
<totfact> 0.30851101E+03</totfact>
</mgrwt>
</event>
<event>
 8    1  0.9456677E-004  0.1022992E+03  0.7546771E-02  0.1276978E+00
         -2   -1    0    0    0  501 -0.00000000000E+00  0.00000000000E+00  0.41058569659E+02  0.41058569659E+02  0.00000000000E+00 0.  1.
          2   -1    0    0  501    0  0.00000000000E+00 -0.00000000000E+00 -0.27070803508E+03  0.27070803508E+03  0.00000000000E+00 0. -1.
         23    2    1    2    0    0  0.38738516069E+02  0.13470064938E+02 -0.16144125894E+03  0.19112408167E+03  0.93717763682E+02 0.  0.
         23    2    1    2    0    0 -0.38738516069E+02 -0.13470064938E+02 -0.68208206482E+02  0.12064252307E+03  0.90665007940E+02 0.  0.
          5    1    3    3  502    0 -0.13482371055E+01 -0.29982472668E+02 -0.16614656125E+02  0.34625181715E+02  0.47000000000E+01 0. -1.
         -5    1    4    4    0  503  0.18339833422E+02  0.23587301376E+02 -0.13151919259E+02  0.32981407738E+02  0.47000000000E+01 0.  1.
          5    1    4    4  503    0 -0.57078349491E+02 -0.37057366314E+02 -0.55056287223E+02  0.87661115334E+02  0.47000000000E+01 0. -1.
         -5    1    3    3    0  502  0.40086753174E+02  0.43452537606E+02 -0.14482660282E+03  0.15649889996E+03  0.47000000000E+01 0.  1.
<mgrwt>
<rscale>  0 0.10159471E+03</rscale>
<asrwt>0</asrwt>
<pdfrwt beam="1">  1        2 0.41647391E-01 0.10229924E+03</pdfrwt>
<pdfrwt beam="2">  1       -2 0.63167029E-02 0.10229924E+03</pdfrwt>
<totfact> 0.15274096E+04</totfact>
</mgrwt>
</event>
<event>
 8    1  0.9456677E-004  0.1117587E+03  0.7546771E-02  0.1257442E+00
         -1   -1    0    0    0  501 -0.00000000000E+00  0.00000000000E+00  0.47063591973E+02  0.47063591973E+02  0.00000000000E+00 0.  1.
          1   -1    0    0  501    0  0.00000000000E+00 -0.00000000000E+00 -0.54078716309E+03  0.54078716309E+03  0.00000000000E+00 0. -1.
         23    2    1    2    0    0 -0.63994003736E+02 -0.14566317271E+02 -0.36808918696E+02  0.11746685585E+03  0.90200640876E+02 0.  0.
         23    2    1    2    0    0  0.63994003736E+02  0.14566317271E+02 -0.45691465242E+03  0.47038389921E+03  0.90457741134E+02 0.  0.
          5    1    4    4  502    0  0.61248709656E+02  0.46325272882E+02 -0.36394935294E+03  0.37199281828E+03  0.47000000000E+01 0. -1.
         -5    1    4    4    0  502  0.27452940792E+01 -0.31758955612E+02 -0.92965299478E+02  0.98391080938E+02  0.47000000000E+01 0.  1.
          5    1    3    3  503    0 -0.82325352557E+02 -0.29310679113E+02 -0.30279250774E+02  0.92604009693E+02  0.47000000000E+01 0.  1.
         -5    1    3    3    0  503  0.18331348822E+02  0.14744361843E+02 -0.65296679223E+01  0.24862846155E+02  0.47000000000E+01 0. -1.
<mgrwt>
<rscale>  0 0.11170669E+03</rscale>
<asrwt>0</asrwt>
<pdfrwt beam="1">  1        1 0.83198031E-01 0.11175873E+03</pdfrwt>
<pdfrwt beam="2">  1       -1 0.72405521E-02 0.11175873E+03</pdfrwt>
<totfact> 0.39153999E+03</totfact>
</mgrwt>
</event>
<event>
 8    1  0.9456677E-004  0.1042042E+03  0.7546771E-02  0.1277125E+00
         -1   -1    0    0    0  501 -0.00000000000E+00  0.00000000000E+00  0.15648179746E+03  0.15648179746E+03  0.00000000000E+00 0.  1.
          1   -1    0    0  501    0  0.00000000000E+00 -0.00000000000E+00 -0.23987355334E+03  0.23987355334E+03  0.00000000000E+00 0. -1.
         23    2    1    2    0    0  0.49264661440E+02 -0.10429171961E+02  0.12799912749E+03  0.16505241550E+03  0.91229100241E+02 0.  0.
         23    2    1    2    0    0 -0.49264661440E+02  0.10429171961E+02 -0.21139088337E+03  0.23130293530E+03  0.79241200230E+02 0.  0.
          5    1    3    3  502    0  0.28455159340E+01  0.25681590976E+02  0.25053831401E+01  0.26381963928E+02  0.47000000000E+01 0. -1.
         -5    1    4    4    0  503 -0.69372566870E+01 -0.31546841469E+02 -0.56213574836E+02  0.65002959416E+02  0.47000000000E+01 0.  1.
          5    1    4    4  503    0 -0.42327404753E+02  0.41976013430E+02 -0.15517730853E+03  0.16629997589E+03  0.47000000000E+01 0. -1.
         -5    1    3    3    0  502  0.46419145506E+02 -0.36110762937E+02  0.12549374435E+03  0.13867045157E+03  0.47000000000E+01 0.  1.
<mgrwt>
<rscale>  0 0.10152347E+03</rscale>
<asrwt>0</asrwt>
<pdfrwt beam="1">  1        1 0.36903624E-01 0.10420424E+03</pdfrwt>
<pdfrwt beam="2">  1       -1 0.24074123E-01 0.10420424E+03</pdfrwt>
<totfact> 0.16776291E+03</totfact>
</mgrwt>
</event>
<event>
 8    1  0.9456677E-004  0.9403870E+02  0.7546771E-02  0.1295273E+00
          2   -1    0    0  501    0  0.00000000000E+00  0.00000000000E+00  0.67338697199E+03  0.67338697199E+03  0.00000000000E+00 0. -1.
         -2   -1    0    0    0  501 -0.00000000000E+00 -0.00000000000E+00 -0.17095620330E+02  0.17095620330E+02  0.00000000000E+00 0.  1.
         23    2    1    2    0    0  0.12289703394E+02  0.11622543166E+02  0.15697638732E+03  0.18298869910E+03  0.92504905303E+02 0.  0.
         23    2    1    2    0    0 -0.12289703394E+02 -0.11622543166E+02  0.49931496435E+03  0.50749389322E+03  0.89154347719E+02 0.  0.
          5    1    3    3  502    0  0.35425087379E+02  0.22858032412E+02  0.15006477413E+03  0.15594535228E+03  0.47000000000E+01 0. -1.
         -5    1    4    4    0  503 -0.39734924023E+02  0.22556760319E+02  0.22265030856E+03  0.22733878139E+03  0.47000000000E+01 0.  1.
          5    1    4    4  503    0  0.27445220629E+02 -0.34179303486E+02  0.27666465579E+03  0.28015511183E+03  0.47000000000E+01 0. -1.
         -5    1    3    3    0  502 -0.23135383985E+02 -0.11235489246E+02  0.69116131858E+01  0.27043346826E+02  0.47000000000E+01 0.  1.
<mgrwt>
<rscale>  0 0.93204184E+02</rscale>
<asrwt>0</asrwt>
<pdfrwt beam="1">  1        2 0.10359797E+00 0.94038704E+02</pdfrwt>
<pdfrwt beam="2">  1       -2 0.26300960E-02 0.94038704E+02</pdfrwt>
<totfact> 0.20718449E+04</totfact>
</mgrwt>
</event>
<event>
 8    1  0.9456677E-004  0.9226709E+02  0.7546771E-02  0.1298226E+00
          1   -1    0    0  501    0  0.00000000000E+00  0.00000000000E+00  0.29236803443E+03  0.29236803443E+03  0.00000000000E+00 0. -1.
         -1   -1    0    0    0  501 -0.00000000000E+00 -0.00000000000E+00 -0.29536798158E+02  0.29536798158E+02  0.00000000000E+00 0.  1.
         23    2    1    2    0    0  0.21460151366E+02 -0.11374015729E+02  0.10533512162E+03  0.14003108074E+03  0.89012973200E+02 0.  0.
         23    2    1    2    0    0 -0.21460151366E+02  0.11374015729E+02  0.15749611466E+03  0.18187375185E+03  0.87653460559E+02 0.  0.
          5    1    3    3  502    0 -0.29882482741E+02 -0.23308254536E+02  0.33445190178E+02  0.50763256893E+02  0.47000000000E+01 0. -1.
         -5    1    3    3    0  502  0.51342634107E+02  0.11934238807E+02  0.71889931439E+02  0.89267823852E+02  0.47000000000E+01 0.  1.
          5    1    4    4  503    0 -0.33695803362E+02 -0.12412203470E+02  0.14911739527E+03  0.15345213433E+03  0.47000000000E+01 0. -1.
         -5    1    4    4    0  503  0.12235651996E+02  0.23786219199E+02  0.83787193891E+01  0.28421617515E+02  0.47000000000E+01 0.  1.
<mgrwt>
<rscale>  0 0.91937613E+02</rscale>
<asrwt>0</asrwt>
<pdfrwt beam="1">  1        1 0.44979696E-01 0.92267089E+02</pdfrwt>
<pdfrwt beam="2">  1       -1 0.45441230E-02 0.92267089E+02</pdfrwt>
<totfact> 0.16603593E+04</totfact>
</mgrwt>
</event>
<event>
 8    1  0.9456677E-004  0.1031256E+03  0.7546771E-02  0.1274513E+00
         -1   -1    0    0    0  501 -0.00000000000E+00  0.00000000000E+00  0.50098137613E+02  0.50098137613E+02  0.00000000000E+00 0.  1.
          1   -1    0    0  501    0  0.00000000000E+00 -0.00000000000E+00 -0.20992645651E+03  0.20992645651E+03  0.00000000000E+00 0. -1.
         23    2    1    2    0    0  0.41517366959E+02 -0.17768095943E+02 -0.85269162719E+02  0.13381228636E+03  0.92711924136E+02 0.  0.
         23    2    1    2    0    0 -0.41517366959E+02  0.17768095943E+02 -0.74559156177E+02  0.12621230776E+03  0.91274760303E+02 0.  0.
          5    1    3    3  502    0  0.20699782535E+02 -0.54908646760E+02 -0.60107134040E+02  0.84133216083E+02  0.47000000000E+01 0. -1.
         -5    1    4    4    0  503 -0.16027629624E+02  0.38544626727E+02 -0.82032930744E+02  0.92163251285E+02  0.47000000000E+01 0.  1.
          5    1    4    4  503    0 -0.25489737335E+02 -0.20776530783E+02  0.74737745673E+01  0.34049056479E+02  0.47000000000E+01 0. -1.
         -5    1    3    3    0  502  0.20817584424E+02  0.37140550817E+02 -0.25162028679E+02  0.49679070276E+02  0.47000000000E+01 0.  1.
<mgrwt>
<rscale>  0 0.10280159E+03</rscale>
<asrwt>0</asrwt>
<pdfrwt beam="1">  1        1 0.32296378E-01 0.10312564E+03</pdfrwt>
<pdfrwt beam="2">  1       -1 0.77074057E-02 0.10312564E+03</pdfrwt>
<totfact> 0.11539040E+04</totfact>
</mgrwt>
</event>
<event>
 8    1  0.9456677E-004  0.1178490E+03  0.7546771E-02  0.1248624E+00
         -1   -1    0    0    0  501 -0.00000000000E+00  0.00000000000E+00  0.25024813372E+02  0.25024813372E+02  0.00000000000E+00 0.  1.
          1   -1    0    0  501    0  0.00000000000E+00 -0.00000000000E+00 -0.61755624205E+03  0.61755624205E+03  0.00000000000E+00 0. -1.
         23    2    1    2    0    0  0.46358039080E+02 -0.49771251425E+02 -0.17317064130E+03  0.20697588966E+03  0.90690146288E+02 0.  0.
         23    2    1    2    0    0 -0.46358039080E+02  0.49771251425E+02 -0.41936078737E+03  0.43560516576E+03  0.96240039478E+02 0.  0.
          5    1    4    4  502    0 -0.13121887059E+02  0.44976264060E+02 -0.38301560533E+03  0.38589906993E+03  0.47000000000E+01 0. -1.
         -5    1    4    4    0  502 -0.33236152021E+02  0.47949873649E+01 -0.36345182040E+02  0.49706095828E+02  0.47000000000E+01 0.  1.
          5    1    3    3  503    0  0.32029882055E+02 -0.37137348167E+00 -0.14413012564E+03  0.14772147569E+03  0.47000000000E+01 0. -1.
         -5    1    3    3    0  503  0.14328157025E+02 -0.49399877943E+02 -0.29040515663E+02  0.59254413967E+02  0.47000000000E+01 0.  1.
<mgrwt>
<rscale>  0 0.11671089E+03</rscale>
<asrwt>0</asrwt>
<pdfrwt beam="1">  1        1 0.95008652E-01 0.11784902E+03</pdfrwt>
<pdfrwt beam="2">  1       -1 0.38499713E-02 0.11784902E+03</pdfrwt>
<totfact> 0.83525456E+03</totfact>
</mgrwt>
</event>
<event>
 8    1  0.9456677E-004  0.1012047E+03  0.7546771E-02  0.1278324E+00
          1   -1    0    0  501    0  0.00000000000E+00  0.00000000000E+00  0.90704575769E+02  0.90704575769E+02  0.00000000000E+00 0. -1.
         -1   -1    0    0    0  501 -0.00000000000E+00 -0.00000000000E+00 -0.12487732816E+03  0.12487732816E+03  0.00000000000E+00 0.  1.
         23    2    1    2    0    0 -0.24720189839E+02  0.16238891072E+02 -0.51939426351E+02  0.11282958892E+03  0.95697558786E+02 0.  0.
         23    2    1    2    0    0  0.24720189839E+02 -0.16238891072E+02  0.17766673960E+02  0.10275231501E+03  0.96786332543E+02 0.  0.
          5    1    3    3  502    0  0.19427490311E+02 -0.20085297841E+02  0.84193983267E+01  0.29560494538E+02  0.47000000000E+01 0. -1.
         -5    1    3    3    0  502 -0.44147680150E+02  0.36324188914E+02 -0.60358824678E+02  0.83269094383E+02  0.47000000000E+01 0.  1.
          5    1    4    4  503    0  0.47124328519E+02  0.23716377927E+02  0.20086142966E+02  0.56645494610E+02  0.47000000000E+01 0. -1.
         -5    1    4    4    0  503 -0.22404138680E+02 -0.39955269000E+02 -0.23194690062E+01  0.46106820399E+02  0.47000000000E+01 0.  1.
<mgrwt>
<rscale>  0 0.10094347E+03</rscale>
<asrwt>0</asrwt>
<pdfrwt beam="1">  1        1 0.13954550E-01 0.10120466E+03</pdfrwt>
<pdfrwt beam="2">  1       -1 0.19211896E-01 0.10120466E+03</pdfrwt>
<totfact> 0.81366216E+03</totfact>
</mgrwt>
</event>
<event>
 8    1  0.9456677E-004  0.9671015E+02  0.7546771E-02  0.1294626E+00
          1   -1    0    0  501    0  0.00000000000E+00  0.00000000000E+00  0.12205437254E+03  0.12205437254E+03  0.00000000000E+00 0. -1.
         -1   -1    0    0    0  501 -0.00000000000E+00 -0.00000000000E+00 -0.99237108159E+02  0.99237108159E+02  0.00000000000E+00 0.  1.
         23    2    1    2    0    0  0.32717914534E+01 -0.14656937457E+02 -0.51870924943E+02  0.99098277086E+02  0.83092389736E+02 0.  0.
         23    2    1    2    0    0 -0.32717914534E+01  0.14656937457E+02  0.74688189324E+02  0.12219320361E+03  0.95537023974E+02 0.  0.
          5    1    4    4  502    0  0.12747191285E+02  0.42157719691E+02  0.78157223645E+02  0.89835437457E+02  0.47000000000E+01 0. -1.
         -5    1    3    3    0  503 -0.11082454818E+02 -0.30152175470E+02  0.96602828688E+01  0.33873080100E+02  0.47000000000E+01 0.  1.
          5    1    3    3  503    0  0.14354246271E+02  0.15495238013E+02 -0.61531207812E+02  0.65225196986E+02  0.47000000000E+01 0. -1.
         -5    1    4    4    0  502 -0.16018982738E+02 -0.27500782234E+02 -0.34690343216E+01  0.32357766156E+02  0.47000000000E+01 0.  1.
<mgrwt>
<rscale>  0 0.93484432E+02</rscale>
<asrwt>0</asrwt>
<pdfrwt beam="1">  1        1 0.18777596E-01 0.96710151E+02</pdfrwt>
<pdfrwt beam="2">  1       -1 0.15267247E-01 0.96710151E+02</pdfrwt>
<totfact> 0.79620440E+03</totfact>
</mgrwt>
</event>
<event>
 8    1  0.9456677E-004  0.9464371E+02  0.7546771E-02  0.1293366E+00
         -1   -1    0    0    0  501 -0.00000000000E+00  0.00000000000E+00  0.33006502325E+03  0.33006502325E+03  0.00000000000E+00 0.  1.
          1   -1    0    0  501    0  0.00000000000E+00 -0.00000000000E+00 -0.31581665387E+02  0.31581665387E+02  0.00000000000E+00 0. -1.
         23    2    1    2    0    0  0.15722118722E+02  0.14739492864E+02  0.22373656754E+03  0.24293102546E+03  0.92157440350E+02 0.  0.
         23    2    1    2    0    0 -0.15722118722E+02 -0.14739492864E+02  0.74746790326E+02  0.11871566318E+03  0.89676576385E+02 0.  0.
          5    1    3    3  502    0 -0.21713035048E+02 -0.27842897298E+02  0.11226812048E+03  0.11778329125E+03  0.47000000000E+01 0. -1.
         -5    1    4    4    0  503 -0.60309821301E+00  0.36000780963E+02  0.44937091141E+02  0.57774147485E+02  0.47000000000E+01 0.  1.
          5    1    4    4  503    0 -0.15119020509E+02 -0.50740273827E+02  0.29809699185E+02  0.60941515691E+02  0.47000000000E+01 0. -1.
         -5    1    3    3    0  502  0.37435153771E+02  0.42582390162E+02  0.11146844705E+03  0.12514773421E+03  0.47000000000E+01 0.  1.
<mgrwt>
<rscale>  0 0.94034358E+02</rscale>
<asrwt>0</asrwt>
<pdfrwt beam="1">  1        1 0.48587180E-02 0.94643708E+02</pdfrwt>
<pdfrwt beam="2">  1       -1 0.50779232E-01 0.94643708E+02</pdfrwt>
<totfact> 0.63736891E+03</totfact>
</mgrwt>
</event>
<event>
 8    1  0.9456677E-004  0.2220079E+03  0.7546771E-02  0.1132479E+00
          1   -1    0    0  501    0  0.00000000000E+00  0.00000000000E+00  0.10492765413E+04  0.10492765413E+04  0.00000000000E+00 0. -1.
         -1   -1    0    0    0  501 -0.00000000000E+00 -0.00000000000E+00 -0.88557727638E+02  0.88557727638E+02  0.00000000000E+00 0.  1.
         23    2    1    2    0    0 -0.16194771244E+03 -0.12117862633E+03  0.87093015147E+03  0.89878074261E+03  0.91521437361E+02 0.  0.
         23    2    1    2    0    0  0.16194771244E+03  0.12117862633E+03  0.89788662184E+02  0.23905352632E+03  0.90406103481E+02 0.  0.
          5    1    4    4  502    0  0.14964273685E+02  0.21804329598E+02  0.50607504872E+02  0.57293697956E+02  0.47000000000E+01 0. -1.
         -5    1    4    4    0  502  0.14698343876E+03  0.99374296731E+02  0.39181157312E+02  0.18175982837E+03  0.47000000000E+01 0.  1.
          5    1    3    3  503    0 -0.10303665465E+03 -0.10374316262E+03  0.73669056410E+03  0.75107541114E+03  0.47000000000E+01 0. -1.
         -5    1    3    3    0  503 -0.58911057795E+02 -0.17435463710E+02  0.13423958737E+03  0.14770533147E+03  0.47000000000E+01 0.  1.
<mgrwt>
<rscale>  0 0.22189342E+03</rscale>
<asrwt>0</asrwt>
<pdfrwt beam="1">  1        1 0.16142715E+00 0.22200787E+03</pdfrwt>
<pdfrwt beam="2">  1       -1 0.13624266E-01 0.22200787E+03</pdfrwt>
<totfact> 0.55535423E+02</totfact>
</mgrwt>
</event>
<event>
 8    1  0.9456677E-004  0.9500644E+02  0.7546771E-02  0.1291726E+00
          2   -1    0    0  501    0  0.00000000000E+00  0.00000000000E+00  0.57057271029E+02  0.57057271029E+02  0.00000000000E+00 0. -1.
         -2   -1    0    0    0  501 -0.00000000000E+00 -0.00000000000E+00 -0.16855646209E+03  0.16855646209E+03  0.00000000000E+00 0.  1.
         23    2    1    2    0    0  0.68881827607E+01  0.23059662540E+02 -0.25905046295E+02  0.98474843639E+02  0.91907716259E+02 0.  0.
         23    2    1    2    0    0 -0.68881827607E+01 -0.23059662540E+02 -0.85594144766E+02  0.12713888948E+03  0.90877634773E+02 0.  0.
          5    1    4    4  502    0 -0.11988823245E+02 -0.44547262769E+02 -0.89355921912E+01  0.47224202596E+02  0.47000000000E+01 0. -1.
         -5    1    3    3    0  503 -0.37724955403E+02 -0.88668410140E+01 -0.17484018319E+02  0.42773520153E+02  0.47000000000E+01 0.  1.
          5    1    3    3  503    0  0.44613138163E+02  0.31926503554E+02 -0.84210279761E+01  0.55701323486E+02  0.47000000000E+01 0. -1.
         -5    1    4    4    0  502  0.51006404841E+01  0.21487600230E+02 -0.76658552575E+02  0.79914686884E+02  0.47000000000E+01 0.  1.
<mgrwt>
<rscale>  0 0.94756423E+02</rscale>
<asrwt>0</asrwt>
<pdfrwt beam="1">  1        2 0.87780418E-02 0.95006439E+02</pdfrwt>
<pdfrwt beam="2">  1       -2 0.25931763E-01 0.95006439E+02</pdfrwt>
<totfact> 0.91455237E+03</totfact>
</mgrwt>
</event>
<event>
 8    1  0.9456677E-004  0.1838574E+03  0.7546771E-02  0.1164674E+00
         -2   -1    0    0    0  501 -0.00000000000E+00  0.00000000000E+00  0.41315475149E+02  0.41315475149E+02  0.00000000000E+00 0.  1.
          2   -1    0    0  501    0  0.00000000000E+00 -0.00000000000E+00 -0.82372843984E+03  0.82372843984E+03  0.00000000000E+00 0. -1.
         23    2    1    2    0    0  0.10857718457E+03 -0.11396479158E+03 -0.32866985259E+03  0.37546619185E+03  0.90410234460E+02 0.  0.
         23    2    1    2    0    0 -0.10857718457E+03  0.11396479158E+03 -0.45374311211E+03  0.48957772314E+03  0.95008191668E+02 0.  0.
          5    1    4    4  502    0 -0.46849971554E+02  0.42126062951E+02 -0.31658698803E+03  0.32282957734E+03  0.47000000000E+01 0. -1.
         -5    1    4    4    0  502 -0.61727213012E+02  0.71838728626E+02 -0.13715612407E+03  0.16674814580E+03  0.47000000000E+01 0.  1.
          5    1    3    3  503    0  0.86298179434E+01 -0.62119220651E+02 -0.16653088231E+03  0.17801094375E+03  0.47000000000E+01 0. -1.
         -5    1    3    3    0  503  0.99947366623E+02 -0.51845570926E+02 -0.16213897028E+03  0.19745524810E+03  0.47000000000E+01 0.  1.
<mgrwt>
<rscale>  0 0.18327125E+03</rscale>
<asrwt>0</asrwt>
<pdfrwt beam="1">  1        2 0.12672745E+00 0.18385738E+03</pdfrwt>
<pdfrwt beam="2">  1       -2 0.63562271E-02 0.18385738E+03</pdfrwt>
<totfact> 0.45553166E+03</totfact>
</mgrwt>
</event>
<event>
 8    1  0.9456677E-004  0.1324043E+03  0.7546771E-02  0.1224113E+00
          3   -1    0    0  501    0  0.00000000000E+00  0.00000000000E+00  0.17321418865E+03  0.17321418865E+03  0.00000000000E+00 0. -1.
         -3   -1    0    0    0  501 -0.00000000000E+00 -0.00000000000E+00 -0.10230263162E+03  0.10230263162E+03  0.00000000000E+00 0.  1.
         23    2    1    2    0    0  0.77434391834E+02 -0.55017053861E+02  0.52068184499E+02  0.14227433325E+03  0.92238434563E+02 0.  0.
         23    2    1    2    0    0 -0.77434391834E+02  0.55017053861E+02  0.18843372524E+02  0.13324248702E+03  0.91517902099E+02 0.  0.
          5    1    3    3  502    0  0.39916336794E+02 -0.77007632577E+02  0.23352035088E+02  0.89949413343E+02  0.47000000000E+01 0. -1.
         -5    1    4    4    0  503 -0.63721141563E+02  0.80175862058E+02  0.10654798119E+02  0.10307360216E+03  0.47000000000E+01 0.  1.
          5    1    4    4  503    0 -0.13713250271E+02 -0.25158808198E+02  0.81885744046E+01  0.30168884860E+02  0.47000000000E+01 0. -1.
         -5    1    3    3    0  502  0.37518055040E+02  0.21990578716E+02  0.28716149411E+02  0.52324919907E+02  0.47000000000E+01 0.  1.
<mgrwt>
<rscale>  0 0.13227885E+03</rscale>
<asrwt>0</asrwt>
<pdfrwt beam="1">  1        3 0.26648337E-01 0.13240427E+03</pdfrwt>
<pdfrwt beam="2">  1       -3 0.15738866E-01 0.13240427E+03</pdfrwt>
<totfact> 0.10485116E+03</totfact>
</mgrwt>
</event>
<event>
 8    1  0.9456677E-004  0.9480392E+02  0.7546771E-02  0.1292492E+00
         -2   -1    0    0    0  501 -0.00000000000E+00  0.00000000000E+00  0.16389573429E+02  0.16389573429E+02  0.00000000000E+00 0.  1.
          2   -1    0    0  501    0  0.00000000000E+00 -0.00000000000E+00 -0.67713490990E+03  0.67713490990E+03  0.00000000000E+00 0. -1.
         23    2    1    2    0    0  0.76342421004E+01 -0.17320128603E+02 -0.17621587391E+03  0.20009951768E+03  0.92895178831E+02 0.  0.
         23    2    1    2    0    0 -0.76342421004E+01  0.17320128603E+02 -0.48452946257E+03  0.49342496566E+03  0.91329776796E+02 0.  0.
          5    1    3    3  502    0 -0.38484166564E+02 -0.11150059688E+01 -0.11648742371E+03  0.12277493310E+03  0.47000000000E+01 0. -1.
         -5    1    3    3    0  502  0.46118408664E+02 -0.16205122635E+02 -0.59728450197E+02  0.77324584579E+02  0.47000000000E+01 0.  1.
          5    1    4    4  503    0  0.12788522414E+02  0.43549274762E+02 -0.39805553890E+03  0.40066243608E+03  0.47000000000E+01 0. -1.
         -5    1    4    4    0  503 -0.20422764514E+02 -0.26229146159E+02 -0.86473923665E+02  0.92762529572E+02  0.47000000000E+01 0.  1.
<mgrwt>
<rscale>  0 0.94418230E+02</rscale>
<asrwt>0</asrwt>
<pdfrwt beam="1">  1        2 0.10417459E+00 0.94803917E+02</pdfrwt>
<pdfrwt beam="2">  1       -2 0.25214732E-02 0.94803917E+02</pdfrwt>
<totfact> 0.21899180E+04</totfact>
</mgrwt>
</event>
<event>
 8    1  0.9456677E-004  0.1252993E+03  0.7546771E-02  0.1235755E+00
          1   -1    0    0  501    0  0.00000000000E+00  0.00000000000E+00  0.30943114292E+03  0.30943114292E+03  0.00000000000E+00 0. -1.
         -1   -1    0    0    0  501 -0.00000000000E+00 -0.00000000000E+00 -0.49589128882E+02  0.49589128882E+02  0.00000000000E+00 0.  1.
         23    2    1    2    0    0 -0.70056648195E+02 -0.48405175113E+02  0.13262295720E+03  0.18045765614E+03  0.87892672913E+02 0.  0.
         23    2    1    2    0    0  0.70056648195E+02  0.48405175113E+02  0.12721905685E+03  0.17856261566E+03  0.91918030617E+02 0.  0.
          5    1    3    3  502    0 -0.15197989451E+02 -0.63057889699E+02  0.77635417178E+02  0.10127499364E+03  0.47000000000E+01 0. -1.
         -5    1    3    3    0  502 -0.54858658744E+02  0.14652714585E+02  0.54987540017E+02  0.79182662503E+02  0.47000000000E+01 0.  1.
          5    1    4    4  503    0  0.40814947029E+02  0.51424991827E+02  0.13285209232E+03  0.14826381257E+03  0.47000000000E+01 0. -1.
         -5    1    4    4    0  503  0.29241701166E+02 -0.30198167137E+01 -0.56330354691E+01  0.30298803090E+02  0.47000000000E+01 0.  1.
<mgrwt>
<rscale>  0 0.12456225E+03</rscale>
<asrwt>0</asrwt>
<pdfrwt beam="1">  1        1 0.47604790E-01 0.12529932E+03</pdfrwt>
<pdfrwt beam="2">  1       -1 0.76290970E-02 0.12529932E+03</pdfrwt>
<totfact> 0.73830701E+03</totfact>
</mgrwt>
</event>
<event>
 8    1  0.9456677E-004  0.9754136E+02  0.7546771E-02  0.1286620E+00
          1   -1    0    0  501    0  0.00000000000E+00  0.00000000000E+00  0.33199869483E+02  0.33199869483E+02  0.00000000000E+00 0. -1.
         -1   -1    0    0    0  501 -0.00000000000E+00 -0.00000000000E+00 -0.34379242024E+03  0.34379242024E+03  0.00000000000E+00 0.  1.
         23    2    1    2    0    0 -0.25732347495E+02  0.14303615903E+02 -0.73402077086E+02  0.12052857449E+03  0.90953423317E+02 0.  0.
         23    2    1    2    0    0  0.25732347495E+02 -0.14303615903E+02 -0.23719047367E+03  0.25646371523E+03  0.92992307715E+02 0.  0.
          5    1    3    3  502    0  0.31459634314E+02  0.14728356394E+02 -0.43351945123E+02  0.55750463847E+02  0.47000000000E+01 0. -1.
         -5    1    4    4    0  503  0.67964218077E+01  0.29436542314E+02 -0.17661383796E+03  0.17924072955E+03  0.47000000000E+01 0.  1.
          5    1    4    4  503    0  0.18935925687E+02 -0.43740158217E+02 -0.60576635712E+02  0.77222985676E+02  0.47000000000E+01 0. -1.
         -5    1    3    3    0  502 -0.57191981809E+02 -0.42474049079E+00 -0.30050131964E+02  0.64778110646E+02  0.47000000000E+01 0.  1.
<mgrwt>
<rscale>  0 0.97052237E+02</rscale>
<asrwt>0</asrwt>
<pdfrwt beam="1">  1        1 0.51076725E-02 0.97541358E+02</pdfrwt>
<pdfrwt beam="2">  1       -1 0.52891139E-01 0.97541358E+02</pdfrwt>
<totfact> 0.55445722E+03</totfact>
</mgrwt>
</event>
<event>
 8    1  0.9456677E-004  0.9972799E+02  0.7546771E-02  0.1281152E+00
          3   -1    0    0  501    0  0.00000000000E+00  0.00000000000E+00  0.52579248955E+02  0.52579248955E+02  0.00000000000E+00 0. -1.
         -3   -1    0    0    0  501 -0.00000000000E+00 -0.00000000000E+00 -0.18814197764E+03  0.18814197764E+03  0.00000000000E+00 0.  1.
         23    2    1    2    0    0  0.41563658386E+02 -0.44921226713E+01 -0.68100287888E+02  0.12076142312E+03  0.90542560369E+02 0.  0.
         23    2    1    2    0    0 -0.41563658386E+02  0.44921226713E+01 -0.67462440792E+02  0.11995980347E+03  0.89952524518E+02 0.  0.
          5    1    4    4  502    0 -0.38033426332E+02  0.35054214734E+02 -0.75991796229E+01  0.52489780149E+02  0.47000000000E+01 0. -1.
         -5    1    4    4    0  502 -0.35302320541E+01 -0.30562092063E+02 -0.59863261169E+02  0.67470023324E+02  0.47000000000E+01 0.  1.
          5    1    3    3  503    0  0.18515735275E+02 -0.39098367720E+02 -0.65757711353E+02  0.78852275894E+02  0.47000000000E+01 0.  1.
         -5    1    3    3    0  503  0.23047923111E+02  0.34606245049E+02 -0.23425765350E+01  0.41909147223E+02  0.47000000000E+01 0. -1.
<mgrwt>
<rscale>  0 0.99593875E+02</rscale>
<asrwt>0</asrwt>
<pdfrwt beam="1">  1        3 0.80891151E-02 0.99727991E+02</pdfrwt>
<pdfrwt beam="2">  1       -3 0.28944920E-01 0.99727991E+02</pdfrwt>
<totfact> 0.25918067E+03</totfact>
</mgrwt>
</event>
<event>
 8    1  0.9456677E-004  0.1490807E+03  0.7546771E-02  0.1201633E+00
         -1   -1    0    0    0  501 -0.00000000000E+00  0.00000000000E+00  0.27313628094E+02  0.27313628094E+02  0.00000000000E+00 0.  1.
          1   -1    0    0  501    0  0.00000000000E+00 -0.00000000000E+00 -0.81510241100E+03  0.81510241100E+03  0.00000000000E+00 0. -1.
         23    2    1    2    0    0 -0.80019150456E+02  0.85906114202E+02 -0.37384996094E+03  0.40247839251E+03  0.91881109265E+02 0.  0.
         23    2    1    2    0    0  0.80019150456E+02 -0.85906114202E+02 -0.41393882196E+03  0.43993764658E+03  0.91743444786E+02 0.  0.
          5    1    4    4  502    0  0.12121204464E+02 -0.77163767072E+02 -0.18321671724E+03  0.19922757345E+03  0.47000000000E+01 0. -1.
         -5    1    4    4    0  502  0.67897945992E+02 -0.87423471302E+01 -0.23072210471E+03  0.24071007313E+03  0.47000000000E+01 0.  1.
          5    1    3    3  503    0 -0.67211661279E+02  0.46956446056E+02 -0.33793057122E+03  0.34776641040E+03  0.47000000000E+01 0. -1.
         -5    1    3    3    0  503 -0.12807489177E+02  0.38949668146E+02 -0.35919389722E+02  0.54711982103E+02  0.47000000000E+01 0.  1.
<mgrwt>
<rscale>  0 0.14905952E+03</rscale>
<asrwt>0</asrwt>
<pdfrwt beam="1">  1        1 0.12540036E+00 0.14908073E+03</pdfrwt>
<pdfrwt beam="2">  1       -1 0.42020971E-02 0.14908073E+03</pdfrwt>
<totfact> 0.49911269E+03</totfact>
</mgrwt>
</event>
<event>
 8    1  0.9456677E-004  0.9331379E+02  0.7546771E-02  0.1295269E+00
          1   -1    0    0  501    0  0.00000000000E+00  0.00000000000E+00  0.29852454255E+03  0.29852454255E+03  0.00000000000E+00 0. -1.
         -1   -1    0    0    0  501 -0.00000000000E+00 -0.00000000000E+00 -0.31176624511E+02  0.31176624511E+02  0.00000000000E+00 0.  1.
         23    2    1    2    0    0 -0.18489593714E+02  0.10085357027E+02  0.90744410472E+02  0.13016148240E+03  0.90905907221E+02 0.  0.
         23    2    1    2    0    0  0.18489593714E+02 -0.10085357027E+02  0.17660350757E+03  0.19953968466E+03  0.90463845630E+02 0.  0.
          5    1    3    3  502    0 -0.26372166500E+02 -0.23584898673E+02  0.31006471883E+01  0.35825167471E+02  0.47000000000E+01 0. -1.
         -5    1    3    3    0  502  0.78825727866E+01  0.33670255700E+02  0.87643763284E+02  0.94336314934E+02  0.47000000000E+01 0.  1.
          5    1    4    4  503    0  0.43367483191E+02  0.19728034132E+02  0.13092398633E+03  0.13940270488E+03  0.47000000000E+01 0. -1.
         -5    1    4    4    0  503 -0.24877889477E+02 -0.29813391159E+02  0.45679521233E+02  0.60136979782E+02  0.47000000000E+01 0.  1.
<mgrwt>
<rscale>  0 0.93205953E+02</rscale>
<asrwt>0</asrwt>
<pdfrwt beam="1">  1        1 0.45926851E-01 0.93313790E+02</pdfrwt>
<pdfrwt beam="2">  1       -1 0.47964040E-02 0.93313790E+02</pdfrwt>
<totfact> 0.14974425E+04</totfact>
</mgrwt>
</event>
<event>
 8    1  0.9456677E-004  0.1042676E+03  0.7546771E-02  0.1274157E+00
          1   -1    0    0  501    0  0.00000000000E+00  0.00000000000E+00  0.12155258969E+03  0.12155258969E+03  0.00000000000E+00 0. -1.
         -1   -1    0    0    0  501 -0.00000000000E+00 -0.00000000000E+00 -0.91473224755E+02  0.91473224755E+02  0.00000000000E+00 0.  1.
         23    2    1    2    0    0 -0.42240289680E+02 -0.47973580571E+01 -0.12613116290E+02  0.10502776921E+03  0.95207588380E+02 0.  0.
         23    2    1    2    0    0  0.42240289680E+02  0.47973580571E+01  0.42692481223E+02  0.10799804524E+03  0.89630759816E+02 0.  0.
          5    1    4    4  502    0  0.21937751979E+02  0.17200224421E+02  0.67576430541E+02  0.73251461738E+02  0.47000000000E+01 0. -1.
         -5    1    3    3    0  503 -0.34881903040E+02 -0.41358189737E+02  0.17291638866E+02  0.56994190868E+02  0.47000000000E+01 0.  1.
          5    1    3    3  503    0 -0.73583866406E+01  0.36560831680E+02 -0.29904755156E+02  0.48033578338E+02  0.47000000000E+01 0. -1.
         -5    1    4    4    0  502  0.20302537702E+02 -0.12402866364E+02 -0.24883949318E+02  0.34746583499E+02  0.47000000000E+01 0.  1.
<mgrwt>
<rscale>  0 0.10297734E+03</rscale>
<asrwt>0</asrwt>
<pdfrwt beam="1">  1        1 0.18700398E-01 0.10426764E+03</pdfrwt>
<pdfrwt beam="2">  1       -1 0.14072804E-01 0.10426764E+03</pdfrwt>
<totfact> 0.91408121E+03</totfact>
</mgrwt>
</event>
<event>
 8    1  0.9456677E-004  0.1033743E+03  0.7546771E-02  0.1273787E+00
          2   -1    0    0  501    0  0.00000000000E+00  0.00000000000E+00  0.51889765777E+03  0.51889765777E+03  0.00000000000E+00 0. -1.
         -2   -1    0    0    0  501 -0.00000000000E+00 -0.00000000000E+00 -0.22969093465E+02  0.22969093465E+02  0.00000000000E+00 0.  1.
         23    2    1    2    0    0  0.43312417954E+02  0.16746879234E+02  0.15687297387E+03  0.18740246442E+03  0.91400931222E+02 0.  0.
         23    2    1    2    0    0 -0.43312417954E+02 -0.16746879234E+02  0.33905559044E+03  0.35446428681E+03  0.92356990562E+02 0.  0.
          5    1    3    3  502    0 -0.12743978165E+02 -0.17960605904E+02  0.92264122836E+02  0.94972368122E+02  0.47000000000E+01 0. -1.
         -5    1    4    4    0  503 -0.42273993490E+02  0.11466301006E+02  0.62688892118E+02  0.76619539149E+02  0.47000000000E+01 0.  1.
          5    1    4    4  503    0 -0.10384244638E+01 -0.28213180240E+02  0.27636669832E+03  0.27784474766E+03  0.47000000000E+01 0. -1.
         -5    1    3    3    0  502  0.56056396119E+02  0.34707485138E+02  0.64608851030E+02  0.92430096299E+02  0.47000000000E+01 0.  1.
<mgrwt>
<rscale>  0 0.10316028E+03</rscale>
<asrwt>0</asrwt>
<pdfrwt beam="1">  1        2 0.79830400E-01 0.10337426E+03</pdfrwt>
<pdfrwt beam="2">  1       -2 0.35337071E-02 0.10337426E+03</pdfrwt>
<totfact> 0.18195818E+04</totfact>
</mgrwt>
</event>
<event>
 8    1  0.9456677E-004  0.9240362E+02  0.7546771E-02  0.1297355E+00
         -2   -1    0    0    0  501 -0.00000000000E+00  0.00000000000E+00  0.60285178957E+02  0.60285178957E+02  0.00000000000E+00 0.  1.
          2   -1    0    0  501    0  0.00000000000E+00 -0.00000000000E+00 -0.14426149284E+03  0.14426149284E+03  0.00000000000E+00 0. -1.
         23    2    1    2    0    0  0.16172233284E+01 -0.16388659174E+02 -0.57324976912E+02  0.10874089352E+03  0.90924283802E+02 0.  0.
         23    2    1    2    0    0 -0.16172233284E+01  0.16388659174E+02 -0.26651336965E+02  0.95805778271E+02  0.90538664820E+02 0.  0.
          5    1    4    4  502    0 -0.41777125608E+02 -0.30219602414E+01 -0.28559240553E+02  0.50913462745E+02  0.47000000000E+01 0. -1.
         -5    1    4    4    0  502  0.40159902279E+02  0.19410619416E+02  0.19079035878E+01  0.44892315526E+02  0.47000000000E+01 0.  1.
          5    1    3    3  503    0 -0.13242645736E+02  0.35398604566E+02 -0.19886399104E+02  0.42964959451E+02  0.47000000000E+01 0. -1.
         -5    1    3    3    0  503  0.14859869065E+02 -0.51787263741E+02 -0.37438577809E+02  0.65775934069E+02  0.47000000000E+01 0.  1.
<mgrwt>
<rscale>  0 0.92308618E+02</rscale>
<asrwt>0</asrwt>
<pdfrwt beam="1">  1        2 0.22194076E-01 0.92403620E+02</pdfrwt>
<pdfrwt beam="2">  1       -2 0.92746430E-02 0.92403620E+02</pdfrwt>
<totfact> 0.16528459E+04</totfact>
</mgrwt>
</event>
<event>
 8    1  0.9456677E-004  0.9445971E+02  0.7546771E-02  0.1292604E+00
          1   -1    0    0  501    0  0.00000000000E+00  0.00000000000E+00  0.18707429263E+02  0.18707429263E+02  0.00000000000E+00 0. -1.
         -1   -1    0    0    0  501 -0.00000000000E+00 -0.00000000000E+00 -0.66409194710E+03  0.66409194710E+03  0.00000000000E+00 0.  1.
         23    2    1    2    0    0  0.18467886898E+02 -0.49393920918E+00 -0.14102485339E+03  0.16973699282E+03  0.92635471793E+02 0.  0.
         23    2    1    2    0    0 -0.18467886898E+02  0.49393920918E+00 -0.50435966444E+03  0.51306238354E+03  0.92266090560E+02 0.  0.
          5    1    4    4  502    0  0.21639603701E+02 -0.21674327318E+02 -0.73741465127E+02  0.79987140167E+02  0.47000000000E+01 0. -1.
         -5    1    3    3    0  503  0.51592006660E+02  0.17812606055E+02 -0.67710199199E+02  0.87096413022E+02  0.47000000000E+01 0.  1.
          5    1    3    3  503    0 -0.33124119763E+02 -0.18306545265E+02 -0.73314654193E+02  0.82640579796E+02  0.47000000000E+01 0. -1.
         -5    1    4    4    0  502 -0.40107490598E+02  0.22168266527E+02 -0.43061819932E+03  0.43307524338E+03  0.47000000000E+01 0.  1.
<mgrwt>
<rscale>  0 0.94369028E+02</rscale>
<asrwt>0</asrwt>
<pdfrwt beam="1">  1        1 0.28780657E-02 0.94459713E+02</pdfrwt>
<pdfrwt beam="2">  1       -1 0.10216800E+00 0.94459713E+02</pdfrwt>
<totfact> 0.32577118E+03</totfact>
</mgrwt>
</event>
<event>
 8    1  0.9456677E-004  0.1491803E+03  0.7546771E-02  0.1203156E+00
         -1   -1    0    0    0  501 -0.00000000000E+00  0.00000000000E+00  0.21014671377E+03  0.21014671377E+03  0.00000000000E+00 0.  1.
          1   -1    0    0  501    0  0.00000000000E+00 -0.00000000000E+00 -0.22484286244E+03  0.22484286244E+03  0.00000000000E+00 0. -1.
         23    2    1    2    0    0  0.76784924028E+01 -0.11672477692E+03 -0.16804577635E+03  0.22470902437E+03  0.92580396914E+02 0.  0.
         23    2    1    2    0    0 -0.76784924028E+01  0.11672477692E+03  0.15334962768E+03  0.21028055184E+03  0.83774515075E+02 0.  0.
          5    1    3    3  502    0  0.19942130126E+02  0.83355835540E+01 -0.36869035837E+02  0.42995189391E+02  0.47000000000E+01 0.  1.
         -5    1    4    4    0  503  0.12528935707E+02  0.94997457543E+02  0.15257403886E+03  0.18022879488E+03  0.47000000000E+01 0.  1.
          5    1    4    4  503    0 -0.20207428110E+02  0.21727319382E+02  0.77558882710E+00  0.30051756960E+02  0.47000000000E+01 0. -1.
         -5    1    3    3    0  502 -0.12263637723E+02 -0.12506036048E+03 -0.13117674051E+03  0.18171383498E+03  0.47000000000E+01 0. -1.
<mgrwt>
<rscale>  0 0.14783751E+03</rscale>
<asrwt>0</asrwt>
<pdfrwt beam="1">  1        1 0.34591210E-01 0.14918030E+03</pdfrwt>
<pdfrwt beam="2">  1       -1 0.32330264E-01 0.14918030E+03</pdfrwt>
<totfact> 0.11245632E+03</totfact>
</mgrwt>
</event>
<event>
 8    1  0.9456677E-004  0.1265626E+03  0.7546771E-02  0.1232886E+00
          1   -1    0    0  501    0  0.00000000000E+00  0.00000000000E+00  0.22418992568E+02  0.22418992568E+02  0.00000000000E+00 0. -1.
         -1   -1    0    0    0  501 -0.00000000000E+00 -0.00000000000E+00 -0.72800702668E+03  0.72800702668E+03  0.00000000000E+00 0.  1.
         23    2    1    2    0    0  0.83628125975E+02 -0.64571085912E+01 -0.41100386391E+03  0.43004913466E+03  0.94777235476E+02 0.  0.
         23    2    1    2    0    0 -0.83628125975E+02  0.64571085912E+01 -0.29458417020E+03  0.32037688459E+03  0.93947629783E+02 0.  0.
          5    1    4    4  502    0 -0.99422952037E+02 -0.97225671778E+01 -0.26200295703E+03  0.28044088717E+03  0.47000000000E+01 0. -1.
         -5    1    3    3    0  503  0.73091720994E+02 -0.45218918372E+02 -0.27433046252E+03  0.28751772628E+03  0.47000000000E+01 0.  1.
          5    1    3    3  503    0  0.10536404981E+02  0.38761809780E+02 -0.13667340139E+03  0.14253140838E+03  0.47000000000E+01 0. -1.
         -5    1    4    4    0  502  0.15794826062E+02  0.16179675769E+02 -0.32581213172E+02  0.39935997422E+02  0.47000000000E+01 0.  1.
<mgrwt>
<rscale>  0 0.12640726E+03</rscale>
<asrwt>0</asrwt>
<pdfrwt beam="1">  1        1 0.34490759E-02 0.12656256E+03</pdfrwt>
<pdfrwt beam="2">  1       -1 0.11200108E+00 0.12656256E+03</pdfrwt>
<totfact> 0.21047645E+03</totfact>
</mgrwt>
</event>
<event>
 8    1  0.9456677E-004  0.3028930E+03  0.7546771E-02  0.1083993E+00
          2   -1    0    0  501    0  0.00000000000E+00  0.00000000000E+00  0.19397666905E+03  0.19397666905E+03  0.00000000000E+00 0. -1.
         -2   -1    0    0    0  501 -0.00000000000E+00 -0.00000000000E+00 -0.49242165564E+03  0.49242165564E+03  0.00000000000E+00 0.  1.
         23    2    1    2    0    0  0.24574975830E+03 -0.15268948699E+03 -0.22187528464E+03  0.37546346934E+03  0.89650163066E+02 0.  0.
         23    2    1    2    0    0 -0.24574975830E+03  0.15268948699E+03 -0.76569701958E+02  0.31093485534E+03  0.84324029008E+02 0.  0.
          5    1    4    4  502    0 -0.21418704686E+03  0.13825606922E+03 -0.94078897854E+02  0.27177888208E+03  0.47000000000E+01 0. -1.
         -5    1    3    3    0  503  0.20897365356E+03 -0.97520032919E+02 -0.20056575920E+03  0.30566134605E+03  0.47000000000E+01 0.  1.
          5    1    3    3  503    0  0.36776104736E+02 -0.55169454074E+02 -0.21309525434E+02  0.69802123296E+02  0.47000000000E+01 0. -1.
         -5    1    4    4    0  502 -0.31562711434E+02  0.14433417770E+02  0.17509195896E+02  0.39155973268E+02  0.47000000000E+01 0.  1.
<mgrwt>
<rscale>  0 0.30250891E+03</rscale>
<asrwt>0</asrwt>
<pdfrwt beam="1">  1        2 0.29842564E-01 0.30289301E+03</pdfrwt>
<pdfrwt beam="2">  1       -2 0.75757179E-01 0.30289301E+03</pdfrwt>
<totfact> 0.28454284E+02</totfact>
</mgrwt>
</event>
<event>
 8    1  0.9456677E-004  0.1320170E+03  0.7546771E-02  0.1224501E+00
          1   -1    0    0  501    0  0.00000000000E+00  0.00000000000E+00  0.45806115561E+03  0.45806115561E+03  0.00000000000E+00 0. -1.
         -1   -1    0    0    0  501 -0.00000000000E+00 -0.00000000000E+00 -0.38188691477E+02  0.38188691477E+02  0.00000000000E+00 0.  1.
         23    2    1    2    0    0  0.80763561712E+02 -0.49001449211E+02  0.22527818622E+03  0.26110004517E+03  0.92190441342E+02 0.  0.
         23    2    1    2    0    0 -0.80763561712E+02  0.49001449211E+02  0.19459427791E+03  0.23514980192E+03  0.92220395902E+02 0.  0.
          5    1    3    3  502    0  0.83527429432E+02 -0.12214806725E+02  0.10280465780E+03  0.13310492341E+03  0.47000000000E+01 0. -1.
         -5    1    3    3    0  502 -0.27638677194E+01 -0.36786642486E+02  0.12247352841E+03  0.12799512175E+03  0.47000000000E+01 0.  1.
          5    1    4    4  503    0  0.14204368153E+02  0.23216281499E+02  0.76639004034E+02  0.81464021142E+02  0.47000000000E+01 0. -1.
         -5    1    4    4    0  503 -0.94967929865E+02  0.25785167712E+02  0.11795527388E+03  0.15368578078E+03  0.47000000000E+01 0.  1.
<mgrwt>
<rscale>  0 0.13201180E+03</rscale>
<asrwt>0</asrwt>
<pdfrwt beam="1">  1        1 0.70470943E-01 0.13201703E+03</pdfrwt>
<pdfrwt beam="2">  1       -1 0.58751836E-02 0.13201703E+03</pdfrwt>
<totfact> 0.66933615E+03</totfact>
</mgrwt>
</event>
<event>
 8    1  0.9456677E-004  0.1225366E+03  0.7546771E-02  0.1238974E+00
          2   -1    0    0  501    0  0.00000000000E+00  0.00000000000E+00  0.18576768009E+03  0.18576768009E+03  0.00000000000E+00 0. -1.
         -2   -1    0    0    0  501 -0.00000000000E+00 -0.00000000000E+00 -0.82271784201E+02  0.82271784201E+02  0.00000000000E+00 0.  1.
         23    2    1    2    0    0 -0.43878832144E+02  0.69337010731E+02  0.69542042238E+02  0.14088564911E+03  0.90992843223E+02 0.  0.
         23    2    1    2    0    0  0.43878832144E+02 -0.69337010731E+02  0.33953853650E+02  0.12715381518E+03  0.91006898479E+02 0.  0.
          5    1    3    3  502    0 -0.87869214749E+01 -0.22224931721E+02  0.13636081149E+02  0.27913980155E+02  0.47000000000E+01 0. -1.
         -5    1    4    4    0  503  0.79379441796E+01 -0.46736055017E+02 -0.25431797969E+02  0.54001260580E+02  0.47000000000E+01 0.  1.
          5    1    4    4  503    0  0.35940887964E+02 -0.22600955714E+02  0.59385651619E+02  0.73152554604E+02  0.47000000000E+01 0. -1.
         -5    1    3    3    0  502 -0.35091910669E+02  0.91561942452E+02  0.55905961089E+02  0.11297166895E+03  0.47000000000E+01 0.  1.
<mgrwt>
<rscale>  0 0.12253403E+03</rscale>
<asrwt>0</asrwt>
<pdfrwt beam="1">  1        2 0.28579643E-01 0.12253664E+03</pdfrwt>
<pdfrwt beam="2">  1       -2 0.12657198E-01 0.12253664E+03</pdfrwt>
<totfact> 0.78821639E+03</totfact>
</mgrwt>
</event>
<event>
 8    1  0.9456677E-004  0.1382469E+03  0.7546771E-02  0.1217907E+00
          2   -1    0    0  501    0  0.00000000000E+00  0.00000000000E+00  0.51034427512E+03  0.51034427512E+03  0.00000000000E+00 0. -1.
         -2   -1    0    0    0  501 -0.00000000000E+00 -0.00000000000E+00 -0.40952950837E+02  0.40952950837E+02  0.00000000000E+00 0.  1.
         23    2    1    2    0    0  0.95829442994E+02 -0.12812072011E+02  0.13189936569E+03  0.18658770186E+03  0.89833715738E+02 0.  0.
         23    2    1    2    0    0 -0.95829442994E+02  0.12812072011E+02  0.33749195860E+03  0.36470952410E+03  0.98816919179E+02 0.  0.
          5    1    3    3  502    0  0.73403261228E+02  0.30273303642E+02  0.59737330348E+02  0.99474370113E+02  0.47000000000E+01 0.  1.
         -5    1    4    4    0  503 -0.47236924957E+02  0.21962887679E+01  0.37361718163E+02  0.60449472684E+02  0.47000000000E+01 0.  1.
          5    1    4    4  503    0 -0.48592518037E+02  0.10615783243E+02  0.30013024043E+03  0.30426005141E+03  0.47000000000E+01 0. -1.
         -5    1    3    3    0  502  0.22426181766E+02 -0.43085375653E+02  0.72162035342E+02  0.87113331749E+02  0.47000000000E+01 0. -1.
<mgrwt>
<rscale>  0 0.13665167E+03</rscale>
<asrwt>0</asrwt>
<pdfrwt beam="1">  1        2 0.78514500E-01 0.13824693E+03</pdfrwt>
<pdfrwt beam="2">  1       -2 0.63004543E-02 0.13824693E+03</pdfrwt>
<totfact> 0.79916600E+03</totfact>
</mgrwt>
</event>
<event>
 8    1  0.9456677E-004  0.9221664E+02  0.7546771E-02  0.1298111E+00
          2   -1    0    0  501    0  0.00000000000E+00  0.00000000000E+00  0.13975549201E+03  0.13975549201E+03  0.00000000000E+00 0. -1.
         -2   -1    0    0    0  501 -0.00000000000E+00 -0.00000000000E+00 -0.79238964921E+02  0.79238964921E+02  0.00000000000E+00 0.  1.
         23    2    1    2    0    0 -0.13985372015E+02  0.94387812245E+01 -0.23465500955E+02  0.94267194535E+02  0.89727325877E+02 0.  0.
         23    2    1    2    0    0  0.13985372015E+02 -0.94387812245E+01  0.83982028044E+02  0.12472726240E+03  0.90659956593E+02 0.  0.
          5    1    4    4  502    0  0.14011527200E+02 -0.38415278588E+02  0.85959291186E+02  0.95305541627E+02  0.47000000000E+01 0. -1.
         -5    1    3    3    0  503 -0.34814527902E+02 -0.21493839227E+02 -0.35943602639E+02  0.54663233059E+02  0.47000000000E+01 0.  1.
          5    1    3    3  503    0  0.20829155887E+02  0.30932620452E+02  0.12478101684E+02  0.39603961476E+02  0.47000000000E+01 0. -1.
         -5    1    4    4    0  502 -0.26155185220E-01  0.28976497364E+02 -0.19772631422E+01  0.29421720771E+02  0.47000000000E+01 0.  1.
<mgrwt>
<rscale>  0 0.91986600E+02</rscale>
<asrwt>0</asrwt>
<pdfrwt beam="1">  1        2 0.21500845E-01 0.92216641E+02</pdfrwt>
<pdfrwt beam="2">  1       -2 0.12190610E-01 0.92216641E+02</pdfrwt>
<totfact> 0.11159908E+04</totfact>
</mgrwt>
</event>
<event>
 8    1  0.9456677E-004  0.9688912E+02  0.7546771E-02  0.1287591E+00
         -2   -1    0    0    0  501 -0.00000000000E+00  0.00000000000E+00  0.42154327742E+03  0.42154327742E+03  0.00000000000E+00 0.  1.
          2   -1    0    0  501    0  0.00000000000E+00 -0.00000000000E+00 -0.22273678870E+02  0.22273678870E+02  0.00000000000E+00 0. -1.
         23    2    1    2    0    0  0.21113076492E+02 -0.21979719786E+02  0.17454561044E+03  0.19909594661E+03  0.90797333397E+02 0.  0.
         23    2    1    2    0    0 -0.21113076492E+02  0.21979719786E+02  0.22472398810E+03  0.24472100967E+03  0.91970819641E+02 0.  0.
          5    1    3    3  502    0  0.19371003178E+02 -0.47871642761E+02  0.50876086256E+02  0.72645688775E+02  0.47000000000E+01 0. -1.
         -5    1    3    3    0  502  0.17420733144E+01  0.25891922975E+02  0.12366952419E+03  0.12645025784E+03  0.47000000000E+01 0.  1.
          5    1    4    4  503    0 -0.17998255341E+02 -0.34580540770E+02  0.76886089166E+02  0.86332564554E+02  0.47000000000E+01 0. -1.
         -5    1    4    4    0  503 -0.31148211514E+01  0.56560260556E+02  0.14783789894E+03  0.15838844512E+03  0.47000000000E+01 0.  1.
<mgrwt>
<rscale>  0 0.96609612E+02</rscale>
<asrwt>0</asrwt>
<pdfrwt beam="1">  1        2 0.34267201E-02 0.96889121E+02</pdfrwt>
<pdfrwt beam="2">  1       -2 0.64852806E-01 0.96889121E+02</pdfrwt>
<totfact> 0.53813677E+03</totfact>
</mgrwt>
</event>
<event>
 8    1  0.9456677E-004  0.9228525E+02  0.7546771E-02  0.1298192E+00
         -1   -1    0    0    0  501 -0.00000000000E+00  0.00000000000E+00  0.19461646623E+02  0.19461646623E+02  0.00000000000E+00 0.  1.
          1   -1    0    0  501    0  0.00000000000E+00 -0.00000000000E+00 -0.47792899996E+03  0.47792899996E+03  0.00000000000E+00 0. -1.
         23    2    1    2    0    0  0.89924632425E+01  0.12626610481E+02 -0.15308852880E+03  0.17875308434E+03  0.90974017309E+02 0.  0.
         23    2    1    2    0    0 -0.89924632425E+01 -0.12626610481E+02 -0.30537882453E+03  0.31863756223E+03  0.89629090732E+02 0.  0.
          5    1    4    4  502    0 -0.27296086666E+02 -0.36336864980E+02 -0.26050177898E+03  0.26447818617E+03  0.47000000000E+01 0. -1.
         -5    1    4    4    0  502  0.18303623423E+02  0.23710254499E+02 -0.44877045550E+02  0.54159376069E+02  0.47000000000E+01 0.  1.
          5    1    3    3  503    0 -0.23793277430E+02 -0.85648010821E+01 -0.13130821631E+03  0.13380363799E+03  0.47000000000E+01 0. -1.
         -5    1    3    3    0  503  0.32785740673E+02  0.21191411563E+02 -0.21780312486E+02  0.44949446353E+02  0.47000000000E+01 0.  1.
<mgrwt>
<rscale>  0 0.91952067E+02</rscale>
<asrwt>0</asrwt>
<pdfrwt beam="1">  1        1 0.73527541E-01 0.92285251E+02</pdfrwt>
<pdfrwt beam="2">  1       -1 0.29940994E-02 0.92285251E+02</pdfrwt>
<totfact> 0.16526726E+04</totfact>
</mgrwt>
</event>
<event>
 8    1  0.9456677E-004  0.1004199E+03  0.7546771E-02  0.1280073E+00
         -1   -1    0    0    0  501 -0.00000000000E+00  0.00000000000E+00  0.87928688910E+02  0.87928688910E+02  0.00000000000E+00 0.  1.
          1   -1    0    0  501    0  0.00000000000E+00 -0.00000000000E+00 -0.11875149461E+03  0.11875149461E+03  0.00000000000E+00 0. -1.
         23    2    1    2    0    0  0.14308846602E+02  0.33472482175E+02  0.67134028754E+01  0.10064409920E+03  0.93589608244E+02 0.  0.
         23    2    1    2    0    0 -0.14308846602E+02 -0.33472482175E+02 -0.37536208578E+02  0.10603608432E+03  0.92247135839E+02 0.  0.
          5    1    3    3  502    0  0.46406794511E+02 -0.84961682296E+00  0.21203362630E+02  0.51244365664E+02  0.47000000000E+01 0. -1.
         -5    1    3    3    0  502 -0.32097947909E+02  0.34322098998E+02 -0.14489959755E+02  0.49399733534E+02  0.47000000000E+01 0.  1.
          5    1    4    4  503    0  0.11455220542E+02 -0.39536804852E+02 -0.58682212075E+02  0.71833648311E+02  0.47000000000E+01 0. -1.
         -5    1    4    4    0  503 -0.25764067144E+02  0.60643226775E+01  0.21146003497E+02  0.34202436014E+02  0.47000000000E+01 0.  1.
<mgrwt>
<rscale>  0 0.10010598E+03</rscale>
<asrwt>0</asrwt>
<pdfrwt beam="1">  1        1 0.18269461E-01 0.10041994E+03</pdfrwt>
<pdfrwt beam="2">  1       -1 0.13527491E-01 0.10041994E+03</pdfrwt>
<totfact> 0.99747361E+03</totfact>
</mgrwt>
</event>
<event>
 8    1  0.9456677E-004  0.9802539E+02  0.7546771E-02  0.1288452E+00
          1   -1    0    0  501    0  0.00000000000E+00  0.00000000000E+00  0.19627471131E+03  0.19627471131E+03  0.00000000000E+00 0. -1.
         -1   -1    0    0    0  501 -0.00000000000E+00 -0.00000000000E+00 -0.17203369061E+03  0.17203369061E+03  0.00000000000E+00 0.  1.
         23    2    1    2    0    0  0.32597489507E+02  0.29539431646E+01 -0.14565938196E+03  0.17557229936E+03  0.92399429893E+02 0.  0.
         23    2    1    2    0    0 -0.32597489507E+02 -0.29539431646E+01  0.16990040266E+03  0.19273610257E+03  0.84910166102E+02 0.  0.
          5    1    3    3  502    0  0.29759905074E+02 -0.39505183791E+02 -0.48649891028E+02  0.69535698698E+02  0.47000000000E+01 0. -1.
         -5    1    4    4    0  503 -0.55638114208E+02  0.10488308814E+01  0.67564592133E+02  0.87657081339E+02  0.47000000000E+01 0.  1.
          5    1    4    4  503    0  0.23040624701E+02 -0.40027740460E+01  0.10233581052E+03  0.10507902123E+03  0.47000000000E+01 0. -1.
         -5    1    3    3    0  502  0.28375844321E+01  0.42459126956E+02 -0.97009490936E+02  0.10603660066E+03  0.47000000000E+01 0.  1.
<mgrwt>
<rscale>  0 0.96219846E+02</rscale>
<asrwt>0</asrwt>
<pdfrwt beam="1">  1        1 0.30196110E-01 0.98025388E+02</pdfrwt>
<pdfrwt beam="2">  1       -1 0.26466722E-01 0.98025388E+02</pdfrwt>
<totfact> 0.18345398E+03</totfact>
</mgrwt>
</event>
<event>
 8    1  0.9456677E-004  0.1091120E+03  0.7546771E-02  0.1267531E+00
          1   -1    0    0  501    0  0.00000000000E+00  0.00000000000E+00  0.56541324873E+02  0.56541324873E+02  0.00000000000E+00 0. -1.
         -1   -1    0    0    0  501 -0.00000000000E+00 -0.00000000000E+00 -0.27069857040E+03  0.27069857040E+03  0.00000000000E+00 0.  1.
         23    2    1    2    0    0  0.18199584881E+02  0.61198451408E+02 -0.20002192070E+03  0.22784688655E+03  0.88481408256E+02 0.  0.
         23    2    1    2    0    0 -0.18199584881E+02 -0.61198451408E+02 -0.14135324829E+02  0.99393008720E+02  0.74851101728E+02 0.  0.
          5    1    3    3  502    0 -0.26291656141E+02 -0.66837831750E+01 -0.43748217249E+02  0.51690624417E+02  0.47000000000E+01 0. -1.
         -5    1    3    3    0  502  0.44491241022E+02  0.67882234583E+02 -0.15627370345E+03  0.17615626213E+03  0.47000000000E+01 0.  1.
          5    1    4    4  503    0  0.12684487611E+02 -0.65328106710E+02 -0.69686506487E+01  0.67076895009E+02  0.47000000000E+01 0. -1.
         -5    1    4    4    0  503 -0.30884072492E+02  0.41296553014E+01 -0.71666741801E+01  0.32316113711E+02  0.47000000000E+01 0.  1.
<mgrwt>
<rscale>  0 0.10632471E+03</rscale>
<asrwt>0</asrwt>
<pdfrwt beam="1">  1        1 0.86986654E-02 0.10911203E+03</pdfrwt>
<pdfrwt beam="2">  1       -1 0.41645934E-01 0.10911203E+03</pdfrwt>
<totfact> 0.42022099E+03</totfact>
</mgrwt>
</event>
<event>
 8    1  0.9456677E-004  0.1156748E+03  0.7546771E-02  0.1251026E+00
          2   -1    0    0  501    0  0.00000000000E+00  0.00000000000E+00  0.38647454959E+03  0.38647454959E+03  0.00000000000E+00 0. -1.
         -2   -1    0    0    0  501 -0.00000000000E+00 -0.00000000000E+00 -0.40470690499E+02  0.40470690499E+02  0.00000000000E+00 0.  1.
         23    2    1    2    0    0  0.54802074844E+02  0.42764263065E+02  0.89870925926E+02  0.14648361464E+03  0.92458728243E+02 0.  0.
         23    2    1    2    0    0 -0.54802074844E+02 -0.42764263065E+02  0.25613293316E+03  0.28046162544E+03  0.90678521685E+02 0.  0.
          5    1    3    3  502    0  0.40989629830E+02  0.79783506021E+01  0.99106630829E+02  0.10764765723E+03  0.47000000000E+01 0. -1.
         -5    1    3    3    0  502  0.13812445014E+02  0.34785912462E+02 -0.92357049033E+01  0.38835957413E+02  0.47000000000E+01 0.  1.
          5    1    4    4  503    0 -0.47017258781E+01 -0.59863186533E+02  0.15328043096E+03  0.16468967133E+03  0.47000000000E+01 0. -1.
         -5    1    4    4    0  503 -0.50100348966E+02  0.17098923468E+02  0.10285250220E+03  0.11577195412E+03  0.47000000000E+01 0.  1.
<mgrwt>
<rscale>  0 0.11531871E+03</rscale>
<asrwt>0</asrwt>
<pdfrwt beam="1">  1        2 0.59457620E-01 0.11567483E+03</pdfrwt>
<pdfrwt beam="2">  1       -2 0.62262603E-02 0.11567483E+03</pdfrwt>
<totfact> 0.10844449E+04</totfact>
</mgrwt>
</event>
<event>
 7    1  0.9456677E-004  0.1297698E+03  0.7546771E-02  0.1245047E+00
         -2   -1    0    0    0  501 -0.00000000000E+00  0.00000000000E+00  0.36652447396E+02  0.36652447396E+02  0.00000000000E+00 0.  1.
          2   -1    0    0  501    0  0.00000000000E+00 -0.00000000000E+00 -0.33894404857E+03  0.33894404857E+03  0.00000000000E+00 0. -1.
         23    2    1    2    0    0  0.10626551377E+02  0.22139852628E+01 -0.10100058426E+03  0.13610062014E+03  0.90578338788E+02 0.  0.
          5    1    3    3  502    0 -0.32781349032E+02 -0.58046318103E+01 -0.80429729807E+02  0.87174205082E+02  0.47000000000E+01 0. -1.
         -5    1    3    3    0  502  0.43407900409E+02  0.80186170732E+01 -0.20570854450E+02  0.48926415059E+02  0.47000000000E+01 0.  1.
          5    1    1    2  503    0 -0.39682294324E+02 -0.55764289130E+02 -0.10281576333E+03  0.12360223143E+03  0.47000000000E+01 0. -1.
         -5    1    1    2    0  503  0.29055742947E+02  0.53550303867E+02 -0.98475253587E+02  0.11589364440E+03  0.47000000000E+01 0.  1.
<mgrwt>
<rscale>  0 0.11882570E+03</rscale>
<asrwt>0</asrwt>
<pdfrwt beam="1">  1        2 0.52145241E-01 0.12976980E+03</pdfrwt>
<pdfrwt beam="2">  1       -2 0.56388378E-02 0.12976980E+03</pdfrwt>
<totfact> 0.14612367E+04</totfact>
</mgrwt>
</event>
<event>
 8    1  0.9456677E-004  0.1088214E+03  0.7546771E-02  0.1262954E+00
          1   -1    0    0  501    0  0.00000000000E+00  0.00000000000E+00  0.87827210307E+03  0.87827210307E+03  0.00000000000E+00 0. -1.
         -1   -1    0    0    0  501 -0.00000000000E+00 -0.00000000000E+00 -0.18586793601E+02  0.18586793601E+02  0.00000000000E+00 0.  1.
         23    2    1    2    0    0  0.17961093748E+02  0.52238126821E+02  0.19430899198E+03  0.22270627861E+03  0.93758622985E+02 0.  0.
         23    2    1    2    0    0 -0.17961093748E+02 -0.52238126821E+02  0.66537631748E+03  0.67415261806E+03  0.93298905601E+02 0.  0.
          5    1    3    3  502    0  0.39174224642E+02 -0.11463284941E+02  0.83435016701E+02  0.93002789151E+02  0.47000000000E+01 0. -1.
         -5    1    4    4    0  503  0.34819544853E+02 -0.41419291109E+02  0.34113946164E+03  0.34543621794E+03  0.47000000000E+01 0.  1.
          5    1    4    4  503    0 -0.52780638602E+02 -0.10818835712E+02  0.32423685585E+03  0.32871640012E+03  0.47000000000E+01 0. -1.
         -5    1    3    3    0  502 -0.21213130894E+02  0.63701411762E+02  0.11087397528E+03  0.12970348946E+03  0.47000000000E+01 0.  1.
<mgrwt>
<rscale>  0 0.10872233E+03</rscale>
<asrwt>0</asrwt>
<pdfrwt beam="1">  1        1 0.13511875E+00 0.10882142E+03</pdfrwt>
<pdfrwt beam="2">  1       -1 0.28595074E-02 0.10882142E+03</pdfrwt>
<totfact> 0.76802785E+03</totfact>
</mgrwt>
</event>
<event>
 8    1  0.9456677E-004  0.9964908E+02  0.7546771E-02  0.1281343E+00
         -1   -1    0    0    0  501 -0.00000000000E+00  0.00000000000E+00  0.43071644008E+02  0.43071644008E+02  0.00000000000E+00 0.  1.
          1   -1    0    0  501    0  0.00000000000E+00 -0.00000000000E+00 -0.23421341643E+03  0.23421341643E+03  0.00000000000E+00 0. -1.
         23    2    1    2    0    0 -0.36644675219E+02 -0.16983622898E+02 -0.75023465205E+02  0.12427068349E+03  0.90462184225E+02 0.  0.
         23    2    1    2    0    0  0.36644675219E+02  0.16983622898E+02 -0.11611830722E+03  0.15301437695E+03  0.91096995635E+02 0.  0.
          5    1    3    3  502    0  0.29012676492E+02 -0.66186079625E+01 -0.11619964889E+02  0.32290168048E+02  0.47000000000E+01 0. -1.
         -5    1    4    4    0  503  0.22596147989E+02 -0.37029657758E+02 -0.49900433914E+02  0.66286686162E+02  0.47000000000E+01 0.  1.
          5    1    4    4  503    0  0.14048527229E+02  0.54013280655E+02 -0.66217873308E+02  0.86727690791E+02  0.47000000000E+01 0. -1.
         -5    1    3    3    0  502 -0.65657351711E+02 -0.10365014935E+02 -0.63403500316E+02  0.91980515440E+02  0.47000000000E+01 0.  1.
<mgrwt>
<rscale>  0 0.99503759E+02</rscale>
<asrwt>0</asrwt>
<pdfrwt beam="1">  1        1 0.36032833E-01 0.99649076E+02</pdfrwt>
<pdfrwt beam="2">  1       -1 0.66264068E-02 0.99649076E+02</pdfrwt>
<totfact> 0.12594206E+04</totfact>
</mgrwt>
</event>
<event>
 8    1  0.1036562E-003  0.1756384E+03  0.7546771E-02  0.1172307E+00
         -1   -1    0    0    0  501 -0.00000000000E+00  0.00000000000E+00  0.10631270696E+03  0.10631270696E+03  0.00000000000E+00 0.  1.
          1   -1    0    0  501    0  0.00000000000E+00 -0.00000000000E+00 -0.10879253333E+04  0.10879253333E+04  0.00000000000E+00 0. -1.
         23    2    1    2    0    0  0.11298580015E+03 -0.97180903324E+02 -0.10029032437E+04  0.10181668604E+04  0.92945793504E+02 0.  0.
         23    2    1    2    0    0 -0.11298580015E+03  0.97180903324E+02  0.21290617276E+02  0.17607117987E+03  0.91311833784E+02 0.  0.
          5    1    3    3  502    0  0.81830710246E+02 -0.10930423209E+03 -0.88653349180E+03  0.89699910946E+03  0.47000000000E+01 0. -1.
         -5    1    3    3    0  502  0.31155089903E+02  0.12123328761E+02 -0.11636975185E+03  0.12116775096E+03  0.47000000000E+01 0.  1.
          5    1    4    4  503    0 -0.56837368420E+02  0.31580835759E+02 -0.33905289834E+02  0.73481251452E+02  0.47000000000E+01 0. -1.
         -5    1    4    4    0  503 -0.56148431729E+02  0.65600067565E+02  0.55195907111E+02  0.10258992841E+03  0.47000000000E+01 0.  1.
<mgrwt>
<rscale>  0 0.17542319E+03</rscale>
<asrwt>0</asrwt>
<pdfrwt beam="1">  1        1 0.16737313E+00 0.17563838E+03</pdfrwt>
<pdfrwt beam="2">  1       -1 0.16355801E-01 0.17563838E+03</pdfrwt>
<totfact> 0.39245648E+02</totfact>
</mgrwt>
</event>
<event>
 8    1  0.9456677E-004  0.9164996E+02  0.7546771E-02  0.1299653E+00
          1   -1    0    0  501    0  0.00000000000E+00  0.00000000000E+00  0.32128049643E+03  0.32128049643E+03  0.00000000000E+00 0. -1.
         -1   -1    0    0    0  501 -0.00000000000E+00 -0.00000000000E+00 -0.70635062480E+02  0.70635062480E+02  0.00000000000E+00 0.  1.
         23    2    1    2    0    0 -0.71096355833E+01  0.17154706752E+01 -0.31134960827E+02  0.95605070615E+02  0.90096914397E+02 0.  0.
         23    2    1    2    0    0  0.71096355833E+01 -0.17154706752E+01  0.28178039478E+03  0.29631048830E+03  0.91357675295E+02 0.  0.
          5    1    3    3  502    0 -0.15694607177E+02  0.23394200154E+02  0.22873476226E+02  0.36590917042E+02  0.47000000000E+01 0. -1.
         -5    1    4    4    0  503 -0.24294040086E+02 -0.32086899504E+02  0.19352940340E+03  0.19772579368E+03  0.47000000000E+01 0.  1.
          5    1    4    4  503    0  0.31403675669E+02  0.30371428829E+02  0.88250991376E+02  0.98584694620E+02  0.47000000000E+01 0. -1.
         -5    1    3    3    0  502  0.85849715941E+01 -0.21678729479E+02 -0.54008437053E+02  0.59014153573E+02  0.47000000000E+01 0.  1.
<mgrwt>
<rscale>  0 0.91334157E+02</rscale>
<asrwt>0</asrwt>
<pdfrwt beam="1">  1        1 0.49427768E-01 0.91649957E+02</pdfrwt>
<pdfrwt beam="2">  1       -1 0.10866933E-01 0.91649957E+02</pdfrwt>
<totfact> 0.40501915E+03</totfact>
</mgrwt>
</event>
<event>
 8    1  0.9456677E-004  0.1091128E+03  0.7546771E-02  0.1265091E+00
          1   -1    0    0  501    0  0.00000000000E+00  0.00000000000E+00  0.88081977159E+03  0.88081977159E+03  0.00000000000E+00 0. -1.
         -1   -1    0    0    0  501 -0.00000000000E+00 -0.00000000000E+00 -0.12789816318E+02  0.12789816318E+02  0.00000000000E+00 0.  1.
         23    2    1    2    0    0  0.13417601883E+02  0.54697842151E+02  0.42070723326E+03  0.43317150303E+03  0.86435461154E+02 0.  0.
         23    2    1    2    0    0 -0.13417601883E+02 -0.54697842151E+02  0.44732272201E+03  0.46043808488E+03  0.93454408136E+02 0.  0.
          5    1    4    4  502    0 -0.21089843327E+02 -0.77129669069E+02  0.39146635180E+03  0.39957697874E+03  0.47000000000E+01 0. -1.
         -5    1    4    4    0  502  0.76722414443E+01  0.22431826918E+02  0.55856370212E+02  0.60861106143E+02  0.47000000000E+01 0.  1.
          5    1    3    3  503    0 -0.25863566442E+02  0.25890660690E+02  0.30925514841E+03  0.31144837004E+03  0.47000000000E+01 0. -1.
         -5    1    3    3    0  503  0.39281168325E+02  0.28807181461E+02  0.11145208484E+03  0.12172313299E+03  0.47000000000E+01 0.  1.
<mgrwt>
<rscale>  0 0.10759443E+03</rscale>
<asrwt>0</asrwt>
<pdfrwt beam="1">  1        1 0.13551069E+00 0.10911284E+03</pdfrwt>
<pdfrwt beam="2">  1       -1 0.19676647E-02 0.10911284E+03</pdfrwt>
<totfact> 0.13097060E+04</totfact>
</mgrwt>
</event>
<event>
 8    1  0.9456677E-004  0.9861480E+02  0.7546771E-02  0.1283949E+00
          1   -1    0    0  501    0  0.00000000000E+00  0.00000000000E+00  0.29424589324E+02  0.29424589324E+02  0.00000000000E+00 0. -1.
         -1   -1    0    0    0  501 -0.00000000000E+00 -0.00000000000E+00 -0.64838083728E+03  0.64838083728E+03  0.00000000000E+00 0.  1.
         23    2    1    2    0    0 -0.91488149486E+01  0.32911378462E+02 -0.69492858430E+02  0.11956274179E+03  0.91099573024E+02 0.  0.
         23    2    1    2    0    0  0.91488149486E+01 -0.32911378462E+02 -0.54946338952E+03  0.55824268481E+03  0.92509562038E+02 0.  0.
          5    1    4    4  502    0 -0.29496524871E+01  0.30148060553E+02 -0.25420307576E+03  0.25604472213E+03  0.47000000000E+01 0. -1.
         -5    1    4    4    0  502  0.12098467436E+02 -0.63059439015E+02 -0.29526031376E+03  0.30219796268E+03  0.47000000000E+01 0.  1.
          5    1    3    3  503    0  0.12118591664E+02  0.42767372087E+02  0.14271016137E+01  0.44721750839E+02  0.47000000000E+01 0. -1.
         -5    1    3    3    0  503 -0.21267406612E+02 -0.98559936247E+01 -0.70919960044E+02  0.74840990954E+02  0.47000000000E+01 0.  1.
<mgrwt>
<rscale>  0 0.98282759E+02</rscale>
<asrwt>0</asrwt>
<pdfrwt beam="1">  1        1 0.45268600E-02 0.98614800E+02</pdfrwt>
<pdfrwt beam="2">  1       -1 0.99750896E-01 0.98614800E+02</pdfrwt>
<totfact> 0.18544890E+03</totfact>
</mgrwt>
</event>
<event>
 8    1  0.9456677E-004  0.9155976E+02  0.7546771E-02  0.1300482E+00
          1   -1    0    0  501    0  0.00000000000E+00  0.00000000000E+00  0.64309037212E+03  0.64309037212E+03  0.00000000000E+00 0. -1.
         -1   -1    0    0    0  501 -0.00000000000E+00 -0.00000000000E+00 -0.19906118410E+02  0.19906118410E+02  0.00000000000E+00 0.  1.
         23    2    1    2    0    0  0.68168870801E+01 -0.87028513486E+00  0.10983805921E+03  0.14154898103E+03  0.89019590181E+02 0.  0.
         23    2    1    2    0    0 -0.68168870801E+01  0.87028513486E+00  0.51334619450E+03  0.52144750950E+03  0.91301491788E+02 0.  0.
          5    1    4    4  502    0  0.11115850525E+02  0.39547761072E+02  0.35483533855E+03  0.35723632937E+03  0.47000000000E+01 0. -1.
         -5    1    3    3    0  503  0.11545181754E+02 -0.39948375889E+02  0.27246668339E+02  0.49936308369E+02  0.47000000000E+01 0.  1.
          5    1    3    3  503    0 -0.47282946741E+01  0.39078090755E+02  0.82591390867E+02  0.91612672666E+02  0.47000000000E+01 0. -1.
         -5    1    4    4    0  502 -0.17932737605E+02 -0.38677475937E+02  0.15851085595E+03  0.16421118012E+03  0.47000000000E+01 0.  1.
<mgrwt>
<rscale>  0 0.90985556E+02</rscale>
<asrwt>0</asrwt>
<pdfrwt beam="1">  1        1 0.98936964E-01 0.91559761E+02</pdfrwt>
<pdfrwt beam="2">  1       -1 0.30624802E-02 0.91559761E+02</pdfrwt>
<totfact> 0.10816077E+04</totfact>
</mgrwt>
</event>
<event>
 8    1  0.9456677E-004  0.9248152E+02  0.7546771E-02  0.1297393E+00
          2   -1    0    0  501    0  0.00000000000E+00  0.00000000000E+00  0.14878067531E+02  0.14878067531E+02  0.00000000000E+00 0. -1.
         -2   -1    0    0    0  501 -0.00000000000E+00 -0.00000000000E+00 -0.57108080074E+03  0.57108080074E+03  0.00000000000E+00 0.  1.
         23    2    1    2    0    0  0.49778500452E+01 -0.11677166851E+02 -0.29082673858E+03  0.30517703697E+03  0.91606205040E+02 0.  0.
         23    2    1    2    0    0 -0.49778500452E+01  0.11677166851E+02 -0.26537599463E+03  0.28078183130E+03  0.90845379896E+02 0.  0.
          5    1    4    4  502    0 -0.96668749073E+00 -0.29738867284E+02 -0.20561739275E+03  0.20781226363E+03  0.47000000000E+01 0. -1.
         -5    1    3    3    0  503  0.34241632806E+02  0.26555755365E+02 -0.15404966858E+03  0.16009712037E+03  0.47000000000E+01 0.  1.
          5    1    3    3  503    0 -0.29263782761E+02 -0.38232922216E+02 -0.13677707000E+03  0.14507991660E+03  0.47000000000E+01 0. -1.
         -5    1    4    4    0  502 -0.40111625545E+01  0.41416034134E+02 -0.59758601871E+02  0.72969567671E+02  0.47000000000E+01 0.  1.
<mgrwt>
<rscale>  0 0.92292553E+02</rscale>
<asrwt>0</asrwt>
<pdfrwt beam="1">  1        2 0.22889331E-02 0.92481523E+02</pdfrwt>
<pdfrwt beam="2">  1       -2 0.87858600E-01 0.92481523E+02</pdfrwt>
<totfact> 0.47824265E+03</totfact>
</mgrwt>
</event>
<event>
 8    1  0.9456677E-004  0.1158453E+03  0.7546771E-02  0.1251432E+00
         -1   -1    0    0    0  501 -0.00000000000E+00  0.00000000000E+00  0.72004960054E+02  0.72004960054E+02  0.00000000000E+00 0.  1.
          1   -1    0    0  501    0  0.00000000000E+00 -0.00000000000E+00 -0.18208416964E+03  0.18208416964E+03  0.00000000000E+00 0. -1.
         23    2    1    2    0    0 -0.64745004950E+02 -0.25268718244E+02 -0.47557685885E+02  0.12244922976E+03  0.88891262761E+02 0.  0.
         23    2    1    2    0    0  0.64745004950E+02  0.25268718244E+02 -0.62521523706E+02  0.13163989994E+03  0.92680626567E+02 0.  0.
          5    1    3    3  502    0 -0.52838003142E+01  0.27358802268E+02 -0.29559804854E+02  0.40893699641E+02  0.47000000000E+01 0. -1.
         -5    1    4    4    0  503  0.86784973364E+02  0.28285605040E+02 -0.40442069992E+02  0.99946776234E+02  0.47000000000E+01 0.  1.
          5    1    4    4  503    0 -0.22039968414E+02 -0.30168867961E+01 -0.22079453714E+02  0.31693123701E+02  0.47000000000E+01 0. -1.
         -5    1    3    3    0  502 -0.59461204636E+02 -0.52627520512E+02 -0.17997881031E+02  0.81555530122E+02  0.47000000000E+01 0.  1.
<mgrwt>
<rscale>  0 0.11508563E+03</rscale>
<asrwt>0</asrwt>
<pdfrwt beam="1">  1        1 0.28012948E-01 0.11584525E+03</pdfrwt>
<pdfrwt beam="2">  1       -1 0.11077687E-01 0.11584525E+03</pdfrwt>
<totfact> 0.80287115E+03</totfact>
</mgrwt>
</event>
<event>
 8    1  0.9456677E-004  0.1069762E+03  0.7546771E-02  0.1269772E+00
          2   -1    0    0  501    0  0.00000000000E+00  0.00000000000E+00  0.28785273710E+02  0.28785273710E+02  0.00000000000E+00 0. -1.
         -2   -1    0    0    0  501 -0.00000000000E+00 -0.00000000000E+00 -0.47566854859E+03  0.47566854859E+03  0.00000000000E+00 0.  1.
         23    2    1    2    0    0 -0.43884921899E+02  0.23031591679E+02 -0.33526699128E+03  0.34985074482E+03  0.86805804089E+02 0.  0.
         23    2    1    2    0    0  0.43884921899E+02 -0.23031591679E+02 -0.11161628360E+03  0.15460307748E+03  0.94802828103E+02 0.  0.
          5    1    4    4  502    0 -0.59191560348E+01  0.26819206558E+02 -0.62934358930E+02  0.68826810056E+02  0.47000000000E+01 0. -1.
         -5    1    4    4    0  502  0.49804077933E+02 -0.49850798237E+02 -0.48681924670E+02  0.85776267424E+02  0.47000000000E+01 0.  1.
          5    1    3    3  503    0 -0.29647765082E+02  0.44128438129E+02 -0.30667501470E+03  0.31128437749E+03  0.47000000000E+01 0. -1.
         -5    1    3    3    0  503 -0.14237156816E+02 -0.21096846450E+02 -0.28591976573E+02  0.38566367326E+02  0.47000000000E+01 0.  1.
<mgrwt>
<rscale>  0 0.10517677E+03</rscale>
<asrwt>0</asrwt>
<pdfrwt beam="1">  1        2 0.44285036E-02 0.10697624E+03</pdfrwt>
<pdfrwt beam="2">  1       -2 0.73179777E-01 0.10697624E+03</pdfrwt>
<totfact> 0.30043858E+03</totfact>
</mgrwt>
</event>
<event>
 8    1  0.9456677E-004  0.1262278E+03  0.7546771E-02  0.1235602E+00
         -2   -1    0    0    0  501 -0.00000000000E+00  0.00000000000E+00  0.32645812994E+03  0.32645812994E+03  0.00000000000E+00 0. -1.
          2   -1    0    0  501    0  0.00000000000E+00 -0.00000000000E+00 -0.47694299895E+02  0.47694299895E+02  0.00000000000E+00 0.  1.
         23    2    1    2    0    0  0.65198489296E+02  0.54941511832E+02  0.10584908762E+03  0.16006606895E+03  0.84544097078E+02 0.  0.
         23    2    1    2    0    0 -0.65198489296E+02 -0.54941511832E+02  0.17291474242E+03  0.21408636088E+03  0.93080873649E+02 0.  0.
          5    1    3    3  502    0  0.73143974675E+02  0.13262921742E+02  0.83453355900E+02  0.11185928095E+03  0.47000000000E+01 0. -1.
         -5    1    3    3    0  502 -0.79454853790E+01  0.41678590089E+02  0.22395731716E+02  0.48206787996E+02  0.47000000000E+01 0.  1.
          5    1    4    4  503    0  0.22839540446E+02 -0.45337092237E+01  0.43694654495E+02  0.49734414227E+02  0.47000000000E+01 0. -1.
         -5    1    4    4    0  503 -0.88038029742E+02 -0.50407802608E+02  0.12922008793E+03  0.16435194665E+03  0.47000000000E+01 0.  1.
<mgrwt>
<rscale>  0 0.12465971E+03</rscale>
<asrwt>0</asrwt>
<pdfrwt beam="1">  1        2 0.73375848E-02 0.12622782E+03</pdfrwt>
<pdfrwt beam="2">  1       -2 0.50224326E-01 0.12622782E+03</pdfrwt>
<totfact> 0.34407759E+03</totfact>
</mgrwt>
</event>
<event>
 8    1  0.9456677E-004  0.9369244E+02  0.7546771E-02  0.1294318E+00
         -1   -1    0    0    0  501 -0.00000000000E+00  0.00000000000E+00  0.13948489855E+03  0.13948489855E+03  0.00000000000E+00 0.  1.
          1   -1    0    0  501    0  0.00000000000E+00 -0.00000000000E+00 -0.71510893165E+02  0.71510893165E+02  0.00000000000E+00 0. -1.
         23    2    1    2    0    0 -0.19439541063E+02  0.93132718739E+01  0.70897313699E+02  0.11725775571E+03  0.90875295840E+02 0.  0.
         23    2    1    2    0    0  0.19439541063E+02 -0.93132718739E+01 -0.29233083097E+01  0.93738036012E+02  0.91179169081E+02 0.  0.
          5    1    3    3  502    0 -0.15411950374E+02 -0.32217677082E+02  0.65727121975E+02  0.74950993949E+02  0.47000000000E+01 0. -1.
         -5    1    3    3    0  502 -0.40275906893E+01  0.41530948956E+02  0.51701917246E+01  0.42306761758E+02  0.47000000000E+01 0.  1.
          5    1    4    4  503    0  0.28282320086E+02  0.33518974115E+02 -0.17420414444E+02  0.47423328590E+02  0.47000000000E+01 0. -1.
         -5    1    4    4    0  503 -0.88427790224E+01 -0.42832245989E+02  0.14497106135E+02  0.46314707422E+02  0.47000000000E+01 0.  1.
<mgrwt>
<rscale>  0 0.93618430E+02</rscale>
<asrwt>0</asrwt>
<pdfrwt beam="1">  1        1 0.11001676E-01 0.93692442E+02</pdfrwt>
<pdfrwt beam="2">  1       -1 0.21459215E-01 0.93692442E+02</pdfrwt>
<totfact> 0.92212922E+03</totfact>
</mgrwt>
</event>
<event>
 8    1  0.9456677E-004  0.1031753E+03  0.7546771E-02  0.1280092E+00
          1   -1    0    0  501    0  0.00000000000E+00  0.00000000000E+00  0.11353368707E+03  0.11353368707E+03  0.00000000000E+00 0. -1.
         -1   -1    0    0    0  501 -0.00000000000E+00 -0.00000000000E+00 -0.84365939688E+02  0.84365939688E+02  0.00000000000E+00 0.  1.
         23    2    1    2    0    0 -0.26218921822E+00 -0.48468323829E+02  0.24454595994E+02  0.94616700997E+02  0.77492229833E+02 0.  0.
         23    2    1    2    0    0  0.26218921822E+00  0.48468323829E+02  0.47131513870E+01  0.10328292576E+03  0.91081841216E+02 0.  0.
          5    1    4    4  502    0  0.30100865992E+02 -0.13098945152E+02 -0.65023082454E+01  0.33793705184E+02  0.47000000000E+01 0. -1.
         -5    1    4    4    0  502 -0.29838676774E+02  0.61567268981E+02  0.11215459632E+02  0.69489220575E+02  0.47000000000E+01 0.  1.
          5    1    3    3  503    0  0.27121658934E+02  0.73929254190E+01  0.12358557582E+02  0.31065474004E+02  0.47000000000E+01 0. -1.
         -5    1    3    3    0  503 -0.27383848152E+02 -0.55861249248E+02  0.12096038412E+02  0.63551226994E+02  0.47000000000E+01 0.  1.
<mgrwt>
<rscale>  0 0.10009690E+03</rscale>
<asrwt>0</asrwt>
<pdfrwt beam="1">  1        1 0.17466721E-01 0.10317533E+03</pdfrwt>
<pdfrwt beam="2">  1       -1 0.12979375E-01 0.10317533E+03</pdfrwt>
<totfact> 0.11283279E+04</totfact>
</mgrwt>
</event>
<event>
 8    1  0.9456677E-004  0.9518521E+02  0.7546771E-02  0.1292953E+00
          2   -1    0    0  501    0  0.00000000000E+00  0.00000000000E+00  0.25979683282E+03  0.25979683282E+03  0.00000000000E+00 0. -1.
         -2   -1    0    0    0  501 -0.00000000000E+00 -0.00000000000E+00 -0.76161734207E+02  0.76161734207E+02  0.00000000000E+00 0.  1.
         23    2    1    2    0    0  0.22097603659E+02  0.81999275631E+01  0.21836994328E+03  0.23821346667E+03  0.92220825585E+02 0.  0.
         23    2    1    2    0    0 -0.22097603659E+02 -0.81999275631E+01 -0.34734844669E+02  0.97745100362E+02  0.88272602268E+02 0.  0.
          5    1    3    3  502    0  0.11358613927E+02  0.42186882505E+02  0.52359211097E+02  0.68354430380E+02  0.47000000000E+01 0. -1.
         -5    1    3    3    0  502  0.10738989731E+02 -0.33986954942E+02  0.16601073219E+03  0.16985903629E+03  0.47000000000E+01 0.  1.
          5    1    4    4  503    0  0.97454271545E+01  0.33834412104E+02 -0.21696107620E+01  0.35588453236E+02  0.47000000000E+01 0. -1.
         -5    1    4    4    0  503 -0.31843030813E+02 -0.42034339667E+02 -0.32565233907E+02  0.62156647127E+02  0.47000000000E+01 0.  1.
<mgrwt>
<rscale>  0 0.94215480E+02</rscale>
<asrwt>0</asrwt>
<pdfrwt beam="1">  1        2 0.39968743E-01 0.95185207E+02</pdfrwt>
<pdfrwt beam="2">  1       -2 0.11717190E-01 0.95185207E+02</pdfrwt>
<totfact> 0.61163003E+03</totfact>
</mgrwt>
</event>
<event>
 8    1  0.9456677E-004  0.9053349E+02  0.7546771E-02  0.1307823E+00
         -1   -1    0    0    0  501 -0.00000000000E+00  0.00000000000E+00  0.12470333188E+02  0.12470333188E+02  0.00000000000E+00 0.  1.
          1   -1    0    0  501    0  0.00000000000E+00 -0.00000000000E+00 -0.61942759052E+03  0.61942759052E+03  0.00000000000E+00 0. -1.
         23    2    1    2    0    0  0.61509759576E+01  0.18746210353E+00 -0.35797998653E+03  0.36697152967E+03  0.80501945207E+02 0.  0.
         23    2    1    2    0    0 -0.61509759576E+01 -0.18746210353E+00 -0.24897727080E+03  0.26492639404E+03  0.90324101083E+02 0.  0.
          5    1    4    4  502    0 -0.20144694999E+02  0.34457145249E+02 -0.59885772984E+02  0.72121421237E+02  0.47000000000E+01 0. -1.
         -5    1    3    3    0  503  0.42756950317E+02  0.92732003856E+00 -0.16673575830E+03  0.17219732814E+03  0.47000000000E+01 0.  1.
          5    1    3    3  503    0 -0.36605974359E+02 -0.73985793503E+00 -0.19124422823E+03  0.19477420153E+03  0.47000000000E+01 0. -1.
         -5    1    4    4    0  502  0.13993719041E+02 -0.34644607352E+02 -0.18909149781E+03  0.19280497280E+03  0.47000000000E+01 0.  1.
<mgrwt>
<rscale>  0 0.87978154E+02</rscale>
<asrwt>0</asrwt>
<pdfrwt beam="1">  1        1 0.95296562E-01 0.90533490E+02</pdfrwt>
<pdfrwt beam="2">  1       -1 0.19185126E-02 0.90533490E+02</pdfrwt>
<totfact> 0.22224422E+04</totfact>
</mgrwt>
</event>
<event>
 8    1  0.9456677E-004  0.9425528E+02  0.7546771E-02  0.1293424E+00
          1   -1    0    0  501    0  0.00000000000E+00  0.00000000000E+00  0.24317600848E+03  0.24317600848E+03  0.00000000000E+00 0. -1.
         -1   -1    0    0    0  501 -0.00000000000E+00 -0.00000000000E+00 -0.44154830544E+02  0.44154830544E+02  0.00000000000E+00 0.  1.
         23    2    1    2    0    0  0.99772037044E+01  0.18493790364E+02  0.38782216526E+02  0.10192211561E+03  0.91883036828E+02 0.  0.
         23    2    1    2    0    0 -0.99772037044E+01 -0.18493790364E+02  0.16023896141E+03  0.18540872342E+03  0.90875217125E+02 0.  0.
          5    1    4    4  502    0  0.36093947371E+02 -0.89236190752E+01  0.33992565132E+02  0.50596328903E+02  0.47000000000E+01 0. -1.
         -5    1    3    3    0  503 -0.26658574059E+02 -0.22789443908E+02  0.20286168215E+01  0.35443527064E+02  0.47000000000E+01 0.  1.
          5    1    3    3  503    0  0.36635777764E+02  0.41283234272E+02  0.36753599704E+02  0.66478588549E+02  0.47000000000E+01 0. -1.
         -5    1    4    4    0  502 -0.46071151075E+02 -0.95701712885E+01  0.12624639628E+03  0.13481239451E+03  0.47000000000E+01 0.  1.
<mgrwt>
<rscale>  0 0.94008766E+02</rscale>
<asrwt>0</asrwt>
<pdfrwt beam="1">  1        1 0.37411693E-01 0.94255277E+02</pdfrwt>
<pdfrwt beam="2">  1       -1 0.67930510E-02 0.94255277E+02</pdfrwt>
<totfact> 0.11534628E+04</totfact>
</mgrwt>
</event>
<event>
 8    1  0.9456677E-004  0.1004726E+03  0.7546771E-02  0.1280494E+00
         -4   -1    0    0    0  501 -0.00000000000E+00  0.00000000000E+00  0.10156266051E+03  0.10156266051E+03  0.00000000000E+00 0.  1.
          4   -1    0    0  501    0  0.00000000000E+00 -0.00000000000E+00 -0.16332432078E+03  0.16332432078E+03  0.00000000000E+00 0. -1.
         23    2    1    2    0    0 -0.31637207345E+02 -0.29015220801E+02  0.53607284115E+02  0.11190093887E+03  0.88347514302E+02 0.  0.
         23    2    1    2    0    0  0.31637207345E+02  0.29015220801E+02 -0.11536894439E+03  0.15298604242E+03  0.90840188895E+02 0.  0.
          5    1    3    3  502    0  0.11513481158E+02 -0.48750836577E+02  0.31351029273E+02  0.59280530968E+02  0.47000000000E+01 0. -1.
         -5    1    4    4    0  503  0.54148966520E+02  0.17086980306E+02 -0.31280274250E+02  0.64997084768E+02  0.47000000000E+01 0.  1.
          5    1    4    4  503    0 -0.22511759175E+02  0.11928240495E+02 -0.84088670142E+02  0.87988957652E+02  0.47000000000E+01 0. -1.
         -5    1    3    3    0  502 -0.43150688504E+02  0.19735615775E+02  0.22256254842E+02  0.52620407904E+02  0.47000000000E+01 0.  1.
<mgrwt>
<rscale>  0 0.99905804E+02</rscale>
<asrwt>0</asrwt>
<pdfrwt beam="1">  1        4 0.25126818E-01 0.10047256E+03</pdfrwt>
<pdfrwt beam="2">  1       -4 0.15625025E-01 0.10047256E+03</pdfrwt>
<totfact> 0.80544276E+02</totfact>
</mgrwt>
</event>
<event>
 8    1  0.9456677E-004  0.1227836E+03  0.7546771E-02  0.1238626E+00
         -3   -1    0    0    0  501 -0.00000000000E+00  0.00000000000E+00  0.66488545014E+03  0.66488545014E+03  0.00000000000E+00 0.  1.
          3   -1    0    0  501    0  0.00000000000E+00 -0.00000000000E+00 -0.28064493673E+02  0.28064493673E+02  0.00000000000E+00 0. -1.
         23    2    1    2    0    0 -0.49970185962E+02  0.63331253675E+02  0.16609928547E+03  0.20647824481E+03  0.92392779844E+02 0.  0.
         23    2    1    2    0    0  0.49970185962E+02 -0.63331253675E+02  0.47072167099E+03  0.48647169900E+03  0.92563249795E+02 0.  0.
          5    1    3    3  502    0 -0.54102894311E+01  0.68866347019E+02  0.61722253466E+02  0.92755439498E+02  0.47000000000E+01 0. -1.
         -5    1    3    3    0  502 -0.44559896531E+02 -0.55350933440E+01  0.10437703201E+03  0.11372280531E+03  0.47000000000E+01 0.  1.
          5    1    4    4  503    0  0.69888937576E+02 -0.71603689064E+02  0.36679388545E+03  0.38022545455E+03  0.47000000000E+01 0.  1.
         -5    1    4    4    0  503 -0.19918751614E+02  0.82724353893E+01  0.10392778554E+03  0.10624624445E+03  0.47000000000E+01 0. -1.
<mgrwt>
<rscale>  0 0.12275151E+03</rscale>
<asrwt>0</asrwt>
<pdfrwt beam="1">  1        3 0.43176149E-02 0.12278364E+03</pdfrwt>
<pdfrwt beam="2">  1       -3 0.10229006E+00 0.12278364E+03</pdfrwt>
<totfact> 0.56466199E+02</totfact>
</mgrwt>
</event>
<event>
 8    1  0.9456677E-004  0.1025515E+03  0.7546771E-02  0.1281055E+00
          1   -1    0    0  501    0  0.00000000000E+00  0.00000000000E+00  0.29804432032E+03  0.29804432032E+03  0.00000000000E+00 0. -1.
         -1   -1    0    0    0  501 -0.00000000000E+00 -0.00000000000E+00 -0.31563238186E+02  0.31563238186E+02  0.00000000000E+00 0.  1.
         23    2    1    2    0    0 -0.50316682989E+02 -0.36380740999E+01  0.12886785557E+03  0.15798525886E+03  0.76206388485E+02 0.  0.
         23    2    1    2    0    0  0.50316682989E+02  0.36380740999E+01  0.13761322656E+03  0.17162229964E+03  0.89284990015E+02 0.  0.
          5    1    3    3  502    0 -0.19016850439E+02  0.30001365335E+02  0.23258758275E+02  0.42717471357E+02  0.47000000000E+01 0. -1.
         -5    1    4    4    0  503  0.17698129252E+02 -0.29706955162E+02  0.10971521112E+02  0.36581296308E+02  0.47000000000E+01 0.  1.
          5    1    4    4  503    0  0.32618553737E+02  0.33345029262E+02  0.12664170544E+03  0.13504100334E+03  0.47000000000E+01 0. -1.
         -5    1    3    3    0  502 -0.31299832550E+02 -0.33639439435E+02  0.10560909730E+03  0.11526778750E+03  0.47000000000E+01 0.  1.
<mgrwt>
<rscale>  0 0.99639856E+02</rscale>
<asrwt>0</asrwt>
<pdfrwt beam="1">  1        1 0.45852970E-01 0.10255152E+03</pdfrwt>
<pdfrwt beam="2">  1       -1 0.48558830E-02 0.10255152E+03</pdfrwt>
<totfact> 0.14868988E+04</totfact>
</mgrwt>
</event>
<event>
 8    1  0.9456677E-004  0.9515465E+02  0.7546771E-02  0.1291136E+00
          1   -1    0    0  501    0  0.00000000000E+00  0.00000000000E+00  0.22427985445E+03  0.22427985445E+03  0.00000000000E+00 0. -1.
         -1   -1    0    0    0  501 -0.00000000000E+00 -0.00000000000E+00 -0.53814029324E+02  0.53814029324E+02  0.00000000000E+00 0.  1.
         23    2    1    2    0    0  0.26281542827E+02 -0.34962555415E+01  0.14958713901E+02  0.95784066150E+02  0.90817844670E+02 0.  0.
         23    2    1    2    0    0 -0.26281542827E+02  0.34962555415E+01  0.15550711122E+03  0.18230981762E+03  0.91386348346E+02 0.  0.
          5    1    4    4  502    0 -0.45141353697E+02  0.21371718388E+02  0.14577756243E+03  0.15416770047E+03  0.47000000000E+01 0. -1.
         -5    1    4    4    0  502  0.18859810870E+02 -0.17875462847E+02  0.97295487936E+01  0.28142117151E+02  0.47000000000E+01 0.  1.
          5    1    3    3  503    0 -0.63464367114E+01  0.19305363675E+02  0.42369524745E+02  0.47225426972E+02  0.47000000000E+01 0. -1.
         -5    1    3    3    0  503  0.32627979539E+02 -0.22801619217E+02 -0.27410810844E+02  0.48558639178E+02  0.47000000000E+01 0.  1.
<mgrwt>
<rscale>  0 0.95017894E+02</rscale>
<asrwt>0</asrwt>
<pdfrwt beam="1">  1        1 0.34504592E-01 0.95154653E+02</pdfrwt>
<pdfrwt beam="2">  1       -1 0.82790816E-02 0.95154653E+02</pdfrwt>
<totfact> 0.94922874E+03</totfact>
</mgrwt>
</event>
<event>
 8    1  0.9456677E-004  0.9963272E+02  0.7546771E-02  0.1281656E+00
         -1   -1    0    0    0  501 -0.00000000000E+00  0.00000000000E+00  0.85198807485E+03  0.85198807485E+03  0.00000000000E+00 0.  1.
          1   -1    0    0  501    0  0.00000000000E+00 -0.00000000000E+00 -0.11899356164E+02  0.11899356164E+02  0.00000000000E+00 0. -1.
         23    2    1    2    0    0 -0.91687517463E+01  0.34730587956E+02  0.49914879342E+03  0.50899528116E+03  0.92932225448E+02 0.  0.
         23    2    1    2    0    0  0.91687517463E+01 -0.34730587956E+02  0.34093992527E+03  0.35489214985E+03  0.91750344064E+02 0.  0.
          5    1    4    4  502    0  0.36281513489E+02 -0.19526628113E+02  0.64570165486E+02  0.76740039728E+02  0.47000000000E+01 0. -1.
         -5    1    4    4    0  502 -0.27112761743E+02 -0.15203959844E+02  0.27636975978E+03  0.27815211012E+03  0.47000000000E+01 0.  1.
          5    1    3    3  503    0  0.40540860981E+02  0.70978187658E+01  0.24875452787E+03  0.25218018474E+03  0.47000000000E+01 0. -1.
         -5    1    3    3    0  503 -0.49709612727E+02  0.27632769191E+02  0.25039426555E+03  0.25681509642E+03  0.47000000000E+01 0.  1.
<mgrwt>
<rscale>  0 0.99356199E+02</rscale>
<asrwt>0</asrwt>
<pdfrwt beam="1">  1        1 0.18306709E-02 0.99632717E+02</pdfrwt>
<pdfrwt beam="2">  1       -1 0.13107504E+00 0.99632717E+02</pdfrwt>
<totfact> 0.34383814E+03</totfact>
</mgrwt>
</event>
<event>
 8    1  0.9456677E-004  0.2342237E+03  0.7546771E-02  0.1123732E+00
          1   -1    0    0  501    0  0.00000000000E+00  0.00000000000E+00  0.98957882276E+03  0.98957882276E+03  0.00000000000E+00 0. -1.
         -1   -1    0    0    0  501 -0.00000000000E+00 -0.00000000000E+00 -0.56665626681E+02  0.56665626681E+02  0.00000000000E+00 0.  1.
         23    2    1    2    0    0  0.52872551367E+02 -0.20933464459E+03  0.38799712567E+03  0.45312197668E+03  0.90339670764E+02 0.  0.
         23    2    1    2    0    0 -0.52872551367E+02  0.20933464459E+03  0.54491607042E+03  0.59312247276E+03  0.90797818180E+02 0.  0.
          5    1    3    3  502    0  0.37316576413E+01 -0.15335653494E+03  0.30543202372E+03  0.34182299980E+03  0.47000000000E+01 0. -1.
         -5    1    4    4    0  503 -0.32177296095E+02  0.18564441899E+03  0.36890795261E+03  0.41426367954E+03  0.47000000000E+01 0.  1.
          5    1    4    4  503    0 -0.20695255271E+02  0.23690225594E+02  0.17600811781E+03  0.17885879322E+03  0.47000000000E+01 0. -1.
         -5    1    3    3    0  502  0.49140893725E+02 -0.55978109650E+02  0.82565101949E+02  0.11129897689E+03  0.47000000000E+01 0.  1.
<mgrwt>
<rscale>  0 0.23417939E+03</rscale>
<asrwt>0</asrwt>
<pdfrwt beam="1">  1        1 0.15224288E+00 0.23422370E+03</pdfrwt>
<pdfrwt beam="2">  1       -1 0.87177895E-02 0.23422370E+03</pdfrwt>
<totfact> 0.12296815E+03</totfact>
</mgrwt>
</event>
<event>
 7    1  0.9456677E-004  0.3585346E+03  0.7546771E-02  0.1093344E+00
          1   -1    0    0  501    0  0.00000000000E+00  0.00000000000E+00  0.12253650970E+04  0.12253650970E+04  0.00000000000E+00 0. -1.
         -1   -1    0    0    0  501 -0.00000000000E+00 -0.00000000000E+00 -0.51162962197E+02  0.51162962197E+02  0.00000000000E+00 0.  1.
         23    2    1    2    0    0  0.52919726002E+02  0.94508697136E+02  0.35682303523E+03  0.38397237652E+03  0.91540789939E+02 0.  0.
          5    1    1    2  502    0 -0.18201127926E+03 -0.12381056065E+02  0.28344272297E+03  0.33711016527E+03  0.47000000000E+01 0. -1.
         -5    1    1    2    0  502  0.12909155325E+03 -0.82127641071E+02  0.53393637663E+03  0.55544551744E+03  0.47000000000E+01 0.  1.
          5    1    3    3  503    0  0.11695470632E+02  0.26005085404E+02  0.24347808180E+03  0.24518710165E+03  0.47000000000E+01 0. -1.
         -5    1    3    3    0  503  0.41224255370E+02  0.68503611732E+02  0.11334495344E+03  0.13878527487E+03  0.47000000000E+01 0.  1.
<mgrwt>
<rscale>  0 0.28433511E+03</rscale>
<asrwt>0</asrwt>
<pdfrwt beam="1">  1        1 0.18851768E+00 0.35853459E+03</pdfrwt>
<pdfrwt beam="2">  1       -1 0.78712259E-02 0.35853459E+03</pdfrwt>
<totfact> 0.96713644E+02</totfact>
</mgrwt>
</event>
<event>
 8    1  0.9456677E-004  0.9935100E+02  0.7546771E-02  0.1282729E+00
         -2   -1    0    0    0  501 -0.00000000000E+00  0.00000000000E+00  0.14013448957E+03  0.14013448957E+03  0.00000000000E+00 0.  1.
          2   -1    0    0  501    0  0.00000000000E+00 -0.00000000000E+00 -0.71569323012E+02  0.71569323012E+02  0.00000000000E+00 0. -1.
         23    2    1    2    0    0 -0.25043249647E+02  0.17728196906E+02  0.14714292417E+02  0.10043471769E+03  0.94494279175E+02 0.  0.
         23    2    1    2    0    0  0.25043249647E+02 -0.17728196906E+02  0.53850874138E+02  0.11126909489E+03  0.92409098657E+02 0.  0.
          5    1    4    4  502    0  0.57133869993E+02  0.52962242292E+01  0.33066216779E+02  0.66391217668E+02  0.47000000000E+01 0. -1.
         -5    1    3    3    0  503 -0.47672345308E+02  0.32044553927E+02  0.34171910592E+02  0.67002353817E+02  0.47000000000E+01 0.  1.
          5    1    3    3  503    0  0.22629095661E+02 -0.14316357022E+02 -0.19457618175E+02  0.33432363868E+02  0.47000000000E+01 0. -1.
         -5    1    4    4    0  502 -0.32090620345E+02 -0.23024421135E+02  0.20784657359E+02  0.44877877226E+02  0.47000000000E+01 0.  1.
<mgrwt>
<rscale>  0 0.98851978E+02</rscale>
<asrwt>0</asrwt>
<pdfrwt beam="1">  1        2 0.11010665E-01 0.99351005E+02</pdfrwt>
<pdfrwt beam="2">  1       -2 0.21559152E-01 0.99351005E+02</pdfrwt>
<totfact> 0.95752100E+03</totfact>
</mgrwt>
</event>
<event>
 8    1  0.9456677E-004  0.1071065E+03  0.7546771E-02  0.1266972E+00
         -1   -1    0    0    0  501 -0.00000000000E+00  0.00000000000E+00  0.88540576118E+01  0.88540576118E+01  0.00000000000E+00 0.  1.
          1   -1    0    0  501    0  0.00000000000E+00 -0.00000000000E+00 -0.12774125065E+04  0.12774125065E+04  0.00000000000E+00 0. -1.
         23    2    1    2    0    0  0.41569090254E+02  0.36927267378E+02 -0.66994999843E+03  0.67815154641E+03  0.89246328574E+02 0.  0.
         23    2    1    2    0    0 -0.41569090254E+02 -0.36927267378E+02 -0.59860845045E+03  0.60811501769E+03  0.91543352853E+02 0.  0.
          5    1    3    3  502    0  0.42752069564E+02 -0.14944003144E+02 -0.44124161107E+03  0.44358461653E+03  0.47000000000E+01 0. -1.
         -5    1    4    4    0  503  0.23944396847E+02 -0.22090631059E+02 -0.31061878849E+03  0.31235789070E+03  0.47000000000E+01 0.  1.
          5    1    4    4  503    0 -0.65513487101E+02 -0.14836636319E+02 -0.28798966196E+03  0.29575712699E+03  0.47000000000E+01 0. -1.
         -5    1    3    3    0  502 -0.11829793108E+01  0.51871270522E+02 -0.22870838737E+03  0.23456692989E+03  0.47000000000E+01 0.  1.
<mgrwt>
<rscale>  0 0.10661397E+03</rscale>
<asrwt>0</asrwt>
<pdfrwt beam="1">  1        1 0.19652494E+00 0.10710648E+03</pdfrwt>
<pdfrwt beam="2">  1       -1 0.13621631E-02 0.10710648E+03</pdfrwt>
<totfact> 0.11587695E+04</totfact>
</mgrwt>
</event>
<event>
 8    1  0.9456677E-004  0.1208618E+03  0.7546771E-02  0.1245509E+00
          2   -1    0    0  501    0  0.00000000000E+00  0.00000000000E+00  0.86089493714E+02  0.86089493714E+02  0.00000000000E+00 0. -1.
         -2   -1    0    0    0  501 -0.00000000000E+00 -0.00000000000E+00 -0.35062089317E+03  0.35062089317E+03  0.00000000000E+00 0.  1.
         23    2    1    2    0    0  0.76229539186E+02  0.22111575217E+02 -0.29664238593E+03  0.32031904472E+03  0.91146699769E+02 0.  0.
         23    2    1    2    0    0 -0.76229539186E+02 -0.22111575217E+02  0.32110986476E+02  0.11639134216E+03  0.78841389346E+02 0.  0.
          5    1    4    4  502    0 -0.79418359933E+02  0.91672092554E+01  0.22894037851E+02  0.83291899901E+02  0.47000000000E+01 0. -1.
         -5    1    3    3    0  503  0.74023906253E+02  0.22203057111E+01 -0.28901923389E+03  0.29839349191E+03  0.47000000000E+01 0.  1.
          5    1    3    3  503    0  0.22056329330E+01  0.19891269506E+02 -0.76231520386E+01  0.21925552814E+02  0.47000000000E+01 0. -1.
         -5    1    4    4    0  502  0.31888207474E+01 -0.31278784472E+02  0.92169486253E+01  0.33099442258E+02  0.47000000000E+01 0.  1.
<mgrwt>
<rscale>  0 0.11854940E+03</rscale>
<asrwt>0</asrwt>
<pdfrwt beam="1">  1        2 0.13244537E-01 0.12086184E+03</pdfrwt>
<pdfrwt beam="2">  1       -2 0.53941676E-01 0.12086184E+03</pdfrwt>
<totfact> 0.14445895E+03</totfact>
</mgrwt>
</event>
<event>
 8    1  0.9456677E-004  0.1683941E+03  0.7546771E-02  0.1180304E+00
         -3   -1    0    0    0  501 -0.00000000000E+00  0.00000000000E+00  0.97447823206E+02  0.97447823206E+02  0.00000000000E+00 0.  1.
          3   -1    0    0  501    0  0.00000000000E+00 -0.00000000000E+00 -0.28866455831E+03  0.28866455831E+03  0.00000000000E+00 0. -1.
         23    2    1    2    0    0 -0.10064205724E+03 -0.96900586151E+02 -0.76287869254E+02  0.18223685453E+03  0.88723643240E+02 0.  0.
         23    2    1    2    0    0  0.10064205724E+03  0.96900586151E+02 -0.11492886585E+03  0.20387552699E+03  0.94010845215E+02 0.  0.
          5    1    4    4  502    0  0.35676683750E+02  0.23205025119E+02 -0.94037212854E+02  0.10332660043E+03  0.47000000000E+01 0. -1.
         -5    1    4    4    0  502  0.64965373492E+02  0.73695561031E+02 -0.20891652998E+02  0.10054892657E+03  0.47000000000E+01 0.  1.
          5    1    3    3  503    0 -0.66590279344E+02 -0.10898868275E+03 -0.68379246155E+02  0.14495036935E+03  0.47000000000E+01 0. -1.
         -5    1    3    3    0  503 -0.34051777899E+02  0.12088096597E+02 -0.79086230993E+01  0.37286485176E+02  0.47000000000E+01 0.  1.
<mgrwt>
<rscale>  0 0.16766603E+03</rscale>
<asrwt>0</asrwt>
<pdfrwt beam="1">  1        3 0.44409932E-01 0.16839414E+03</pdfrwt>
<pdfrwt beam="2">  1       -3 0.14991973E-01 0.16839414E+03</pdfrwt>
<totfact> 0.44951985E+02</totfact>
</mgrwt>
</event>
<event>
 8    1  0.9456677E-004  0.1230247E+03  0.7546771E-02  0.1239311E+00
         -1   -1    0    0    0  501 -0.00000000000E+00  0.00000000000E+00  0.21161734351E+02  0.21161734351E+02  0.00000000000E+00 0.  1.
          1   -1    0    0  501    0  0.00000000000E+00 -0.00000000000E+00 -0.70193923743E+03  0.70193923743E+03  0.00000000000E+00 0. -1.
         23    2    1    2    0    0  0.35271132860E+02 -0.69488855631E+02 -0.31377245288E+03  0.33602504320E+03  0.91580148498E+02 0.  0.
         23    2    1    2    0    0 -0.35271132860E+02  0.69488855631E+02 -0.36700505020E+03  0.38707592858E+03  0.95196185575E+02 0.  0.
          5    1    4    4  502    0  0.24545575992E+02  0.27584625699E+01 -0.34601806766E+02  0.42772297671E+02  0.47000000000E+01 0. -1.
         -5    1    4    4    0  502 -0.59816708852E+02  0.66730393061E+02 -0.33240324343E+03  0.34430363091E+03  0.47000000000E+01 0.  1.
          5    1    3    3  503    0  0.60883855348E+02 -0.36588753816E+02 -0.24794862912E+03  0.25796548883E+03  0.47000000000E+01 0. -1.
         -5    1    3    3    0  503 -0.25612722488E+02 -0.32900101814E+02 -0.65823823762E+02  0.78059554363E+02  0.47000000000E+01 0.  1.
<mgrwt>
<rscale>  0 0.12232464E+03</rscale>
<asrwt>0</asrwt>
<pdfrwt beam="1">  1        1 0.10799066E+00 0.12302466E+03</pdfrwt>
<pdfrwt beam="2">  1       -1 0.32556511E-02 0.12302466E+03</pdfrwt>
<totfact> 0.89471382E+03</totfact>
</mgrwt>
</event>
<event>
 8    1  0.9456677E-004  0.1003113E+03  0.7546771E-02  0.1280252E+00
          2   -1    0    0  501    0  0.00000000000E+00  0.00000000000E+00  0.42355744131E+03  0.42355744131E+03  0.00000000000E+00 0.  1.
         -2   -1    0    0    0  501 -0.00000000000E+00 -0.00000000000E+00 -0.41740208335E+02  0.41740208335E+02  0.00000000000E+00 0. -1.
         23    2    1    2    0    0 -0.26801146184E+01 -0.38313834952E+02  0.34414700774E+03  0.35814634252E+03  0.91413930916E+02 0.  0.
         23    2    1    2    0    0  0.26801146184E+01  0.38313834952E+02  0.37670225234E+02  0.10715130712E+03  0.92667274617E+02 0.  0.
          5    1    4    4  502    0 -0.30464482022E+02  0.27743861588E+02 -0.14788954399E+02  0.44029645614E+02  0.47000000000E+01 0. -1.
         -5    1    4    4    0  502  0.33144596640E+02  0.10569973364E+02  0.52459179633E+02  0.63121661505E+02  0.47000000000E+01 0.  1.
          5    1    3    3  503    0 -0.32994957261E+02  0.36733879334E+01  0.55416849494E+02  0.64770967195E+02  0.47000000000E+01 0. -1.
         -5    1    3    3    0  503  0.30314842642E+02 -0.41987222885E+02  0.28873015824E+03  0.29337537533E+03  0.47000000000E+01 0.  1.
<mgrwt>
<rscale>  0 0.10002087E+03</rscale>
<asrwt>0</asrwt>
<pdfrwt beam="1">  1        2 0.65162680E-01 0.10031130E+03</pdfrwt>
<pdfrwt beam="2">  1       -2 0.64215708E-02 0.10031130E+03</pdfrwt>
<totfact> 0.92872065E+03</totfact>
</mgrwt>
</event>
<event>
 8    1  0.9456677E-004  0.1006602E+03  0.7546771E-02  0.1279557E+00
          1   -1    0    0  501    0  0.00000000000E+00  0.00000000000E+00  0.15285558054E+03  0.15285558054E+03  0.00000000000E+00 0. -1.
         -1   -1    0    0    0  501 -0.00000000000E+00 -0.00000000000E+00 -0.13595175113E+03  0.13595175113E+03  0.00000000000E+00 0.  1.
         23    2    1    2    0    0 -0.11074883181E+02 -0.39508016720E+02 -0.95486797016E+02  0.13874508919E+03  0.91918088251E+02 0.  0.
         23    2    1    2    0    0  0.11074883181E+02  0.39508016720E+02  0.11239062642E+03  0.15006224247E+03  0.90573104648E+02 0.  0.
          5    1    3    3  502    0  0.25303499703E+02 -0.46982672150E+02 -0.83926832683E+02  0.99566268504E+02  0.47000000000E+01 0. -1.
         -5    1    4    4    0  503  0.78805425370E+01  0.68595550264E+02  0.70940803751E+02  0.99106710689E+02  0.47000000000E+01 0.  1.
          5    1    4    4  503    0  0.31943406435E+01 -0.29087533544E+02  0.41449822674E+02  0.50955531785E+02  0.47000000000E+01 0. -1.
         -5    1    3    3    0  502 -0.36378382884E+02  0.74746554300E+01 -0.11559964333E+02  0.39178820687E+02  0.47000000000E+01 0.  1.
<mgrwt>
<rscale>  0 0.10035210E+03</rscale>
<asrwt>0</asrwt>
<pdfrwt beam="1">  1        1 0.23516243E-01 0.10066018E+03</pdfrwt>
<pdfrwt beam="2">  1       -1 0.20915654E-01 0.10066018E+03</pdfrwt>
<totfact> 0.36654198E+03</totfact>
</mgrwt>
</event>
<event>
 8    1  0.2647069E-003  0.9934486E+02  0.7546771E-02  0.1282894E+00
          1   -1    0    0  501    0  0.00000000000E+00  0.00000000000E+00  0.11771101489E+03  0.11771101489E+03  0.00000000000E+00 0. -1.
         -1   -1    0    0    0  501 -0.00000000000E+00 -0.00000000000E+00 -0.79535532880E+03  0.79535532880E+03  0.00000000000E+00 0.  1.
         23    2    1    2    0    0 -0.30339512508E+02  0.13898347808E+02  0.93951933154E+02  0.13510094009E+03  0.91168241069E+02 0.  0.
         23    2    1    2    0    0  0.30339512508E+02 -0.13898347808E+02 -0.77159624707E+03  0.77796540360E+03  0.93572167933E+02 0.  0.
          5    1    4    4  502    0 -0.41976937936E+01  0.37033752821E+02 -0.27876210040E+03  0.28128191926E+03  0.47000000000E+01 0. -1.
         -5    1    4    4    0  502  0.34537206302E+02 -0.50932100629E+02 -0.49283414667E+03  0.49668348434E+03  0.47000000000E+01 0.  1.
          5    1    3    3  503    0 -0.58671800868E+02  0.13151449197E+01  0.35442595883E+02  0.68719556359E+02  0.47000000000E+01 0. -1.
         -5    1    3    3    0  503  0.28332288360E+02  0.12583202888E+02  0.58509337271E+02  0.66381383735E+02  0.47000000000E+01 0.  1.
<mgrwt>
<rscale>  0 0.98774748E+02</rscale>
<asrwt>0</asrwt>
<pdfrwt beam="1">  1        1 0.18109388E-01 0.99344857E+02</pdfrwt>
<pdfrwt beam="2">  1       -1 0.12236235E+00 0.99344857E+02</pdfrwt>
<totfact> 0.18804158E+02</totfact>
</mgrwt>
</event>
<event>
 8    1  0.9456677E-004  0.1013355E+03  0.7546771E-02  0.1279337E+00
         -2   -1    0    0    0  501 -0.00000000000E+00  0.00000000000E+00  0.65911555482E+03  0.65911555482E+03  0.00000000000E+00 0.  1.
          2   -1    0    0  501    0  0.00000000000E+00 -0.00000000000E+00 -0.32307845276E+02  0.32307845276E+02  0.00000000000E+00 0. -1.
         23    2    1    2    0    0  0.63680989898E+00  0.37052661933E+02  0.63302349077E+02  0.11948254061E+03  0.94316408051E+02 0.  0.
         23    2    1    2    0    0 -0.63680989898E+00 -0.37052661933E+02  0.56350536046E+03  0.57194085949E+03  0.90580076157E+02 0.  0.
          5    1    3    3  502    0  0.33356118284E+02  0.52403123574E+02  0.52504527387E+02  0.81471058563E+02  0.47000000000E+01 0. -1.
         -5    1    4    4    0  503 -0.35670255245E+02 -0.43985893087E+02  0.42692668339E+03  0.43069201164E+03  0.47000000000E+01 0.  1.
          5    1    4    4  503    0  0.35033445346E+02  0.69332311537E+01  0.13657867708E+03  0.14124884785E+03  0.47000000000E+01 0. -1.
         -5    1    3    3    0  502 -0.32719308385E+02 -0.15350461641E+02  0.10797821690E+02  0.38011482042E+02  0.47000000000E+01 0.  1.
<mgrwt>
<rscale>  0 0.10045718E+03</rscale>
<asrwt>0</asrwt>
<pdfrwt beam="1">  1        2 0.49704382E-02 0.10133553E+03</pdfrwt>
<pdfrwt beam="2">  1       -2 0.10140238E+00 0.10133553E+03</pdfrwt>
<totfact> 0.12511124E+03</totfact>
</mgrwt>
</event>
<event>
 8    1  0.9456677E-004  0.1151942E+03  0.7546771E-02  0.1251689E+00
          1   -1    0    0  501    0  0.00000000000E+00  0.00000000000E+00  0.42509253717E+03  0.42509253717E+03  0.00000000000E+00 0. -1.
         -1   -1    0    0    0  501 -0.00000000000E+00 -0.00000000000E+00 -0.31142574731E+02  0.31142574731E+02  0.00000000000E+00 0.  1.
         23    2    1    2    0    0  0.66592741691E+02 -0.14541250011E+02  0.17771533944E+03  0.21123079260E+03  0.91595112708E+02 0.  0.
         23    2    1    2    0    0 -0.66592741691E+02  0.14541250011E+02  0.21623462300E+03  0.24500431930E+03  0.92863680171E+02 0.  0.
          5    1    3    3  502    0  0.33037363517E+02 -0.53176041325E+02  0.98878443553E+02  0.11712470004E+03  0.47000000000E+01 0. -1.
         -5    1    4    4    0  503  0.21015138622E+02  0.12130087428E+02  0.72445920826E+02  0.76545911169E+02  0.47000000000E+01 0.  1.
          5    1    4    4  503    0 -0.87607880313E+02  0.24111625833E+01  0.14378870217E+03  0.16845840813E+03  0.47000000000E+01 0. -1.
         -5    1    3    3    0  502  0.33555378173E+02  0.38634791314E+02  0.78836895885E+02  0.94106092561E+02  0.47000000000E+01 0.  1.
<mgrwt>
<rscale>  0 0.11493830E+03</rscale>
<asrwt>0</asrwt>
<pdfrwt beam="1">  1        1 0.65398848E-01 0.11519420E+03</pdfrwt>
<pdfrwt beam="2">  1       -1 0.47911657E-02 0.11519420E+03</pdfrwt>
<totfact> 0.98589424E+03</totfact>
</mgrwt>
</event>
<event>
 8    1  0.9456677E-004  0.1987949E+03  0.7546771E-02  0.1150918E+00
          2   -1    0    0  501    0  0.00000000000E+00  0.00000000000E+00  0.43652175774E+03  0.43652175774E+03  0.00000000000E+00 0. -1.
         -2   -1    0    0    0  501 -0.00000000000E+00 -0.00000000000E+00 -0.97933297961E+02  0.97933297961E+02  0.00000000000E+00 0.  1.
         23    2    1    2    0    0 -0.50190112753E+02  0.16944889569E+03  0.24470042797E+03  0.31527404738E+03  0.91035431745E+02 0.  0.
         23    2    1    2    0    0  0.50190112753E+02 -0.16944889569E+03  0.93888031812E+02  0.21918100833E+03  0.89405683402E+02 0.  0.
          5    1    3    3  502    0 -0.22055265660E+02  0.11558021522E+02  0.34962544595E+01  0.25580000002E+02  0.47000000000E+01 0. -1.
         -5    1    4    4    0  503 -0.19755554631E+02 -0.51584394795E+02  0.51435304403E+02  0.75623490161E+02  0.47000000000E+01 0.  1.
          5    1    4    4  503    0  0.69945667384E+02 -0.11786450089E+03  0.42452727409E+02  0.14355751816E+03  0.47000000000E+01 0. -1.
         -5    1    3    3    0  502 -0.28134847093E+02  0.15789087417E+03  0.24120417351E+03  0.28969404738E+03  0.47000000000E+01 0.  1.
<mgrwt>
<rscale>  0 0.19860942E+03</rscale>
<asrwt>0</asrwt>
<pdfrwt beam="1">  1        2 0.67157192E-01 0.19879493E+03</pdfrwt>
<pdfrwt beam="2">  1       -2 0.15066661E-01 0.19879493E+03</pdfrwt>
<totfact> 0.24352725E+03</totfact>
</mgrwt>
</event>
<event>
 8    1  0.1696420E-003  0.1504300E+03  0.7546771E-02  0.1203042E+00
          2   -1    0    0  501    0  0.00000000000E+00  0.00000000000E+00  0.34148759230E+03  0.34148759230E+03  0.00000000000E+00 0. -1.
         -2   -1    0    0    0  501 -0.00000000000E+00 -0.00000000000E+00 -0.27609665013E+03  0.27609665013E+03  0.00000000000E+00 0.  1.
         23    2    1    2    0    0  0.71486607989E+02  0.68470745501E+02  0.30480360900E+03  0.33990357383E+03  0.11327233260E+03 0.  0.
         23    2    1    2    0    0 -0.71486607989E+02 -0.68470745501E+02 -0.23941266684E+03  0.27768066859E+03  0.99947739122E+02 0.  0.
          5    1    4    4  502    0 -0.32511697346E+02  0.22008314282E+02 -0.46664623957E+02  0.61164152008E+02  0.47000000000E+01 0. -1.
         -5    1    3    3    0  503  0.90604730219E+02  0.24081421049E+02  0.14370883321E+03  0.17164920833E+03  0.47000000000E+01 0.  1.
          5    1    3    3  503    0 -0.19118122230E+02  0.44389324452E+02  0.16109477579E+03  0.16825436550E+03  0.47000000000E+01 0. -1.
         -5    1    4    4    0  502 -0.38974910642E+02 -0.90479059783E+02 -0.19274804288E+03  0.21651651658E+03  0.47000000000E+01 0.  1.
<mgrwt>
<rscale>  0 0.14792839E+03</rscale>
<asrwt>0</asrwt>
<pdfrwt beam="1">  1        2 0.52536553E-01 0.15043005E+03</pdfrwt>
<pdfrwt beam="2">  1       -2 0.42476407E-01 0.15043005E+03</pdfrwt>
<totfact> 0.50569674E+02</totfact>
</mgrwt>
</event>
<event>
 8    1  0.9456677E-004  0.1244047E+03  0.7546771E-02  0.1237100E+00
         -2   -1    0    0    0  501 -0.00000000000E+00  0.00000000000E+00  0.19804270746E+02  0.19804270746E+02  0.00000000000E+00 0.  1.
          2   -1    0    0  501    0  0.00000000000E+00 -0.00000000000E+00 -0.77293297647E+03  0.77293297647E+03  0.00000000000E+00 0. -1.
         23    2    1    2    0    0  0.62850060004E+02 -0.57282637014E+02 -0.42273191383E+03  0.44065722784E+03  0.90802483023E+02 0.  0.
         23    2    1    2    0    0 -0.62850060004E+02  0.57282637014E+02 -0.33039679189E+03  0.35208001938E+03  0.86987754369E+02 0.  0.
          5    1    4    4  502    0 -0.50333392581E+02  0.79010351740E+02 -0.22772476743E+03  0.24628590255E+03  0.47000000000E+01 0. -1.
         -5    1    3    3    0  503  0.21055581478E+02 -0.70348460490E+02 -0.18912081193E+03  0.20293105950E+03  0.47000000000E+01 0.  1.
          5    1    3    3  503    0  0.41794478526E+02  0.13065823476E+02 -0.23361110190E+03  0.23772616833E+03  0.47000000000E+01 0. -1.
         -5    1    4    4    0  502 -0.12516667423E+02 -0.21727714726E+02 -0.10267202446E+03  0.10579411683E+03  0.47000000000E+01 0.  1.
<mgrwt>
<rscale>  0 0.12370977E+03</rscale>
<asrwt>0</asrwt>
<pdfrwt beam="1">  1        2 0.11891275E+00 0.12440467E+03</pdfrwt>
<pdfrwt beam="2">  1       -2 0.30468112E-02 0.12440467E+03</pdfrwt>
<totfact> 0.14529102E+04</totfact>
</mgrwt>
</event>
<event>
 8    1  0.9456677E-004  0.9714407E+02  0.7546771E-02  0.1288141E+00
         -3   -1    0    0    0  501 -0.00000000000E+00  0.00000000000E+00  0.30166725624E+03  0.30166725624E+03  0.00000000000E+00 0.  1.
          3   -1    0    0  501    0  0.00000000000E+00 -0.00000000000E+00 -0.30543415297E+02  0.30543415297E+02  0.00000000000E+00 0. -1.
         23    2    1    2    0    0  0.81854394659E+01  0.34456412775E+02  0.11836705463E+03  0.15118137444E+03  0.87125211941E+02 0.  0.
         23    2    1    2    0    0 -0.81854394659E+01 -0.34456412775E+02  0.15275678631E+03  0.18102929710E+03  0.90458414984E+02 0.  0.
          5    1    4    4  502    0 -0.12963508468E+02 -0.62566325465E+02  0.78361665362E+02  0.10121876423E+03  0.47000000000E+01 0. -1.
         -5    1    3    3    0  503 -0.27951599900E+02  0.21035780859E+02  0.10391355845E+03  0.10974476591E+03  0.47000000000E+01 0.  1.
          5    1    3    3  503    0  0.36137039366E+02  0.13420631917E+02  0.14453496175E+02  0.41436608534E+02  0.47000000000E+01 0. -1.
         -5    1    4    4    0  502  0.47780690021E+01  0.28109912690E+02  0.74395120952E+02  0.79810532865E+02  0.47000000000E+01 0.  1.
<mgrwt>
<rscale>  0 0.96360657E+02</rscale>
<asrwt>0</asrwt>
<pdfrwt beam="1">  1        3 0.46989872E-02 0.97144072E+02</pdfrwt>
<pdfrwt beam="2">  1       -3 0.46410345E-01 0.97144072E+02</pdfrwt>
<totfact> 0.25049588E+03</totfact>
</mgrwt>
</event>
<event>
 8    1  0.9456677E-004  0.1065057E+03  0.7546771E-02  0.1267729E+00
          1   -1    0    0  501    0  0.00000000000E+00  0.00000000000E+00  0.14838792528E+03  0.14838792528E+03  0.00000000000E+00 0. -1.
         -1   -1    0    0    0  501 -0.00000000000E+00 -0.00000000000E+00 -0.88340752590E+02  0.88340752590E+02  0.00000000000E+00 0.  1.
         23    2    1    2    0    0 -0.22388307109E+02 -0.45493597387E+02  0.75042922041E+02  0.13028778544E+03  0.93661962338E+02 0.  0.
         23    2    1    2    0    0  0.22388307109E+02  0.45493597387E+02 -0.14995749351E+02  0.10644089243E+03  0.92379041905E+02 0.  0.
          5    1    3    3  502    0  0.32081894662E+02  0.38746325777E+01  0.19537086743E+02  0.38053232466E+02  0.47000000000E+01 0. -1.
         -5    1    4    4    0  503 -0.41435766849E+01 -0.22871551652E+02 -0.22354654306E+02  0.32589840010E+02  0.47000000000E+01 0.  1.
          5    1    4    4  503    0  0.26531883794E+02  0.68365149039E+02  0.73589049547E+01  0.73851052416E+02  0.47000000000E+01 0. -1.
         -5    1    3    3    0  502 -0.54470201772E+02 -0.49368229964E+02  0.55505835298E+02  0.92234552978E+02  0.47000000000E+01 0.  1.
<mgrwt>
<rscale>  0 0.10622298E+03</rscale>
<asrwt>0</asrwt>
<pdfrwt beam="1">  1        1 0.22828912E-01 0.10650571E+03</pdfrwt>
<pdfrwt beam="2">  1       -1 0.13590885E-01 0.10650571E+03</pdfrwt>
<totfact> 0.75181628E+03</totfact>
</mgrwt>
</event>
<event>
 7    1  0.9456677E-004  0.1166098E+03  0.7546771E-02  0.1267969E+00
         -3   -1    0    0    0  501 -0.00000000000E+00  0.00000000000E+00  0.54979809630E+03  0.54979809630E+03  0.00000000000E+00 0.  1.
          3   -1    0    0  501    0  0.00000000000E+00 -0.00000000000E+00 -0.17676524484E+02  0.17676524484E+02  0.00000000000E+00 0. -1.
         23    2    1    2    0    0  0.38814527457E+02 -0.45253451365E+02  0.29301363311E+03  0.31536459450E+03  0.10021674450E+03 0.  0.
          5    1    1    2  502    0 -0.52835937555E+01  0.34371065313E+02  0.60024017191E+02  0.69528836704E+02  0.47000000000E+01 0. -1.
         -5    1    3    3    0  503  0.12898676659E+02  0.30975842007E+02  0.11593234332E+03  0.12078193936E+03  0.47000000000E+01 0.  1.
          5    1    3    3  503    0  0.25915850798E+02 -0.76229293372E+02  0.17708128979E+03  0.19458265514E+03  0.47000000000E+01 0. -1.
         -5    1    1    2    0  502 -0.33530933701E+02  0.10882386052E+02  0.17908392152E+03  0.18258118957E+03  0.47000000000E+01 0.  1.
<mgrwt>
<rscale>  0 0.10609920E+03</rscale>
<asrwt>0</asrwt>
<pdfrwt beam="1">  1        3 0.27194657E-02 0.11660977E+03</pdfrwt>
<pdfrwt beam="2">  1       -3 0.84584309E-01 0.11660977E+03</pdfrwt>
<totfact> 0.17509381E+03</totfact>
</mgrwt>
</event>
<event>
 8    1  0.9456677E-004  0.9321088E+02  0.7546771E-02  0.1295366E+00
          2   -1    0    0  501    0  0.00000000000E+00  0.00000000000E+00  0.30601185514E+02  0.30601185514E+02  0.00000000000E+00 0. -1.
         -2   -1    0    0    0  501 -0.00000000000E+00 -0.00000000000E+00 -0.31442593395E+03  0.31442593395E+03  0.00000000000E+00 0.  1.
         23    2    1    2    0    0 -0.86550057790E+01  0.17493120864E+02 -0.19628026391E+03  0.21728831109E+03  0.91144663769E+02 0.  0.
         23    2    1    2    0    0  0.86550057790E+01 -0.17493120864E+02 -0.87544484524E+02  0.12773880837E+03  0.90951899325E+02 0.  0.
          5    1    3    3  502    0 -0.22711784960E+02 -0.21054706066E+01 -0.42262333216E+01  0.23668739524E+02  0.47000000000E+01 0. -1.
         -5    1    4    4    0  503 -0.10656125364E+02  0.32506676953E+02 -0.15575318791E+02  0.37880306358E+02  0.47000000000E+01 0.  1.
          5    1    4    4  503    0  0.19311131143E+02 -0.49999797817E+02 -0.71969165732E+02  0.89858502013E+02  0.47000000000E+01 0. -1.
         -5    1    3    3    0  502  0.14056779181E+02  0.19598591470E+02 -0.19205403059E+03  0.19361957157E+03  0.47000000000E+01 0.  1.
<mgrwt>
<rscale>  0 0.93163723E+02</rscale>
<asrwt>0</asrwt>
<pdfrwt beam="1">  1        2 0.47078746E-02 0.93210880E+02</pdfrwt>
<pdfrwt beam="2">  1       -2 0.48373221E-01 0.93210880E+02</pdfrwt>
<totfact> 0.63787057E+03</totfact>
</mgrwt>
</event>
<event>
 8    1  0.9456677E-004  0.2536323E+03  0.7546771E-02  0.1111034E+00
         -1   -1    0    0    0  501 -0.00000000000E+00  0.00000000000E+00  0.15677820644E+03  0.15677820644E+03  0.00000000000E+00 0.  1.
          1   -1    0    0  501    0  0.00000000000E+00 -0.00000000000E+00 -0.52500909460E+03  0.52500909460E+03  0.00000000000E+00 0. -1.
         23    2    1    2    0    0 -0.22077523669E+03 -0.86645970579E+02 -0.34346378542E+03  0.42694867018E+03  0.89825195354E+02 0.  0.
         23    2    1    2    0    0  0.22077523669E+03  0.86645970579E+02 -0.24767102752E+02  0.25483863086E+03  0.89889315516E+02 0.  0.
          5    1    4    4  502    0  0.49318744296E+02  0.50178212322E+02  0.21064328731E+02  0.73593392880E+02  0.47000000000E+01 0. -1.
         -5    1    3    3    0  503 -0.31286725486E+02 -0.44342890725E+02 -0.11389178531E+03  0.12624808874E+03  0.47000000000E+01 0.  1.
          5    1    3    3  503    0 -0.18948851121E+03 -0.42303079854E+02 -0.22957200011E+03  0.30070058144E+03  0.47000000000E+01 0. -1.
         -5    1    4    4    0  502  0.17145649240E+03  0.36467758257E+02 -0.45831431483E+02  0.18124523798E+03  0.47000000000E+01 0.  1.
<mgrwt>
<rscale>  0 0.25362657E+03</rscale>
<asrwt>0</asrwt>
<pdfrwt beam="1">  1        1 0.80770628E-01 0.25363225E+03</pdfrwt>
<pdfrwt beam="2">  1       -1 0.24119725E-01 0.25363225E+03</pdfrwt>
<totfact> 0.62814306E+02</totfact>
</mgrwt>
</event>
<event>
 8    1  0.9456677E-004  0.1049325E+03  0.7546771E-02  0.1270338E+00
         -4   -1    0    0    0  501 -0.00000000000E+00  0.00000000000E+00  0.53948693454E+02  0.53948693454E+02  0.00000000000E+00 0.  1.
          4   -1    0    0  501    0  0.00000000000E+00 -0.00000000000E+00 -0.20551399104E+03  0.20551399104E+03  0.00000000000E+00 0. -1.
         23    2    1    2    0    0 -0.22729621098E+02  0.45392733396E+02 -0.63745984625E+02  0.12263047026E+03  0.91638123940E+02 0.  0.
         23    2    1    2    0    0  0.22729621098E+02 -0.45392733396E+02 -0.87819312965E+02  0.13683221424E+03  0.91835108778E+02 0.  0.
          5    1    3    3  502    0 -0.53054504358E+02  0.52439203231E+01 -0.25666880524E+02  0.59356195034E+02  0.47000000000E+01 0. -1.
         -5    1    4    4    0  503  0.41931577818E+02  0.12252939373E+02 -0.34631680399E+02  0.55944928536E+02  0.47000000000E+01 0.  1.
          5    1    4    4  503    0 -0.19201956720E+02 -0.57645672769E+02 -0.53187632566E+02  0.80887285706E+02  0.47000000000E+01 0. -1.
         -5    1    3    3    0  502  0.30324883260E+02  0.40148813073E+02 -0.38079104101E+02  0.63274275223E+02  0.47000000000E+01 0.  1.
<mgrwt>
<rscale>  0 0.10488935E+03</rscale>
<asrwt>0</asrwt>
<pdfrwt beam="1">  1        4 0.31617537E-01 0.10493247E+03</pdfrwt>
<pdfrwt beam="2">  1       -4 0.82997990E-02 0.10493247E+03</pdfrwt>
<totfact> 0.15488419E+03</totfact>
</mgrwt>
</event>
<event>
 8    1  0.9456677E-004  0.1017924E+03  0.7546771E-02  0.1277066E+00
         -3   -1    0    0    0  501 -0.00000000000E+00  0.00000000000E+00  0.69325613277E+02  0.69325613277E+02  0.00000000000E+00 0.  1.
          3   -1    0    0  501    0  0.00000000000E+00 -0.00000000000E+00 -0.16498842651E+03  0.16498842651E+03  0.00000000000E+00 0. -1.
         23    2    1    2    0    0 -0.28208498605E+02 -0.34214795030E+02 -0.85156729713E+02  0.13198087068E+03  0.90558875979E+02 0.  0.
         23    2    1    2    0    0  0.28208498605E+02  0.34214795030E+02 -0.10506083521E+02  0.10233316910E+03  0.91626023134E+02 0.  0.
          5    1    3    3  502    0  0.91395962480E+00 -0.29932564222E+02  0.10270998280E+02  0.32005892095E+02  0.47000000000E+01 0. -1.
         -5    1    4    4    0  503  0.40321021526E+02 -0.20447390813E+02 -0.18981585070E+01  0.45492566136E+02  0.47000000000E+01 0.  1.
          5    1    4    4  503    0 -0.12112522921E+02  0.54662185843E+02 -0.86079250140E+01  0.56840602967E+02  0.47000000000E+01 0. -1.
         -5    1    3    3    0  502 -0.29122458230E+02 -0.42822308079E+01 -0.95427727992E+02  0.99974978589E+02  0.47000000000E+01 0.  1.
<mgrwt>
<rscale>  0 0.10155171E+03</rscale>
<asrwt>0</asrwt>
<pdfrwt beam="1">  1        3 0.25382835E-01 0.10179243E+03</pdfrwt>
<pdfrwt beam="2">  1       -3 0.10665479E-01 0.10179243E+03</pdfrwt>
<totfact> 0.21025845E+03</totfact>
</mgrwt>
</event>
<event>
 8    1  0.9456677E-004  0.1102633E+03  0.7546771E-02  0.1260446E+00
         -1   -1    0    0    0  501 -0.00000000000E+00  0.00000000000E+00  0.33419216022E+02  0.33419216022E+02  0.00000000000E+00 0.  1.
          1   -1    0    0  501    0  0.00000000000E+00 -0.00000000000E+00 -0.56945130780E+03  0.56945130780E+03  0.00000000000E+00 0. -1.
         23    2    1    2    0    0  0.46761471313E+02 -0.37016831841E+02 -0.85131205882E+02  0.13868347758E+03  0.91809061103E+02 0.  0.
         23    2    1    2    0    0 -0.46761471313E+02  0.37016831841E+02 -0.45090088590E+03  0.46418704624E+03  0.92742244720E+02 0.  0.
          5    1    4    4  502    0 -0.55068654293E+02 -0.99663425005E+01 -0.31759146703E+03  0.32251870426E+03  0.47000000000E+01 0. -1.
         -5    1    4    4    0  502  0.83071829800E+01  0.46983174342E+02 -0.13330941887E+03  0.14166834198E+03  0.47000000000E+01 0.  1.
          5    1    3    3  503    0 -0.90784390212E+01  0.24109458574E+02 -0.25431532973E+02  0.36503930160E+02  0.47000000000E+01 0. -1.
         -5    1    3    3    0  503  0.55839910335E+02 -0.61126290415E+02 -0.59699672909E+02  0.10217954742E+03  0.47000000000E+01 0.  1.
<mgrwt>
<rscale>  0 0.11006689E+03</rscale>
<asrwt>0</asrwt>
<pdfrwt beam="1">  1        1 0.87607889E-01 0.11026334E+03</pdfrwt>
<pdfrwt beam="2">  1       -1 0.51414181E-02 0.11026334E+03</pdfrwt>
<totfact> 0.60708634E+03</totfact>
</mgrwt>
</event>
<event>
 8    1  0.9456677E-004  0.1067510E+03  0.7546771E-02  0.1268039E+00
         -2   -1    0    0    0  501 -0.00000000000E+00  0.00000000000E+00  0.12387508895E+03  0.12387508895E+03  0.00000000000E+00 0.  1.
          2   -1    0    0  501    0  0.00000000000E+00 -0.00000000000E+00 -0.13023827317E+03  0.13023827317E+03  0.00000000000E+00 0. -1.
         23    2    1    2    0    0  0.40387232875E+02  0.38549701232E+02  0.67707036565E+02  0.12641209860E+03  0.90986635436E+02 0.  0.
         23    2    1    2    0    0 -0.40387232875E+02 -0.38549701232E+02 -0.74070220781E+02  0.12770126351E+03  0.87772473203E+02 0.  0.
          5    1    4    4  502    0 -0.52686036005E+02 -0.58395289033E+02 -0.47418066575E+02  0.91958638577E+02  0.47000000000E+01 0. -1.
         -5    1    4    4    0  502  0.12298803129E+02  0.19845587802E+02 -0.26652154206E+02  0.35742624938E+02  0.47000000000E+01 0.  1.
          5    1    3    3  503    0 -0.20385186396E+01 -0.21530772556E+02 -0.52098324908E+01  0.22736800120E+02  0.47000000000E+01 0. -1.
         -5    1    3    3    0  503  0.42425751515E+02  0.60080473788E+02  0.72916869056E+02  0.10367529848E+03  0.47000000000E+01 0.  1.
<mgrwt>
<rscale>  0 0.10606289E+03</rscale>
<asrwt>0</asrwt>
<pdfrwt beam="1">  1        2 0.20036657E-01 0.10675100E+03</pdfrwt>
<pdfrwt beam="2">  1       -2 0.19057706E-01 0.10675100E+03</pdfrwt>
<totfact> 0.59124153E+03</totfact>
</mgrwt>
</event>
<event>
 8    1  0.9456677E-004  0.9636003E+02  0.7546771E-02  0.1288203E+00
         -2   -1    0    0    0  501 -0.00000000000E+00  0.00000000000E+00  0.16151669279E+02  0.16151669279E+02  0.00000000000E+00 0.  1.
          2   -1    0    0  501    0  0.00000000000E+00 -0.00000000000E+00 -0.57422410315E+03  0.57422410315E+03  0.00000000000E+00 0. -1.
         23    2    1    2    0    0  0.18382669018E+02  0.44464907354E+02 -0.27814757072E+03  0.29432985668E+03  0.83360319882E+02 0.  0.
         23    2    1    2    0    0 -0.18382669018E+02 -0.44464907354E+02 -0.27992486315E+03  0.29604591574E+03  0.83487751880E+02 0.  0.
          5    1    3    3  502    0 -0.88721543339E+01 -0.21173512925E+02 -0.48039456112E+02  0.53450089949E+02  0.47000000000E+01 0. -1.
         -5    1    3    3    0  502  0.27254823352E+02  0.65638420279E+02 -0.23010811461E+03  0.24087976673E+03  0.47000000000E+01 0.  1.
          5    1    4    4  503    0  0.26577780004E+02 -0.31062168358E+02 -0.19112250318E+03  0.19550227087E+03  0.47000000000E+01 0. -1.
         -5    1    4    4    0  503 -0.44960449022E+02 -0.13402738996E+02 -0.88802359968E+02  0.10054364487E+03  0.47000000000E+01 0.  1.
<mgrwt>
<rscale>  0 0.96332420E+02</rscale>
<asrwt>0</asrwt>
<pdfrwt beam="1">  1        2 0.88342181E-01 0.96360029E+02</pdfrwt>
<pdfrwt beam="2">  1       -2 0.24848719E-02 0.96360029E+02</pdfrwt>
<totfact> 0.27002820E+04</totfact>
</mgrwt>
</event>
<event>
 8    1  0.9456677E-004  0.1019011E+03  0.7546771E-02  0.1277206E+00
         -1   -1    0    0    0  501 -0.00000000000E+00  0.00000000000E+00  0.30265250980E+02  0.30265250980E+02  0.00000000000E+00 0.  1.
          1   -1    0    0  501    0  0.00000000000E+00 -0.00000000000E+00 -0.60209068904E+03  0.60209068904E+03  0.00000000000E+00 0. -1.
         23    2    1    2    0    0 -0.43755165049E+02 -0.12847476628E+02 -0.49680969799E+03  0.50715255250E+03  0.91127731063E+02 0.  0.
         23    2    1    2    0    0  0.43755165049E+02  0.12847476628E+02 -0.75015740068E+02  0.12520338752E+03  0.89269002813E+02 0.  0.
          5    1    4    4  502    0 -0.26509315860E+02  0.12454092500E+02 -0.25470241612E+02  0.39098228287E+02  0.47000000000E+01 0. -1.
         -5    1    3    3    0  503  0.21177836636E+02 -0.26953026470E+02 -0.19884023948E+03  0.20182789014E+03  0.47000000000E+01 0.  1.
          5    1    3    3  503    0 -0.64933001685E+02  0.14105549842E+02 -0.29796945851E+03  0.30532466237E+03  0.47000000000E+01 0. -1.
         -5    1    4    4    0  502  0.70264480910E+02  0.39338412715E+00 -0.49545498456E+02  0.86105159229E+02  0.47000000000E+01 0.  1.
<mgrwt>
<rscale>  0 0.10148386E+03</rscale>
<asrwt>0</asrwt>
<pdfrwt beam="1">  1        1 0.92629327E-01 0.10190111E+03</pdfrwt>
<pdfrwt beam="2">  1       -1 0.46561929E-02 0.10190111E+03</pdfrwt>
<totfact> 0.64849908E+03</totfact>
</mgrwt>
</event>
<event>
 8    1  0.9456677E-004  0.9300279E+02  0.7546771E-02  0.1314760E+00
         -2   -1    0    0    0  501 -0.00000000000E+00  0.00000000000E+00  0.12789525397E+02  0.12789525397E+02  0.00000000000E+00 0.  1.
          2   -1    0    0  501    0  0.00000000000E+00 -0.00000000000E+00 -0.49765665696E+03  0.49765665696E+03  0.00000000000E+00 0. -1.
         23    2    1    2    0    0 -0.39230168740E+01  0.11465359913E+02 -0.25742554223E+03  0.27371048277E+03  0.92209945459E+02 0.  0.
         23    2    1    2    0    0  0.39230168740E+01 -0.11465359913E+02 -0.22744158933E+03  0.23673569959E+03  0.64554398501E+02 0.  0.
          5    1    4    4  502    0 -0.25831293695E+02  0.10593903189E+02 -0.94375560680E+02  0.98530822449E+02  0.47000000000E+01 0.  1.
         -5    1    4    4    0  502  0.29754310569E+02 -0.22059263102E+02 -0.13306602865E+03  0.13820487714E+03  0.47000000000E+01 0. -1.
          5    1    3    3  503    0  0.35978877580E+02  0.17125941168E+01 -0.19807899737E+03  0.20138220331E+03  0.47000000000E+01 0. -1.
         -5    1    3    3    0  503 -0.39901894454E+02  0.97527657966E+01 -0.59346544863E+02  0.72328279455E+02  0.47000000000E+01 0.  1.
<mgrwt>
<rscale>  0 0.85257666E+02</rscale>
<asrwt>0</asrwt>
<pdfrwt beam="1">  1        2 0.76562546E-01 0.93002788E+02</pdfrwt>
<pdfrwt beam="2">  1       -2 0.19676197E-02 0.93002788E+02</pdfrwt>
<totfact> 0.44047046E+04</totfact>
</mgrwt>
</event>
<event>
 8    1  0.9456677E-004  0.1023673E+03  0.7546771E-02  0.1276434E+00
          1   -1    0    0  501    0  0.00000000000E+00  0.00000000000E+00  0.23695969450E+02  0.23695969450E+02  0.00000000000E+00 0. -1.
         -1   -1    0    0    0  501 -0.00000000000E+00 -0.00000000000E+00 -0.62139053732E+03  0.62139053732E+03  0.00000000000E+00 0.  1.
         23    2    1    2    0    0 -0.41250878120E+02 -0.21136207137E+02 -0.12359473810E+03  0.16048278477E+03  0.91272617599E+02 0.  0.
         23    2    1    2    0    0  0.41250878120E+02  0.21136207137E+02 -0.47409982977E+03  0.48460372200E+03  0.89004183003E+02 0.  0.
          5    1    3    3  502    0 -0.52105784528E+02 -0.48105572128E+02 -0.72612747087E+02  0.10160639690E+03  0.47000000000E+01 0. -1.
         -5    1    3    3    0  502  0.10854906408E+02  0.26969364990E+02 -0.50981991016E+02  0.58876387874E+02  0.47000000000E+01 0.  1.
          5    1    4    4  503    0 -0.17856807784E+02 -0.16161486451E+02 -0.63594303928E+02  0.68164394816E+02  0.47000000000E+01 0. -1.
         -5    1    4    4    0  503  0.59107685905E+02  0.37297693588E+02 -0.41050552584E+03  0.41643932718E+03  0.47000000000E+01 0.  1.
<mgrwt>
<rscale>  0 0.10185920E+03</rscale>
<asrwt>0</asrwt>
<pdfrwt beam="1">  1        1 0.36455341E-02 0.10236730E+03</pdfrwt>
<pdfrwt beam="2">  1       -1 0.95598537E-01 0.10236730E+03</pdfrwt>
<totfact> 0.27372011E+03</totfact>
</mgrwt>
</event>
<event>
 8    1  0.9456677E-004  0.1164950E+03  0.7546771E-02  0.1253569E+00
         -2   -1    0    0    0  501 -0.00000000000E+00  0.00000000000E+00  0.15642516119E+02  0.15642516119E+02  0.00000000000E+00 0.  1.
          2   -1    0    0  501    0  0.00000000000E+00 -0.00000000000E+00 -0.82458755702E+03  0.82458755702E+03  0.00000000000E+00 0. -1.
         23    2    1    2    0    0 -0.43377364187E+02  0.38782839957E+02 -0.30536268993E+03  0.32334877402E+03  0.89007599997E+02 0.  0.
         23    2    1    2    0    0  0.43377364187E+02 -0.38782839957E+02 -0.50358235096E+03  0.51688129911E+03  0.10092268712E+03 0.  0.
          5    1    4    4  502    0  0.91250800889E+01  0.32786237575E+02 -0.20707852977E+03  0.20990905638E+03  0.47000000000E+01 0. -1.
         -5    1    4    4    0  502  0.34252284098E+02 -0.71569077532E+02 -0.29650382119E+03  0.30697224273E+03  0.47000000000E+01 0.  1.
          5    1    3    3  503    0 -0.39302584997E+01  0.36019797831E+02 -0.36827801324E+02  0.51877256270E+02  0.47000000000E+01 0. -1.
         -5    1    3    3    0  503 -0.39447105687E+02  0.27630421259E+01 -0.26853488861E+03  0.27147151775E+03  0.47000000000E+01 0.  1.
<mgrwt>
<rscale>  0 0.11386862E+03</rscale>
<asrwt>0</asrwt>
<pdfrwt beam="1">  1        2 0.12685961E+00 0.11649503E+03</pdfrwt>
<pdfrwt beam="2">  1       -2 0.24065412E-02 0.11649503E+03</pdfrwt>
<totfact> 0.18832696E+04</totfact>
</mgrwt>
</event>
<event>
 8    1  0.9456677E-004  0.9127250E+02  0.7546771E-02  0.1299902E+00
         -2   -1    0    0    0  501 -0.00000000000E+00  0.00000000000E+00  0.56777967417E+02  0.56777967417E+02  0.00000000000E+00 0.  1.
          2   -1    0    0  501    0  0.00000000000E+00 -0.00000000000E+00 -0.32524274081E+03  0.32524274081E+03  0.00000000000E+00 0. -1.
         23    2    1    2    0    0 -0.30332934924E+01 -0.42327521331E+01  0.74484197941E+01  0.91402816432E+02  0.90949869897E+02 0.  0.
         23    2    1    2    0    0  0.30332934924E+01  0.42327521331E+01 -0.27591319319E+03  0.29061789180E+03  0.91123826722E+02 0.  0.
          5    1    3    3  502    0  0.41031640282E+02  0.12271498838E+02  0.93052286193E+01  0.44077913604E+02  0.47000000000E+01 0. -1.
         -5    1    3    3    0  502 -0.44064933775E+02 -0.16504250972E+02 -0.18568088252E+01  0.47324902828E+02  0.47000000000E+01 0.  1.
          5    1    4    4  503    0  0.96883535778E+01 -0.41662059097E+02 -0.10533095066E+03  0.11378176713E+03  0.47000000000E+01 0. -1.
         -5    1    4    4    0  503 -0.66550600854E+01  0.45894811230E+02 -0.17058224253E+03  0.17683612467E+03  0.47000000000E+01 0.  1.
<mgrwt>
<rscale>  0 0.91229049E+02</rscale>
<asrwt>0</asrwt>
<pdfrwt beam="1">  1        2 0.50037345E-01 0.91272498E+02</pdfrwt>
<pdfrwt beam="2">  1       -2 0.87350719E-02 0.91272498E+02</pdfrwt>
<totfact> 0.76169886E+03</totfact>
</mgrwt>
</event>
<event>
 8    1  0.9456677E-004  0.1224171E+03  0.7546771E-02  0.1239163E+00
         -4   -1    0    0    0  501 -0.00000000000E+00  0.00000000000E+00  0.26238442115E+03  0.26238442115E+03  0.00000000000E+00 0.  1.
          4   -1    0    0  501    0  0.00000000000E+00 -0.00000000000E+00 -0.67501268195E+02  0.67501268195E+02  0.00000000000E+00 0. -1.
         23    2    1    2    0    0  0.71422392041E+02 -0.40244815204E+02  0.16214743240E+03  0.20316718655E+03  0.90908264858E+02 0.  0.
         23    2    1    2    0    0 -0.71422392041E+02  0.40244815204E+02  0.32735720551E+02  0.12671850279E+03  0.90912861108E+02 0.  0.
          5    1    3    3  502    0  0.15615592814E+02  0.27245399556E+02  0.25166584667E+02  0.40516731355E+02  0.47000000000E+01 0. -1.
         -5    1    3    3    0  502  0.55806799228E+02 -0.67490214760E+02  0.13698084773E+03  0.16265045519E+03  0.47000000000E+01 0.  1.
          5    1    4    4  503    0 -0.58748298837E+02  0.22245643088E+02 -0.22642454492E+02  0.66940286809E+02  0.47000000000E+01 0. -1.
         -5    1    4    4    0  503 -0.12674093205E+02  0.17999172116E+02  0.55378175043E+02  0.59778215986E+02  0.47000000000E+01 0.  1.
<mgrwt>
<rscale>  0 0.12241627E+03</rscale>
<asrwt>0</asrwt>
<pdfrwt beam="1">  1        4 0.10384811E-01 0.12241712E+03</pdfrwt>
<pdfrwt beam="2">  1       -4 0.40366833E-01 0.12241712E+03</pdfrwt>
<totfact> 0.68877716E+02</totfact>
</mgrwt>
</event>
<event>
 8    1  0.9456677E-004  0.9725050E+02  0.7546771E-02  0.1286491E+00
          1   -1    0    0  501    0  0.00000000000E+00  0.00000000000E+00  0.49119376407E+02  0.49119376407E+02  0.00000000000E+00 0. -1.
         -1   -1    0    0    0  501 -0.00000000000E+00 -0.00000000000E+00 -0.22774578660E+03  0.22774578660E+03  0.00000000000E+00 0.  1.
         23    2    1    2    0    0  0.32103335952E+02  0.64967839806E+01 -0.14436610770E+03  0.17375634831E+03  0.90977267184E+02 0.  0.
         23    2    1    2    0    0 -0.32103335952E+02 -0.64967839806E+01 -0.34260302494E+02  0.10310881470E+03  0.91568700765E+02 0.  0.
          5    1    4    4  502    0 -0.62917161033E+02 -0.14435071090E+02 -0.18652433284E+02  0.67356838533E+02  0.47000000000E+01 0. -1.
         -5    1    4    4    0  502  0.30813825080E+02  0.79382871096E+01 -0.15607869210E+02  0.35751976163E+02  0.47000000000E+01 0.  1.
          5    1    3    3  503    0  0.27411992836E+02  0.34538542102E+02 -0.13702057653E+03  0.14401755669E+03  0.47000000000E+01 0. -1.
         -5    1    3    3    0  503  0.46913431168E+01 -0.28041758121E+02 -0.73455311647E+01  0.29738791617E+02  0.47000000000E+01 0.  1.
<mgrwt>
<rscale>  0 0.97111030E+02</rscale>
<asrwt>0</asrwt>
<pdfrwt beam="1">  1        1 0.75568273E-02 0.97250498E+02</pdfrwt>
<pdfrwt beam="2">  1       -1 0.35037813E-01 0.97250498E+02</pdfrwt>
<totfact> 0.67682698E+03</totfact>
</mgrwt>
</event>
<event>
 8    1  0.9456677E-004  0.9999097E+02  0.7546771E-02  0.1280528E+00
          2   -1    0    0  501    0  0.00000000000E+00  0.00000000000E+00  0.51081704510E+03  0.51081704510E+03  0.00000000000E+00 0. -1.
         -2   -1    0    0    0  501 -0.00000000000E+00 -0.00000000000E+00 -0.19552769622E+02  0.19552769622E+02  0.00000000000E+00 0.  1.
         23    2    1    2    0    0 -0.22486096861E+02  0.37098156189E+02  0.23057555536E+03  0.25116236152E+03  0.89641214688E+02 0.  0.
         23    2    1    2    0    0  0.22486096861E+02 -0.37098156189E+02  0.26068872011E+03  0.27920745320E+03  0.90090484413E+02 0.  0.
          5    1    4    4  502    0  0.33988305582E+02 -0.59023490474E+02  0.13808812389E+03  0.15404349160E+03  0.47000000000E+01 0. -1.
         -5    1    3    3    0  503 -0.53409661793E+02  0.22081438201E+02  0.18505080114E+03  0.19392284778E+03  0.47000000000E+01 0.  1.
          5    1    3    3  503    0  0.30923564932E+02  0.15016717988E+02  0.45524754216E+02  0.57239513745E+02  0.47000000000E+01 0. -1.
         -5    1    4    4    0  502 -0.11502208721E+02  0.21925334285E+02  0.12260059622E+03  0.12516396160E+03  0.47000000000E+01 0.  1.
<mgrwt>
<rscale>  0 0.99889663E+02</rscale>
<asrwt>0</asrwt>
<pdfrwt beam="1">  1        2 0.78587228E-01 0.99990965E+02</pdfrwt>
<pdfrwt beam="2">  1       -2 0.30081188E-02 0.99990965E+02</pdfrwt>
<totfact> 0.23352458E+04</totfact>
</mgrwt>
</event>
<event>
 8    1  0.9456677E-004  0.9998386E+02  0.7546771E-02  0.1281172E+00
          2   -1    0    0  501    0  0.00000000000E+00  0.00000000000E+00  0.16359529833E+03  0.16359529833E+03  0.00000000000E+00 0. -1.
         -2   -1    0    0    0  501 -0.00000000000E+00 -0.00000000000E+00 -0.74122526213E+02  0.74122526213E+02  0.00000000000E+00 0.  1.
         23    2    1    2    0    0  0.11802531162E+02  0.37675101712E+02  0.96067316068E+02  0.13751672193E+03  0.90128833141E+02 0.  0.
         23    2    1    2    0    0 -0.11802531162E+02 -0.37675101712E+02 -0.65945439516E+01  0.10020110261E+03  0.91858913143E+02 0.  0.
          5    1    3    3  502    0  0.26805849124E+02  0.58805685015E+02  0.89283546880E+02  0.11031910025E+03  0.47000000000E+01 0. -1.
         -5    1    4    4    0  503  0.33252958666E+02 -0.42758660038E+02 -0.47896865422E+01  0.54581071494E+02  0.47000000000E+01 0.  1.
          5    1    4    4  503    0 -0.45055489828E+02  0.50835583262E+01 -0.18048574094E+01  0.45620031117E+02  0.47000000000E+01 0. -1.
         -5    1    3    3    0  502 -0.15003317962E+02 -0.21130583303E+02  0.67837691887E+01  0.27197621679E+02  0.47000000000E+01 0.  1.
<mgrwt>
<rscale>  0 0.99584700E+02</rscale>
<asrwt>0</asrwt>
<pdfrwt beam="1">  1        2 0.25168507E-01 0.99983863E+02</pdfrwt>
<pdfrwt beam="2">  1       -2 0.11403466E-01 0.99983863E+02</pdfrwt>
<totfact> 0.10505830E+04</totfact>
</mgrwt>
</event>
<event>
 8    1  0.9456677E-004  0.5053349E+03  0.7546771E-02  0.1012396E+00
         -1   -1    0    0    0  501 -0.00000000000E+00  0.00000000000E+00  0.10566809864E+03  0.10566809864E+03  0.00000000000E+00 0.  1.
          1   -1    0    0  501    0  0.00000000000E+00 -0.00000000000E+00 -0.27980755031E+04  0.27980755031E+04  0.00000000000E+00 0. -1.
         23    2    1    2    0    0 -0.49592399204E+03 -0.35555398221E+02 -0.81012118653E+03  0.95480419735E+03  0.90276941624E+02 0.  0.
         23    2    1    2    0    0  0.49592399204E+03  0.35555398221E+02 -0.18822862179E+04  0.19489394044E+04  0.90324988642E+02 0.  0.
          5    1    4    4  502    0  0.45212427922E+03  0.27339116567E+02 -0.15910163441E+04  0.16542426933E+04  0.47000000000E+01 0. -1.
         -5    1    4    4    0  502  0.43799712815E+02  0.82162816537E+01 -0.29126987381E+03  0.29469671107E+03  0.47000000000E+01 0.  1.
          5    1    3    3  503    0 -0.57548685967E+02  0.12577398114E+02 -0.14676893072E+03  0.15821899767E+03  0.47000000000E+01 0. -1.
         -5    1    3    3    0  503 -0.43837530607E+03 -0.48132796335E+02 -0.66335225582E+03  0.79658519968E+03  0.47000000000E+01 0.  1.
<mgrwt>
<rscale>  0 0.50533279E+03</rscale>
<asrwt>0</asrwt>
<pdfrwt beam="1">  1        1 0.43047314E+00 0.50533493E+03</pdfrwt>
<pdfrwt beam="2">  1       -1 0.16256631E-01 0.50533493E+03</pdfrwt>
<totfact> 0.26476331E+01</totfact>
</mgrwt>
</event>
<event>
 8    1  0.9456677E-004  0.1059232E+03  0.7546771E-02  0.1269306E+00
         -1   -1    0    0    0  501 -0.00000000000E+00  0.00000000000E+00  0.49829063380E+03  0.49829063380E+03  0.00000000000E+00 0.  1.
          1   -1    0    0  501    0  0.00000000000E+00 -0.00000000000E+00 -0.24786524315E+02  0.24786524315E+02  0.00000000000E+00 0. -1.
         23    2    1    2    0    0 -0.43853837049E+02  0.28747404929E+02  0.32100087397E+03  0.33739745500E+03  0.89698992397E+02 0.  0.
         23    2    1    2    0    0  0.43853837049E+02 -0.28747404929E+02  0.15250323552E+03  0.18567970312E+03  0.92033379774E+02 0.  0.
          5    1    3    3  502    0  0.21081952747E+02  0.58467737850E+01  0.25418821154E+02  0.33865025678E+02  0.47000000000E+01 0. -1.
         -5    1    4    4    0  503 -0.14474768026E+02  0.17174449443E+02  0.74243148578E+02  0.77708530637E+02  0.47000000000E+01 0.  1.
          5    1    4    4  503    0  0.58328605075E+02 -0.45921854373E+02  0.78260086941E+02  0.10797117248E+03  0.47000000000E+01 0. -1.
         -5    1    3    3    0  502 -0.64935789796E+02  0.22900631144E+02  0.29558205281E+03  0.30353242932E+03  0.47000000000E+01 0.  1.
<mgrwt>
<rscale>  0 0.10541404E+03</rscale>
<asrwt>0</asrwt>
<pdfrwt beam="1">  1        1 0.38133118E-02 0.10592316E+03</pdfrwt>
<pdfrwt beam="2">  1       -1 0.76660090E-01 0.10592316E+03</pdfrwt>
<totfact> 0.40799725E+03</totfact>
</mgrwt>
</event>
<event>
 8    1  0.9456677E-004  0.1042832E+03  0.7546771E-02  0.1272966E+00
         -1   -1    0    0    0  501 -0.00000000000E+00  0.00000000000E+00  0.11515418604E+02  0.11515418604E+02  0.00000000000E+00 0.  1.
          1   -1    0    0  501    0  0.00000000000E+00 -0.00000000000E+00 -0.92017747908E+03  0.92017747908E+03  0.00000000000E+00 0. -1.
         23    2    1    2    0    0  0.60260809974E+01 -0.42449046184E+02 -0.43096163618E+03  0.44274230621E+03  0.91948804626E+02 0.  0.
         23    2    1    2    0    0 -0.60260809974E+01  0.42449046184E+02 -0.47770042430E+03  0.48895059148E+03  0.95061823883E+02 0.  0.
          5    1    3    3  502    0  0.24252625539E+02  0.15825656534E+02 -0.60328114573E+02  0.67083624367E+02  0.47000000000E+01 0. -1.
         -5    1    4    4    0  503  0.21960865878E+02 -0.76045565037E+01 -0.33516974535E+02  0.41055894725E+02  0.47000000000E+01 0.  1.
          5    1    4    4  503    0 -0.27986946875E+02  0.50053602688E+02 -0.44418344976E+03  0.44789469675E+03  0.47000000000E+01 0. -1.
         -5    1    3    3    0  502 -0.18226544542E+02 -0.58274702718E+02 -0.37063352161E+03  0.37565868184E+03  0.47000000000E+01 0.  1.
<mgrwt>
<rscale>  0 0.10356847E+03</rscale>
<asrwt>0</asrwt>
<pdfrwt beam="1">  1        1 0.14156577E+00 0.10428320E+03</pdfrwt>
<pdfrwt beam="2">  1       -1 0.17716028E-02 0.10428320E+03</pdfrwt>
<totfact> 0.14157601E+04</totfact>
</mgrwt>
</event>
<event>
 8    1  0.9456677E-004  0.1560707E+03  0.7546771E-02  0.1194087E+00
          2   -1    0    0  501    0  0.00000000000E+00  0.00000000000E+00  0.18756089721E+04  0.18756089721E+04  0.00000000000E+00 0. -1.
         -2   -1    0    0    0  501 -0.00000000000E+00 -0.00000000000E+00 -0.13476822637E+02  0.13476822637E+02  0.00000000000E+00 0.  1.
         23    2    1    2    0    0 -0.83928859211E+02 -0.93644867074E+02  0.11605544885E+04  0.11710016152E+04  0.92437262466E+02 0.  0.
         23    2    1    2    0    0  0.83928859211E+02  0.93644867074E+02  0.70157766089E+03  0.71808417946E+03  0.87294100570E+02 0.  0.
          5    1    4    4  502    0  0.46811368900E+02  0.10341232651E+03  0.55362123458E+03  0.56515836269E+03  0.47000000000E+01 0. -1.
         -5    1    3    3    0  503  0.10194769524E+02 -0.48983114284E+02  0.45805315197E+03  0.46080153954E+03  0.47000000000E+01 0.  1.
          5    1    3    3  503    0 -0.94123628734E+02 -0.44661752791E+02  0.70250133657E+03  0.71020007570E+03  0.47000000000E+01 0. -1.
         -5    1    4    4    0  502  0.37117490311E+02 -0.97674594353E+01  0.14795642631E+03  0.15292581677E+03  0.47000000000E+01 0.  1.
<mgrwt>
<rscale>  0 0.15531774E+03</rscale>
<asrwt>0</asrwt>
<pdfrwt beam="1">  1        2 0.28855502E+00 0.15607070E+03</pdfrwt>
<pdfrwt beam="2">  1       -2 0.20733588E-02 0.15607070E+03</pdfrwt>
<totfact> 0.62750037E+03</totfact>
</mgrwt>
</event>
<event>
 8    1  0.9456677E-004  0.1017409E+03  0.7546771E-02  0.1278852E+00
         -1   -1    0    0    0  501 -0.00000000000E+00  0.00000000000E+00  0.14372304951E+02  0.14372304951E+02  0.00000000000E+00 0.  1.
          1   -1    0    0  501    0  0.00000000000E+00 -0.00000000000E+00 -0.93243405127E+03  0.93243405127E+03  0.00000000000E+00 0. -1.
         23    2    1    2    0    0 -0.39541409935E+02 -0.19601607883E+02 -0.22535192454E+03  0.24725430329E+03  0.91670357623E+02 0.  0.
         23    2    1    2    0    0  0.39541409935E+02  0.19601607883E+02 -0.69270982177E+03  0.69955205293E+03  0.87054186866E+02 0.  0.
          5    1    4    4  502    0 -0.46136942116E+01  0.41669289882E+02 -0.20293416206E+03  0.20727271896E+03  0.47000000000E+01 0. -1.
         -5    1    4    4    0  502  0.44155104147E+02 -0.22067681999E+02 -0.48977565971E+03  0.49227933397E+03  0.47000000000E+01 0.  1.
          5    1    3    3  503    0 -0.65220997654E+02 -0.20602270313E+01 -0.18410672817E+03  0.19538526154E+03  0.47000000000E+01 0. -1.
         -5    1    3    3    0  503  0.25679587719E+02 -0.17541380852E+02 -0.41245196374E+02  0.51869041745E+02  0.47000000000E+01 0.  1.
<mgrwt>
<rscale>  0 0.10069000E+03</rscale>
<asrwt>0</asrwt>
<pdfrwt beam="1">  1        1 0.14345133E+00 0.10174085E+03</pdfrwt>
<pdfrwt beam="2">  1       -1 0.22111248E-02 0.10174085E+03</pdfrwt>
<totfact> 0.10075128E+04</totfact>
</mgrwt>
</event>
<event>
 8    1  0.9456677E-004  0.1713481E+03  0.7546771E-02  0.1179544E+00
         -2   -1    0    0    0  501 -0.00000000000E+00  0.00000000000E+00  0.10261624432E+03  0.10261624432E+03  0.00000000000E+00 0.  1.
          2   -1    0    0  501    0  0.00000000000E+00 -0.00000000000E+00 -0.26733777229E+03  0.26733777229E+03  0.00000000000E+00 0. -1.
         23    2    1    2    0    0 -0.11715718414E+03 -0.58763795081E+02 -0.80309702473E+02  0.18923486825E+03  0.11036846308E+03 0.  0.
         23    2    1    2    0    0  0.11715718414E+03  0.58763795081E+02 -0.84411825493E+02  0.18071914835E+03  0.91406044053E+02 0.  0.
          5    1    3    3  502    0 -0.73246387860E+02  0.23871313368E+02 -0.29313934995E+02  0.82560703251E+02  0.47000000000E+01 0. -1.
         -5    1    3    3    0  502 -0.43910796282E+02 -0.82635108448E+02 -0.50995767478E+02  0.10667416500E+03  0.47000000000E+01 0.  1.
          5    1    4    4  503    0  0.99700466878E+02  0.74079947120E+01 -0.31821995069E+02  0.10502281110E+03  0.47000000000E+01 0. -1.
         -5    1    4    4    0  503  0.17456717264E+02  0.51355800369E+02 -0.52589830424E+02  0.75696337251E+02  0.47000000000E+01 0.  1.
<mgrwt>
<rscale>  0 0.16838350E+03</rscale>
<asrwt>0</asrwt>
<pdfrwt beam="1">  1        2 0.41128888E-01 0.17134815E+03</pdfrwt>
<pdfrwt beam="2">  1       -2 0.15787115E-01 0.17134815E+03</pdfrwt>
<totfact> 0.37971009E+03</totfact>
</mgrwt>
</event>
<event>
 8    1  0.9456677E-004  0.1106584E+03  0.7546771E-02  0.1259642E+00
         -2   -1    0    0    0  501 -0.00000000000E+00  0.00000000000E+00  0.15159897678E+03  0.15159897678E+03  0.00000000000E+00 0.  1.
          2   -1    0    0  501    0  0.00000000000E+00 -0.00000000000E+00 -0.13260514925E+03  0.13260514925E+03  0.00000000000E+00 0. -1.
         23    2    1    2    0    0  0.58895868176E+02 -0.22996018361E+02  0.98708918303E+02  0.14782312592E+03  0.90059346296E+02 0.  0.
         23    2    1    2    0    0 -0.58895868176E+02  0.22996018361E+02 -0.79715090780E+02  0.13638100011E+03  0.90817076279E+02 0.  0.
          5    1    3    3  502    0  0.25858589357E+02  0.34516231135E+02  0.35088567813E+02  0.55797261998E+02  0.47000000000E+01 0. -1.
         -5    1    3    3    0  502  0.33037278819E+02 -0.57512249496E+02  0.63620350489E+02  0.92025863921E+02  0.47000000000E+01 0.  1.
          5    1    4    4  503    0 -0.75911251611E+02  0.68549453379E+01 -0.31593241628E+02  0.82642188459E+02  0.47000000000E+01 0. -1.
         -5    1    4    4    0  503  0.17015383434E+02  0.16141073023E+02 -0.48121849152E+02  0.53738811650E+02  0.47000000000E+01 0.  1.
<mgrwt>
<rscale>  0 0.11050282E+03</rscale>
<asrwt>0</asrwt>
<pdfrwt beam="1">  1        2 0.20400792E-01 0.11065840E+03</pdfrwt>
<pdfrwt beam="2">  1       -2 0.23322919E-01 0.11065840E+03</pdfrwt>
<totfact> 0.41243587E+03</totfact>
</mgrwt>
</event>
<event>
 8    1  0.9456677E-004  0.1103352E+03  0.7546771E-02  0.1260778E+00
         -2   -1    0    0    0  501 -0.00000000000E+00  0.00000000000E+00  0.26356205605E+02  0.26356205605E+02  0.00000000000E+00 0.  1.
          2   -1    0    0  501    0  0.00000000000E+00 -0.00000000000E+00 -0.51952582593E+03  0.51952582593E+03  0.00000000000E+00 0. -1.
         23    2    1    2    0    0 -0.17704440332E+02  0.56802751998E+02 -0.34140667614E+03  0.35824982418E+03  0.90798778462E+02 0.  0.
         23    2    1    2    0    0  0.17704440332E+02 -0.56802751998E+02 -0.15176294418E+03  0.18763220735E+03  0.92918535108E+02 0.  0.
          5    1    3    3  502    0 -0.50308358143E+02  0.29883943119E+02 -0.13049893823E+03  0.14309452762E+03  0.47000000000E+01 0. -1.
         -5    1    3    3    0  502  0.32603917811E+02  0.26918808879E+02 -0.21090773791E+03  0.21515529656E+03  0.47000000000E+01 0.  1.
          5    1    4    4  503    0  0.16306288574E+02 -0.22201979024E+02 -0.15006471596E+03  0.15264446238E+03  0.47000000000E+01 0. -1.
         -5    1    4    4    0  503  0.13981517577E+01 -0.34600772974E+02 -0.16982282183E+01  0.34987744966E+02  0.47000000000E+01 0.  1.
<mgrwt>
<rscale>  0 0.10988769E+03</rscale>
<asrwt>0</asrwt>
<pdfrwt beam="1">  1        2 0.79927048E-01 0.11033519E+03</pdfrwt>
<pdfrwt beam="2">  1       -2 0.40548010E-02 0.11033519E+03</pdfrwt>
<totfact> 0.14924517E+04</totfact>
</mgrwt>
</event>
<event>
 7    1  0.9456677E-004  0.1762007E+03  0.7546771E-02  0.1199599E+00
          1   -1    0    0  501    0  0.00000000000E+00  0.00000000000E+00  0.18078856511E+02  0.18078856511E+02  0.00000000000E+00 0. -1.
         -1   -1    0    0    0  501 -0.00000000000E+00 -0.00000000000E+00 -0.10162163486E+04  0.10162163486E+04  0.00000000000E+00 0.  1.
         23    2    1    2    0    0 -0.74288636113E+01  0.20420707180E+02 -0.38059875092E+03  0.39211082489E+03  0.91778518695E+02 0.  0.
          5    1    1    2  502    0  0.46870102472E+02 -0.59522205946E+02 -0.54719836680E+03  0.55243808896E+03  0.47000000000E+01 0. -1.
         -5    1    1    2    0  502 -0.39441238861E+02  0.39101498766E+02 -0.70340374346E+02  0.89746291242E+02  0.47000000000E+01 0.  1.
          5    1    3    3  503    0  0.22159805492E+02  0.34994436136E+02 -0.85328089084E+02  0.94966522136E+02  0.47000000000E+01 0. -1.
         -5    1    3    3    0  503 -0.29588669103E+02 -0.14573728956E+02 -0.29527066184E+03  0.29714430275E+03  0.47000000000E+01 0.  1.
<mgrwt>
<rscale>  0 0.15071342E+03</rscale>
<asrwt>0</asrwt>
<pdfrwt beam="1">  1        1 0.27813628E-02 0.17620068E+03</pdfrwt>
<pdfrwt beam="2">  1       -1 0.15634096E+00 0.17620068E+03</pdfrwt>
<totfact> 0.12676153E+03</totfact>
</mgrwt>
</event>
<event>
 8    1  0.9456677E-004  0.9684095E+02  0.7546771E-02  0.1287221E+00
          2   -1    0    0  501    0  0.00000000000E+00  0.00000000000E+00  0.13179562605E+03  0.13179562605E+03  0.00000000000E+00 0. -1.
         -2   -1    0    0    0  501 -0.00000000000E+00 -0.00000000000E+00 -0.71643390256E+02  0.71643390256E+02  0.00000000000E+00 0.  1.
         23    2    1    2    0    0  0.31932537116E+02  0.14329607728E+02  0.39960842101E+02  0.10476182160E+03  0.90294771606E+02 0.  0.
         23    2    1    2    0    0 -0.31932537116E+02 -0.14329607728E+02  0.20191393690E+02  0.98677194701E+02  0.90024839854E+02 0.  0.
          5    1    4    4  502    0  0.60938711061E+01 -0.26111799924E+02  0.44229767917E+02  0.51935765426E+02  0.47000000000E+01 0. -1.
         -5    1    4    4    0  502 -0.38026408223E+02  0.11782192196E+02 -0.24038374227E+02  0.46741429276E+02  0.47000000000E+01 0.  1.
          5    1    3    3  503    0  0.46448739977E+02 -0.26090018640E+02  0.19143748121E+02  0.56804468224E+02  0.47000000000E+01 0. -1.
         -5    1    3    3    0  503 -0.14516202860E+02  0.40419626368E+02  0.20817093980E+02  0.47957353377E+02  0.47000000000E+01 0.  1.
<mgrwt>
<rscale>  0 0.96777984E+02</rscale>
<asrwt>0</asrwt>
<pdfrwt beam="1">  1        2 0.20276250E-01 0.96840954E+02</pdfrwt>
<pdfrwt beam="2">  1       -2 0.11022060E-01 0.96840954E+02</pdfrwt>
<totfact> 0.14029330E+04</totfact>
</mgrwt>
</event>
<event>
 8    1  0.9456677E-004  0.9563153E+02  0.7546771E-02  0.1295512E+00
         -1   -1    0    0    0  501 -0.00000000000E+00  0.00000000000E+00  0.69459939513E+02  0.69459939513E+02  0.00000000000E+00 0.  1.
          1   -1    0    0  501    0  0.00000000000E+00 -0.00000000000E+00 -0.12051178610E+03  0.12051178610E+03  0.00000000000E+00 0. -1.
         23    2    1    2    0    0 -0.27850094211E+02 -0.68775392118E+01 -0.12269190193E+02  0.86775392752E+02  0.80972263561E+02 0.  0.
         23    2    1    2    0    0  0.27850094211E+02  0.68775392118E+01 -0.38782656397E+02  0.10319633286E+03  0.91227519896E+02 0.  0.
          5    1    3    3  502    0  0.20499576486E+02  0.18931045102E+02  0.57819748291E+01  0.28881453178E+02  0.47000000000E+01 0. -1.
         -5    1    3    3    0  502 -0.48349670697E+02 -0.25808584314E+02 -0.18051165022E+02  0.57893939574E+02  0.47000000000E+01 0.  1.
          5    1    4    4  503    0  0.56021737370E+02  0.19761232048E+02 -0.95620313512E+01  0.60352827552E+02  0.47000000000E+01 0. -1.
         -5    1    4    4    0  503 -0.28171643159E+02 -0.12883692836E+02 -0.29220625046E+02  0.42843505312E+02  0.47000000000E+01 0.  1.
<mgrwt>
<rscale>  0 0.93100863E+02</rscale>
<asrwt>0</asrwt>
<pdfrwt beam="1">  1        1 0.18540275E-01 0.95631526E+02</pdfrwt>
<pdfrwt beam="2">  1       -1 0.10686145E-01 0.95631526E+02</pdfrwt>
<totfact> 0.13978693E+04</totfact>
</mgrwt>
</event>
<event>
 8    1  0.9456677E-004  0.9639170E+02  0.7546771E-02  0.1290696E+00
         -1   -1    0    0    0  501 -0.00000000000E+00  0.00000000000E+00  0.97998078904E+03  0.97998078904E+03  0.00000000000E+00 0.  1.
          1   -1    0    0  501    0  0.00000000000E+00 -0.00000000000E+00 -0.15962518055E+02  0.15962518055E+02  0.00000000000E+00 0. -1.
         23    2    1    2    0    0  0.77868197212E+01  0.10803618343E+01  0.14722136686E+03  0.17347838886E+03  0.91426575992E+02 0.  0.
         23    2    1    2    0    0 -0.77868197212E+01 -0.10803618343E+01  0.81679690412E+03  0.82246491823E+03  0.96070585501E+02 0.  0.
          5    1    3    3  502    0 -0.23161159918E+02  0.37117537595E+02  0.72724074847E+02  0.85000188166E+02  0.47000000000E+01 0. -1.
         -5    1    3    3    0  502  0.30947979639E+02 -0.36037175761E+02  0.74497292017E+02  0.88478200696E+02  0.47000000000E+01 0.  1.
          5    1    4    4  503    0  0.30153296827E+02  0.32622673250E+02  0.43320444601E+03  0.43550159835E+03  0.47000000000E+01 0. -1.
         -5    1    4    4    0  503 -0.37940116548E+02 -0.33703035084E+02  0.38359245811E+03  0.38696331989E+03  0.47000000000E+01 0.  1.
<mgrwt>
<rscale>  0 0.95213325E+02</rscale>
<asrwt>0</asrwt>
<pdfrwt beam="1">  1        1 0.24557728E-02 0.96391696E+02</pdfrwt>
<pdfrwt beam="2">  1       -1 0.15076623E+00 0.96391696E+02</pdfrwt>
<totfact> 0.16136528E+03</totfact>
</mgrwt>
</event>
<event>
 8    1  0.9456677E-004  0.9712658E+02  0.7546771E-02  0.1287125E+00
         -1   -1    0    0    0  501 -0.00000000000E+00  0.00000000000E+00  0.41053558062E+03  0.41053558062E+03  0.00000000000E+00 0.  1.
          1   -1    0    0  501    0  0.00000000000E+00 -0.00000000000E+00 -0.26439470048E+02  0.26439470048E+02  0.00000000000E+00 0. -1.
         23    2    1    2    0    0  0.31056304389E+02  0.11094451327E+02  0.27326257027E+03  0.28960596690E+03  0.90064437281E+02 0.  0.
         23    2    1    2    0    0 -0.31056304389E+02 -0.11094451327E+02  0.11083354031E+03  0.14736908377E+03  0.91356402632E+02 0.  0.
          5    1    3    3  502    0  0.38735708014E+02 -0.27513200676E+02  0.20661075256E+03  0.21205547472E+03  0.47000000000E+01 0.  1.
         -5    1    4    4    0  503 -0.56999591808E+02 -0.17997736653E+02  0.41633160227E+02  0.72995082173E+02  0.47000000000E+01 0.  1.
          5    1    4    4  503    0  0.25943287419E+02  0.69032853257E+01  0.69200380082E+02  0.74374001599E+02  0.47000000000E+01 0. -1.
         -5    1    3    3    0  502 -0.76794036251E+01  0.38607652003E+02  0.66651817707E+02  0.77550492176E+02  0.47000000000E+01 0. -1.
<mgrwt>
<rscale>  0 0.96821598E+02</rscale>
<asrwt>0</asrwt>
<pdfrwt beam="1">  1        1 0.40676111E-02 0.97126583E+02</pdfrwt>
<pdfrwt beam="2">  1       -1 0.63159315E-01 0.97126583E+02</pdfrwt>
<totfact> 0.54206559E+03</totfact>
</mgrwt>
</event>
<event>
 8    1  0.9456677E-004  0.1299507E+03  0.7546771E-02  0.1233247E+00
          1   -1    0    0  501    0  0.00000000000E+00  0.00000000000E+00  0.48689876842E+03  0.48689876842E+03  0.00000000000E+00 0. -1.
         -1   -1    0    0    0  501 -0.00000000000E+00 -0.00000000000E+00 -0.93522665248E+02  0.93522665248E+02  0.00000000000E+00 0.  1.
         23    2    1    2    0    0  0.56903664550E+02  0.38518217568E+02 -0.36761410670E+02  0.13505029811E+03  0.11029733261E+03 0.  0.
         23    2    1    2    0    0 -0.56903664550E+02 -0.38518217568E+02  0.43013751385E+03  0.44537113556E+03  0.92819650140E+02 0.  0.
          5    1    4    4  502    0 -0.50691415900E+02  0.13013064464E+02  0.12166573923E+03  0.13252773897E+03  0.47000000000E+01 0. -1.
         -5    1    4    4    0  502 -0.62122486504E+01 -0.51531282032E+02  0.30847177462E+03  0.31284339660E+03  0.47000000000E+01 0.  1.
          5    1    3    3  503    0 -0.59933363202E+01  0.45430019925E+02  0.19715608493E+02  0.50105907924E+02  0.47000000000E+01 0. -1.
         -5    1    3    3    0  503  0.62897000871E+02 -0.69118023575E+01 -0.56477019162E+02  0.84944390184E+02  0.47000000000E+01 0.  1.
<mgrwt>
<rscale>  0 0.12617313E+03</rscale>
<asrwt>0</asrwt>
<pdfrwt beam="1">  1        1 0.74907501E-01 0.12995069E+03</pdfrwt>
<pdfrwt beam="2">  1       -1 0.14388103E-01 0.12995069E+03</pdfrwt>
<totfact> 0.15848811E+03</totfact>
</mgrwt>
</event>
<event>
 8    1  0.9456677E-004  0.1066702E+03  0.7546771E-02  0.1268560E+00
         -1   -1    0    0    0  501 -0.00000000000E+00  0.00000000000E+00  0.22208001148E+02  0.22208001148E+02  0.00000000000E+00 0.  1.
          1   -1    0    0  501    0  0.00000000000E+00 -0.00000000000E+00 -0.53693759175E+03  0.53693759175E+03  0.00000000000E+00 0. -1.
         23    2    1    2    0    0 -0.56258883566E+02 -0.82781392761E+01 -0.17617390909E+03  0.20418293507E+03  0.86138465032E+02 0.  0.
         23    2    1    2    0    0  0.56258883566E+02  0.82781392761E+01 -0.33855568151E+03  0.35496265783E+03  0.90249373409E+02 0.  0.
          5    1    3    3  502    0  0.62500785721E+01 -0.30183751137E+02 -0.28400433094E+02  0.42175785882E+02  0.47000000000E+01 0. -1.
         -5    1    3    3    0  502 -0.62508962138E+02  0.21905611861E+02 -0.14777347600E+03  0.16200714919E+03  0.47000000000E+01 0.  1.
          5    1    4    4  503    0 -0.15752122713E+02 -0.18607821109E+02 -0.13628037236E+03  0.13852368125E+03  0.47000000000E+01 0. -1.
         -5    1    4    4    0  503  0.72011006279E+02  0.26885960385E+02 -0.20227530915E+03  0.21643897658E+03  0.47000000000E+01 0.  1.
<mgrwt>
<rscale>  0 0.10579584E+03</rscale>
<asrwt>0</asrwt>
<pdfrwt beam="1">  1        1 0.82605773E-01 0.10667023E+03</pdfrwt>
<pdfrwt beam="2">  1       -1 0.34166160E-02 0.10667023E+03</pdfrwt>
<totfact> 0.11897012E+04</totfact>
</mgrwt>
</event>
<event>
 8    1  0.9456677E-004  0.1284932E+03  0.7546771E-02  0.1229778E+00
          2   -1    0    0  501    0  0.00000000000E+00  0.00000000000E+00  0.25703351988E+03  0.25703351988E+03  0.00000000000E+00 0. -1.
         -2   -1    0    0    0  501 -0.00000000000E+00 -0.00000000000E+00 -0.72899092032E+02  0.72899092032E+02  0.00000000000E+00 0.  1.
         23    2    1    2    0    0 -0.44975820595E+02  0.77463422173E+02  0.14929978351E+03  0.19697953281E+03  0.92125483877E+02 0.  0.
         23    2    1    2    0    0  0.44975820595E+02 -0.77463422173E+02  0.34834644343E+02  0.13295307910E+03  0.91867636208E+02 0.  0.
          5    1    4    4  502    0  0.45690999178E+00 -0.68958653119E+02  0.49575868750E+02  0.85060927394E+02  0.47000000000E+01 0. -1.
         -5    1    3    3    0  503  0.95946149200E+01  0.72074331854E+02  0.75586723684E+02  0.10498670747E+03  0.47000000000E+01 0.  1.
          5    1    3    3  503    0 -0.54570435515E+02  0.53890903193E+01  0.73713059822E+02  0.91992825346E+02  0.47000000000E+01 0. -1.
         -5    1    4    4    0  502  0.44518910603E+02 -0.85047690537E+01 -0.14741224407E+02  0.47892151705E+02  0.47000000000E+01 0.  1.
<mgrwt>
<rscale>  0 0.12844702E+03</rscale>
<asrwt>0</asrwt>
<pdfrwt beam="1">  1        2 0.39543618E-01 0.12849323E+03</pdfrwt>
<pdfrwt beam="2">  1       -2 0.11215245E-01 0.12849323E+03</pdfrwt>
<totfact> 0.67706052E+03</totfact>
</mgrwt>
</event>
<event>
 8    1  0.9456677E-004  0.9681798E+02  0.7546771E-02  0.1287606E+00
          1   -1    0    0  501    0  0.00000000000E+00  0.00000000000E+00  0.62513415622E+03  0.62513415622E+03  0.00000000000E+00 0. -1.
         -1   -1    0    0    0  501 -0.00000000000E+00 -0.00000000000E+00 -0.20173683827E+02  0.20173683827E+02  0.00000000000E+00 0.  1.
         23    2    1    2    0    0  0.23586568731E+02  0.16248553766E+02  0.13791574746E+03  0.16850660127E+03  0.92484482762E+02 0.  0.
         23    2    1    2    0    0 -0.23586568731E+02 -0.16248553766E+02  0.46704472494E+03  0.47680123878E+03  0.91587687399E+02 0.  0.
          5    1    4    4  502    0  0.13957972504E+02 -0.45237494418E+02  0.26247345958E+03  0.26675018815E+03  0.47000000000E+01 0. -1.
         -5    1    3    3    0  503  0.95449273574E+01  0.45081904036E+02  0.28488776474E+02  0.54379997193E+02  0.47000000000E+01 0.  1.
          5    1    3    3  503    0  0.14041641373E+02 -0.28833350269E+02  0.10942697098E+03  0.11412660408E+03  0.47000000000E+01 0. -1.
         -5    1    4    4    0  502 -0.37544541235E+02  0.28988940652E+02  0.20457126536E+03  0.21005105062E+03  0.47000000000E+01 0.  1.
<mgrwt>
<rscale>  0 0.96603194E+02</rscale>
<asrwt>0</asrwt>
<pdfrwt beam="1">  1        1 0.96174471E-01 0.96817980E+02</pdfrwt>
<pdfrwt beam="2">  1       -1 0.31036441E-02 0.96817980E+02</pdfrwt>
<totfact> 0.11075718E+04</totfact>
</mgrwt>
</event>
<event>
 8    1  0.9456677E-004  0.1128300E+03  0.7546771E-02  0.1255507E+00
         -4   -1    0    0    0  501 -0.00000000000E+00  0.00000000000E+00  0.91160391378E+02  0.91160391378E+02  0.00000000000E+00 0.  1.
          4   -1    0    0  501    0  0.00000000000E+00 -0.00000000000E+00 -0.14092371821E+03  0.14092371821E+03  0.00000000000E+00 0. -1.
         23    2    1    2    0    0 -0.19079696995E+02  0.63680192301E+02 -0.12843628754E+02  0.11355868686E+03  0.91166961306E+02 0.  0.
         23    2    1    2    0    0  0.19079696995E+02 -0.63680192301E+02 -0.36919698079E+02  0.11852542273E+03  0.90917600041E+02 0.  0.
          5    1    4    4  502    0  0.23818426895E+02  0.17111424967E+02 -0.63520491091E+00  0.29708783371E+02  0.47000000000E+01 0. -1.
         -5    1    3    3    0  503 -0.30787122655E+02  0.16099622035E+02  0.31630255079E+02  0.47218722848E+02  0.47000000000E+01 0.  1.
          5    1    3    3  503    0  0.11707425659E+02  0.47580570266E+02 -0.44473883833E+02  0.66339964016E+02  0.47000000000E+01 0. -1.
         -5    1    4    4    0  502 -0.47387298995E+01 -0.80791617268E+02 -0.36284493168E+02  0.88816639355E+02  0.47000000000E+01 0.  1.
<mgrwt>
<rscale>  0 0.11277965E+03</rscale>
<asrwt>0</asrwt>
<pdfrwt beam="1">  1        4 0.21680572E-01 0.11283003E+03</pdfrwt>
<pdfrwt beam="2">  1       -4 0.14024676E-01 0.11283003E+03</pdfrwt>
<totfact> 0.13057621E+03</totfact>
</mgrwt>
</event>
<event>
 8    1  0.9456677E-004  0.1004174E+03  0.7546771E-02  0.1281626E+00
          1   -1    0    0  501    0  0.00000000000E+00  0.00000000000E+00  0.10938055907E+02  0.10938055907E+02  0.00000000000E+00 0. -1.
         -1   -1    0    0    0  501 -0.00000000000E+00 -0.00000000000E+00 -0.93163363905E+03  0.93163363905E+03  0.00000000000E+00 0.  1.
         23    2    1    2    0    0 -0.37723727048E+02  0.22602001927E+01 -0.57559381079E+03  0.58428750622E+03  0.93034761312E+02 0.  0.
         23    2    1    2    0    0  0.37723727048E+02 -0.22602001927E+01 -0.34510177235E+03  0.35828418874E+03  0.88567141386E+02 0.  0.
          5    1    4    4  502    0 -0.27203082739E+02  0.38795452370E+01 -0.14851691699E+03  0.15111063237E+03  0.47000000000E+01 0. -1.
         -5    1    4    4    0  502  0.64926809787E+02 -0.61397454296E+01 -0.19658485535E+03  0.20717355637E+03  0.47000000000E+01 0.  1.
          5    1    3    3  503    0 -0.61186556220E+02 -0.83796723197E+01 -0.50859706492E+03  0.51235444568E+03  0.47000000000E+01 0. -1.
         -5    1    3    3    0  503  0.23462829172E+02  0.10639872512E+02 -0.66996745878E+02  0.71933060536E+02  0.47000000000E+01 0.  1.
<mgrwt>
<rscale>  0 0.99370009E+02</rscale>
<asrwt>0</asrwt>
<pdfrwt beam="1">  1        1 0.16827776E-02 0.10041740E+03</pdfrwt>
<pdfrwt beam="2">  1       -1 0.14332827E+00 0.10041740E+03</pdfrwt>
<totfact> 0.31012602E+03</totfact>
</mgrwt>
</event>
<event>
 8    1  0.9456677E-004  0.1348631E+03  0.7546771E-02  0.1220797E+00
         -2   -1    0    0    0  501 -0.00000000000E+00  0.00000000000E+00  0.18542803943E+02  0.18542803943E+02  0.00000000000E+00 0.  1.
          2   -1    0    0  501    0  0.00000000000E+00 -0.00000000000E+00 -0.97590081268E+03  0.97590081268E+03  0.00000000000E+00 0. -1.
         23    2    1    2    0    0 -0.24333332791E+02 -0.96489328767E+02 -0.50378371398E+03  0.52124418113E+03  0.89415682275E+02 0.  0.
         23    2    1    2    0    0  0.24333332791E+02  0.96489328767E+02 -0.45357429475E+03  0.47319943549E+03  0.91026167877E+02 0.  0.
          5    1    3    3  502    0 -0.18145200827E+02 -0.63621663836E+02 -0.46546171049E+03  0.47016343792E+03  0.47000000000E+01 0. -1.
         -5    1    4    4    0  503  0.47196287585E+02  0.70498103132E+02 -0.20100858141E+03  0.21822926455E+03  0.47000000000E+01 0.  1.
          5    1    4    4  503    0 -0.22862954794E+02  0.25991225635E+02 -0.25256571334E+03  0.25497017094E+03  0.47000000000E+01 0. -1.
         -5    1    3    3    0  502 -0.61881319641E+01 -0.32867664932E+02 -0.38322003487E+02  0.51080743206E+02  0.47000000000E+01 0.  1.
<mgrwt>
<rscale>  0 0.13459189E+03</rscale>
<asrwt>0</asrwt>
<pdfrwt beam="1">  1        2 0.15013858E+00 0.13486313E+03</pdfrwt>
<pdfrwt beam="2">  1       -2 0.28527392E-02 0.13486313E+03</pdfrwt>
<totfact> 0.11921200E+04</totfact>
</mgrwt>
</event>
<event>
 8    1  0.9456677E-004  0.1030399E+03  0.7546771E-02  0.1274639E+00
          2   -1    0    0  501    0  0.00000000000E+00  0.00000000000E+00  0.79574557845E+03  0.79574557845E+03  0.00000000000E+00 0. -1.
         -2   -1    0    0    0  501 -0.00000000000E+00 -0.00000000000E+00 -0.15807196942E+02  0.15807196942E+02  0.00000000000E+00 0.  1.
         23    2    1    2    0    0 -0.40333813237E+02 -0.19231569374E+02  0.22289025281E+03  0.24505490469E+03  0.91515964525E+02 0.  0.
         23    2    1    2    0    0  0.40333813237E+02  0.19231569374E+02  0.55704812870E+03  0.56649787071E+03  0.92846917429E+02 0.  0.
          5    1    3    3  502    0 -0.70156288981E+01 -0.25633029894E+02  0.20431684550E+03  0.20609156854E+03  0.47000000000E+01 0. -1.
         -5    1    4    4    0  503 -0.29490579491E+02  0.28394039237E+01  0.20542432984E+03  0.20760299079E+03  0.47000000000E+01 0.  1.
          5    1    4    4  503    0  0.69824392727E+02  0.16392165450E+02  0.35162379886E+03  0.35889487992E+03  0.47000000000E+01 0. -1.
         -5    1    3    3    0  502 -0.33318184339E+02  0.64014605204E+01  0.18573407315E+02  0.38963336147E+02  0.47000000000E+01 0.  1.
<mgrwt>
<rscale>  0 0.10273917E+03</rscale>
<asrwt>0</asrwt>
<pdfrwt beam="1">  1        2 0.12242237E+00 0.10303989E+03</pdfrwt>
<pdfrwt beam="2">  1       -2 0.24318771E-02 0.10303989E+03</pdfrwt>
<totfact> 0.19188223E+04</totfact>
</mgrwt>
</event>
<event>
 8    1  0.9456677E-004  0.9920309E+02  0.7546771E-02  0.1282217E+00
          2   -1    0    0  501    0  0.00000000000E+00  0.00000000000E+00  0.65886566226E+03  0.65886566226E+03  0.00000000000E+00 0. -1.
         -2   -1    0    0    0  501 -0.00000000000E+00 -0.00000000000E+00 -0.29311013003E+02  0.29311013003E+02  0.00000000000E+00 0.  1.
         23    2    1    2    0    0  0.26150101383E+02  0.27134362277E+02  0.72899005204E+02  0.12275050091E+03  0.91287014934E+02 0.  0.
         23    2    1    2    0    0 -0.26150101383E+02 -0.27134362277E+02  0.55665564405E+03  0.56542617435E+03  0.91766830429E+02 0.  0.
          5    1    4    4  502    0  0.24835232642E+02 -0.47931680897E+01  0.55570742560E+02  0.61236922436E+02  0.47000000000E+01 0. -1.
         -5    1    4    4    0  502 -0.50985334024E+02 -0.22341194188E+02  0.50108490149E+03  0.50418925192E+03  0.47000000000E+01 0.  1.
          5    1    3    3  503    0  0.51739210587E+02 -0.36872704468E+01  0.61992959228E+02  0.80967640878E+02  0.47000000000E+01 0. -1.
         -5    1    3    3    0  503 -0.25589109205E+02  0.30821632724E+02  0.10906045976E+02  0.41782860032E+02  0.47000000000E+01 0.  1.
<mgrwt>
<rscale>  0 0.99091981E+02</rscale>
<asrwt>0</asrwt>
<pdfrwt beam="1">  1        2 0.10136394E+00 0.99203088E+02</pdfrwt>
<pdfrwt beam="2">  1       -2 0.45093871E-02 0.99203088E+02</pdfrwt>
<totfact> 0.96897272E+03</totfact>
</mgrwt>
</event>
<event>
 8    1  0.9456677E-004  0.1080574E+03  0.7546771E-02  0.1265634E+00
         -2   -1    0    0    0  501 -0.00000000000E+00  0.00000000000E+00  0.20232789815E+02  0.20232789815E+02  0.00000000000E+00 0.  1.
          2   -1    0    0  501    0  0.00000000000E+00 -0.00000000000E+00 -0.65382251209E+03  0.65382251209E+03  0.00000000000E+00 0. -1.
         23    2    1    2    0    0  0.46740360493E+02  0.22890577394E+02 -0.18632434408E+03  0.21392193450E+03  0.91308230912E+02 0.  0.
         23    2    1    2    0    0 -0.46740360493E+02 -0.22890577394E+02 -0.44726537819E+03  0.46013336740E+03  0.94698244080E+02 0.  0.
          5    1    3    3  502    0  0.43358927815E+02 -0.26194450579E+02 -0.12633779756E+03  0.13619645721E+03  0.47000000000E+01 0.  1.
         -5    1    4    4    0  503 -0.55237293010E+01 -0.49289406642E+02 -0.31710722812E+03  0.32099694908E+03  0.47000000000E+01 0.  1.
          5    1    4    4  503    0 -0.41216631192E+02  0.26398829248E+02 -0.13015815007E+03  0.13913641832E+03  0.47000000000E+01 0. -1.
         -5    1    3    3    0  502  0.33814326776E+01  0.49085027972E+02 -0.59986546517E+02  0.77725477297E+02  0.47000000000E+01 0. -1.
<mgrwt>
<rscale>  0 0.10731011E+03</rscale>
<asrwt>0</asrwt>
<pdfrwt beam="1">  1        2 0.10058806E+00 0.10805738E+03</pdfrwt>
<pdfrwt beam="2">  1       -2 0.31127374E-02 0.10805738E+03</pdfrwt>
<totfact> 0.16982397E+04</totfact>
</mgrwt>
</event>
<event>
 8    1  0.9456677E-004  0.1177230E+03  0.7546771E-02  0.1248335E+00
          2   -1    0    0  501    0  0.00000000000E+00  0.00000000000E+00  0.34364132701E+02  0.34364132701E+02  0.00000000000E+00 0. -1.
         -2   -1    0    0    0  501 -0.00000000000E+00 -0.00000000000E+00 -0.39745943600E+03  0.39745943600E+03  0.00000000000E+00 0.  1.
         23    2    1    2    0    0 -0.69069618046E+02 -0.17659969866E+02 -0.15868331457E+03  0.19758315466E+03  0.93681492355E+02 0.  0.
         23    2    1    2    0    0  0.69069618046E+02  0.17659969866E+02 -0.20441198873E+03  0.23424041404E+03  0.89452913655E+02 0.  0.
          5    1    3    3  502    0 -0.32899974602E+02 -0.40714796397E+02 -0.14183839348E+03  0.15126243036E+03  0.47000000000E+01 0. -1.
         -5    1    4    4    0  503  0.43355393352E+02 -0.11940691392E+02 -0.18460393720E+03  0.19006044795E+03  0.47000000000E+01 0.  1.
          5    1    4    4  503    0  0.25714224694E+02  0.29600661258E+02 -0.19808051522E+02  0.44179966089E+02  0.47000000000E+01 0. -1.
         -5    1    3    3    0  502 -0.36169643444E+02  0.23054826531E+02 -0.16844921098E+02  0.46320724304E+02  0.47000000000E+01 0.  1.
<mgrwt>
<rscale>  0 0.11687992E+03</rscale>
<asrwt>0</asrwt>
<pdfrwt beam="1">  1        2 0.52867898E-02 0.11772302E+03</pdfrwt>
<pdfrwt beam="2">  1       -2 0.61147604E-01 0.11772302E+03</pdfrwt>
<totfact> 0.35019138E+03</totfact>
</mgrwt>
</event>
<event>
 8    1  0.9456677E-004  0.1146663E+03  0.7546771E-02  0.1255476E+00
          2   -1    0    0  501    0  0.00000000000E+00  0.00000000000E+00  0.99982400444E+03  0.99982400444E+03  0.00000000000E+00 0. -1.
         -2   -1    0    0    0  501 -0.00000000000E+00 -0.00000000000E+00 -0.12359735831E+02  0.12359735831E+02  0.00000000000E+00 0.  1.
         23    2    1    2    0    0 -0.74909581560E+01 -0.57357525350E+02  0.48395073646E+03  0.49734964379E+03  0.99006831508E+02 0.  0.
         23    2    1    2    0    0  0.74909581560E+01  0.57357525350E+02  0.50351353215E+03  0.51483409648E+03  0.90455899076E+02 0.  0.
          5    1    4    4  502    0 -0.99665824299E+00  0.79397315849E+02  0.31954659382E+03  0.32929780247E+03  0.47000000000E+01 0. -1.
         -5    1    3    3    0  503 -0.38552161322E+02 -0.25155890349E+02  0.39468866458E+03  0.39739189714E+03  0.47000000000E+01 0.  1.
          5    1    3    3  503    0  0.31061203166E+02 -0.32201635001E+02  0.89262071878E+02  0.99957746647E+02  0.47000000000E+01 0. -1.
         -5    1    4    4    0  502  0.84876163990E+01 -0.22039790499E+02  0.18396693833E+03  0.18553629401E+03  0.47000000000E+01 0.  1.
<mgrwt>
<rscale>  0 0.11279693E+03</rscale>
<asrwt>0</asrwt>
<pdfrwt beam="1">  1        2 0.15381901E+00 0.11466627E+03</pdfrwt>
<pdfrwt beam="2">  1       -2 0.19014986E-02 0.11466627E+03</pdfrwt>
<totfact> 0.20577964E+04</totfact>
</mgrwt>
</event>
<event>
 8    1  0.9456677E-004  0.9211555E+02  0.7546771E-02  0.1300075E+00
          1   -1    0    0  501    0  0.00000000000E+00  0.00000000000E+00  0.63360420649E+02  0.63360420649E+02  0.00000000000E+00 0. -1.
         -1   -1    0    0    0  501 -0.00000000000E+00 -0.00000000000E+00 -0.14871590095E+03  0.14871590095E+03  0.00000000000E+00 0.  1.
         23    2    1    2    0    0  0.84238330961E+00 -0.21254776560E+00 -0.81007845977E+02  0.11985822931E+03  0.88334417056E+02 0.  0.
         23    2    1    2    0    0 -0.84238330961E+00  0.21254776560E+00 -0.43476343273E+01  0.92218092294E+02  0.92111453338E+02 0.  0.
          5    1    3    3  502    0 -0.25932579147E+02 -0.21725454213E+02 -0.27501676627E+01  0.34265834940E+02  0.47000000000E+01 0. -1.
         -5    1    3    3    0  502  0.26774962456E+02  0.21512906447E+02 -0.78257678314E+02  0.85592394367E+02  0.47000000000E+01 0.  1.
          5    1    4    4  503    0 -0.25068961428E+02  0.22612823748E+02 -0.33607502741E+02  0.47868015056E+02  0.47000000000E+01 0. -1.
         -5    1    4    4    0  503  0.24226578119E+02 -0.22400275982E+02  0.29259868414E+02  0.44350077238E+02  0.47000000000E+01 0.  1.
<mgrwt>
<rscale>  0 0.91156460E+02</rscale>
<asrwt>0</asrwt>
<pdfrwt beam="1">  1        1 0.97477573E-02 0.92115550E+02</pdfrwt>
<pdfrwt beam="2">  1       -1 0.22879369E-01 0.92115550E+02</pdfrwt>
<totfact> 0.97315539E+03</totfact>
</mgrwt>
</event>
<event>
 8    1  0.9456677E-004  0.1090429E+03  0.7546771E-02  0.1263937E+00
          2   -1    0    0  501    0  0.00000000000E+00  0.00000000000E+00  0.32048840774E+03  0.32048840774E+03  0.00000000000E+00 0. -1.
         -2   -1    0    0    0  501 -0.00000000000E+00 -0.00000000000E+00 -0.37799207552E+02  0.37799207552E+02  0.00000000000E+00 0.  1.
         23    2    1    2    0    0  0.46395991927E+02  0.29232202356E+02  0.10410727312E+03  0.15076033922E+03  0.94250972638E+02 0.  0.
         23    2    1    2    0    0 -0.46395991927E+02 -0.29232202356E+02  0.17858192707E+03  0.20752727607E+03  0.90382276568E+02 0.  0.
          5    1    4    4  502    0 -0.58389926124E+02 -0.98662400825E+01  0.52377135722E+02  0.79197099143E+02  0.47000000000E+01 0. -1.
         -5    1    4    4    0  502  0.11993934197E+02 -0.19365962273E+02  0.12620479135E+03  0.12833017693E+03  0.47000000000E+01 0.  1.
          5    1    3    3  503    0 -0.18712285621E+02  0.11585708838E+02  0.72883274991E+02  0.76278699883E+02  0.47000000000E+01 0. -1.
         -5    1    3    3    0  503  0.65108277548E+02  0.17646493518E+02  0.31223998125E+02  0.74481639333E+02  0.47000000000E+01 0.  1.
<mgrwt>
<rscale>  0 0.10820172E+03</rscale>
<asrwt>0</asrwt>
<pdfrwt beam="1">  1        2 0.49305907E-01 0.10904291E+03</pdfrwt>
<pdfrwt beam="2">  1       -2 0.58152629E-02 0.10904291E+03</pdfrwt>
<totfact> 0.14576762E+04</totfact>
</mgrwt>
</event>
<event>
 8    1  0.9456677E-004  0.1021551E+03  0.7546771E-02  0.1283863E+00
          2   -1    0    0  501    0  0.00000000000E+00  0.00000000000E+00  0.20173953233E+03  0.20173953233E+03  0.00000000000E+00 0. -1.
         -2   -1    0    0    0  501 -0.00000000000E+00 -0.00000000000E+00 -0.73979093197E+02  0.73979093197E+02  0.00000000000E+00 0.  1.
         23    2    1    2    0    0 -0.44739997880E+02  0.18021642621E+02  0.15347008537E+03  0.18436035296E+03  0.90051238897E+02 0.  0.
         23    2    1    2    0    0  0.44739997880E+02 -0.18021642621E+02 -0.25709646241E+02  0.91358272564E+02  0.73204515182E+02 0.  0.
          5    1    4    4  502    0 -0.19248323269E+02 -0.57401592062E+01  0.12992754238E+01  0.20669433786E+02  0.47000000000E+01 0. -1.
         -5    1    3    3    0  503 -0.44565869284E+02 -0.21391425235E+02  0.12775397137E+03  0.13706522892E+03  0.47000000000E+01 0.  1.
          5    1    3    3  503    0 -0.17412859607E+00  0.39413067857E+02  0.25716114006E+02  0.47295124043E+02  0.47000000000E+01 0. -1.
         -5    1    4    4    0  502  0.63988321149E+02 -0.12281483415E+02 -0.27008921665E+02  0.70688838779E+02  0.47000000000E+01 0.  1.
<mgrwt>
<rscale>  0 0.98322545E+02</rscale>
<asrwt>0</asrwt>
<pdfrwt beam="1">  1        2 0.31036851E-01 0.10215514E+03</pdfrwt>
<pdfrwt beam="2">  1       -2 0.11381399E-01 0.10215514E+03</pdfrwt>
<totfact> 0.84179990E+03</totfact>
</mgrwt>
</event>
<event>
 8    1  0.9456677E-004  0.1114590E+03  0.7546771E-02  0.1260989E+00
          2   -1    0    0  501    0  0.00000000000E+00  0.00000000000E+00  0.11285779675E+03  0.11285779675E+03  0.00000000000E+00 0. -1.
         -2   -1    0    0    0  501 -0.00000000000E+00 -0.00000000000E+00 -0.10379431969E+03  0.10379431969E+03  0.00000000000E+00 0.  1.
         23    2    1    2    0    0  0.57775438012E+02  0.41936833902E+01  0.59250712206E+00  0.10487171389E+03  0.87419317608E+02 0.  0.
         23    2    1    2    0    0 -0.57775438012E+02 -0.41936833902E+01  0.84709699379E+01  0.11178040255E+03  0.95223488929E+02 0.  0.
          5    1    3    3  502    0  0.42436345125E+02  0.43925234193E+02 -0.58770546164E+01  0.61537788045E+02  0.47000000000E+01 0. -1.
         -5    1    4    4    0  503 -0.42605815374E+02  0.17682890947E+02 -0.36702279754E+02  0.59136177379E+02  0.47000000000E+01 0.  1.
          5    1    4    4  503    0 -0.15169622639E+02 -0.21876574337E+02  0.45173249692E+02  0.52644225167E+02  0.47000000000E+01 0. -1.
         -5    1    3    3    0  502  0.15339092887E+02 -0.39731550803E+02  0.64695617384E+01  0.43333925842E+02  0.47000000000E+01 0.  1.
<mgrwt>
<rscale>  0 0.10977391E+03</rscale>
<asrwt>0</asrwt>
<pdfrwt beam="1">  1        2 0.17362738E-01 0.11145897E+03</pdfrwt>
<pdfrwt beam="2">  1       -2 0.15968357E-01 0.11145897E+03</pdfrwt>
<totfact> 0.93496051E+03</totfact>
</mgrwt>
</event>
<event>
 8    1  0.9456677E-004  0.9812869E+02  0.7546771E-02  0.1284660E+00
         -2   -1    0    0    0  501 -0.00000000000E+00  0.00000000000E+00  0.13853579624E+03  0.13853579624E+03  0.00000000000E+00 0.  1.
          2   -1    0    0  501    0  0.00000000000E+00 -0.00000000000E+00 -0.76453482850E+02  0.76453482850E+02  0.00000000000E+00 0. -1.
         23    2    1    2    0    0 -0.27695036521E+02 -0.10533395204E+02  0.64675982582E+02  0.11752541636E+03  0.93548240524E+02 0.  0.
         23    2    1    2    0    0  0.27695036521E+02  0.10533395204E+02 -0.25936691945E+01  0.97463862728E+02  0.92814384422E+02 0.  0.
          5    1    4    4  502    0 -0.20194800634E+02  0.35923522526E+02  0.74369393147E+01  0.42139381933E+02  0.47000000000E+01 0. -1.
         -5    1    4    4    0  502  0.47889837155E+02 -0.25390127322E+02 -0.10030608509E+02  0.55324480795E+02  0.47000000000E+01 0.  1.
          5    1    3    3  503    0  0.89709183454E-01  0.32736414512E+02 -0.20702276945E+01  0.33136938988E+02  0.47000000000E+01 0. -1.
         -5    1    3    3    0  503 -0.27784745705E+02 -0.43269809716E+02  0.66746210276E+02  0.84388477371E+02  0.47000000000E+01 0.  1.
<mgrwt>
<rscale>  0 0.97953388E+02</rscale>
<asrwt>0</asrwt>
<pdfrwt beam="1">  1        2 0.11762074E-01 0.98128695E+02</pdfrwt>
<pdfrwt beam="2">  1       -2 0.21313199E-01 0.98128695E+02</pdfrwt>
<totfact> 0.90107218E+03</totfact>
</mgrwt>
</event>
<event>
 8    1  0.9456677E-004  0.1545133E+03  0.7546771E-02  0.1200181E+00
          2   -1    0    0  501    0  0.00000000000E+00  0.00000000000E+00  0.12166956521E+03  0.12166956521E+03  0.00000000000E+00 0. -1.
         -2   -1    0    0    0  501 -0.00000000000E+00 -0.00000000000E+00 -0.19747999282E+03  0.19747999282E+03  0.00000000000E+00 0.  1.
         23    2    1    2    0    0 -0.79357904042E+02  0.97539418768E+02 -0.88637058623E+02  0.16410480717E+03  0.57116061025E+02 0.  0.
         23    2    1    2    0    0  0.79357904042E+02 -0.97539418768E+02  0.12826631010E+02  0.15504475086E+03  0.89792745580E+02 0.  0.
          5    1    4    4  502    0  0.21644668504E+00 -0.31044437707E+02  0.37258540805E+02  0.48724663412E+02  0.47000000000E+01 0. -1.
         -5    1    4    4    0  502  0.79141457357E+02 -0.66494981062E+02 -0.24431909795E+02  0.10632008745E+03  0.47000000000E+01 0.  1.
          5    1    3    3  503    0 -0.21147062072E+02  0.21611094600E+02 -0.54334230264E+02  0.62358128760E+02  0.47000000000E+01 0.  1.
         -5    1    3    3    0  503 -0.58210841970E+02  0.75928324168E+02 -0.34302828359E+02  0.10174667841E+03  0.47000000000E+01 0. -1.
<mgrwt>
<rscale>  0 0.15023778E+03</rscale>
<asrwt>0</asrwt>
<pdfrwt beam="1">  1        2 0.18718395E-01 0.15451328E+03</pdfrwt>
<pdfrwt beam="2">  1       -2 0.30381537E-01 0.15451328E+03</pdfrwt>
<totfact> 0.29079311E+03</totfact>
</mgrwt>
</event>
<event>
 8    1  0.9456677E-004  0.1016502E+03  0.7546771E-02  0.1278399E+00
         -1   -1    0    0    0  501 -0.00000000000E+00  0.00000000000E+00  0.11631243385E+02  0.11631243385E+02  0.00000000000E+00 0.  1.
          1   -1    0    0  501    0  0.00000000000E+00 -0.00000000000E+00 -0.87479295020E+03  0.87479295020E+03  0.00000000000E+00 0. -1.
         23    2    1    2    0    0 -0.46551339296E+02 -0.22944280151E+01 -0.38608451965E+03  0.39924180694E+03  0.90335333615E+02 0.  0.
         23    2    1    2    0    0  0.46551339296E+02  0.22944280151E+01 -0.47707718716E+03  0.48718238665E+03  0.87015767312E+02 0.  0.
          5    1    4    4  502    0  0.67265221925E+02  0.34770212760E+01 -0.43308534947E+03  0.43831690554E+03  0.47000000000E+01 0. -1.
         -5    1    3    3    0  503 -0.35273133419E+02 -0.44609355685E+02 -0.19720512631E+03  0.20529525177E+03  0.47000000000E+01 0.  1.
          5    1    3    3  503    0 -0.11278205877E+02  0.42314927670E+02 -0.18887939334E+03  0.19394655517E+03  0.47000000000E+01 0. -1.
         -5    1    4    4    0  502 -0.20713882629E+02 -0.11825932609E+01 -0.43991837690E+02  0.48865481106E+02  0.47000000000E+01 0.  1.
<mgrwt>
<rscale>  0 0.10090752E+03</rscale>
<asrwt>0</asrwt>
<pdfrwt beam="1">  1        1 0.13458356E+00 0.10165020E+03</pdfrwt>
<pdfrwt beam="2">  1       -1 0.17894217E-02 0.10165020E+03</pdfrwt>
<totfact> 0.15081822E+04</totfact>
</mgrwt>
</event>
<event>
 8    1  0.9456677E-004  0.1101965E+03  0.7546771E-02  0.1262816E+00
         -1   -1    0    0    0  501 -0.00000000000E+00  0.00000000000E+00  0.90747597141E+02  0.90747597141E+02  0.00000000000E+00 0.  1.
          1   -1    0    0  501    0  0.00000000000E+00 -0.00000000000E+00 -0.13252085063E+03  0.13252085063E+03  0.00000000000E+00 0. -1.
         23    2    1    2    0    0  0.32482194130E+01 -0.50850907790E+02 -0.43714187763E+02  0.11855041490E+03  0.97708264286E+02 0.  0.
         23    2    1    2    0    0 -0.32482194130E+01  0.50850907790E+02  0.19409342711E+01  0.10471803287E+03  0.91464383395E+02 0.  0.
          5    1    4    4  502    0  0.21311899873E+02  0.69824754893E+02  0.39663153211E+01  0.73263327315E+02  0.47000000000E+01 0. -1.
         -5    1    3    3    0  503 -0.45682102169E+02 -0.28955198576E+02 -0.33454416422E+02  0.63769475153E+02  0.47000000000E+01 0.  1.
          5    1    3    3  503    0  0.48930321582E+02 -0.21895709215E+02 -0.10259771341E+02  0.54780939751E+02  0.47000000000E+01 0. -1.
         -5    1    4    4    0  502 -0.24560119286E+02 -0.18973847102E+02 -0.20253810500E+01  0.31454705556E+02  0.47000000000E+01 0.  1.
<mgrwt>
<rscale>  0 0.10879592E+03</rscale>
<asrwt>0</asrwt>
<pdfrwt beam="1">  1        1 0.20387823E-01 0.11019651E+03</pdfrwt>
<pdfrwt beam="2">  1       -1 0.13961169E-01 0.11019651E+03</pdfrwt>
<totfact> 0.83362624E+03</totfact>
</mgrwt>
</event>
<event>
 8    1  0.9456677E-004  0.9526989E+02  0.7546771E-02  0.1290720E+00
          2   -1    0    0  501    0  0.00000000000E+00  0.00000000000E+00  0.14966312610E+03  0.14966312610E+03  0.00000000000E+00 0.  1.
         -2   -1    0    0    0  501 -0.00000000000E+00 -0.00000000000E+00 -0.80981267066E+02  0.80981267066E+02  0.00000000000E+00 0. -1.
         23    2    1    2    0    0 -0.19744459284E+02 -0.17226299610E+02  0.92408892830E+02  0.13272435642E+03  0.91595645321E+02 0.  0.
         23    2    1    2    0    0  0.19744459284E+02  0.17226299610E+02 -0.23727033793E+02  0.97920036750E+02  0.91316879019E+02 0.  0.
          5    1    4    4  502    0 -0.51484572524E+01  0.30803272314E+02  0.25717524496E+02  0.40728727743E+02  0.47000000000E+01 0.  1.
         -5    1    3    3    0  503 -0.27556097252E+02  0.17436173180E+02  0.91083088503E+02  0.96858544497E+02  0.47000000000E+01 0.  1.
          5    1    3    3  503    0  0.78116379682E+01 -0.34662472789E+02  0.13258043272E+01  0.35865811921E+02  0.47000000000E+01 0. -1.
         -5    1    4    4    0  502  0.24892916536E+02 -0.13576972705E+02 -0.49444558290E+02  0.57191309007E+02  0.47000000000E+01 0. -1.
<mgrwt>
<rscale>  0 0.95202820E+02</rscale>
<asrwt>0</asrwt>
<pdfrwt beam="1">  1        2 0.23025096E-01 0.95269887E+02</pdfrwt>
<pdfrwt beam="2">  1       -2 0.12458657E-01 0.95269887E+02</pdfrwt>
<totfact> 0.10025741E+04</totfact>
</mgrwt>
</event>
<event>
 8    1  0.9456677E-004  0.9705709E+02  0.7546771E-02  0.1287022E+00
          4   -1    0    0  501    0  0.00000000000E+00  0.00000000000E+00  0.22034611977E+03  0.22034611977E+03  0.00000000000E+00 0. -1.
         -4   -1    0    0    0  501 -0.00000000000E+00 -0.00000000000E+00 -0.43398165645E+02  0.43398165645E+02  0.00000000000E+00 0.  1.
         23    2    1    2    0    0  0.29837776078E+02  0.53801034225E+01  0.69024495913E+02  0.11909852993E+03  0.92200002175E+02 0.  0.
         23    2    1    2    0    0 -0.29837776078E+02 -0.53801034225E+01  0.10792345821E+03  0.14464575548E+03  0.91409427050E+02 0.  0.
          5    1    4    4  502    0 -0.62171592204E+02 -0.16431790839E+00  0.60969387568E+02  0.87204874279E+02  0.47000000000E+01 0.  1.
         -5    1    3    3    0  503  0.21724428174E+02 -0.39590241133E+02  0.54468439790E+02  0.70910076192E+02  0.47000000000E+01 0.  1.
          5    1    3    3  503    0  0.81133479037E+01  0.44970344556E+02  0.14556056123E+02  0.48188453737E+02  0.47000000000E+01 0. -1.
         -5    1    4    4    0  502  0.32333816127E+02 -0.52157855141E+01  0.46954070641E+02  0.57440881205E+02  0.47000000000E+01 0. -1.
<mgrwt>
<rscale>  0 0.96868870E+02</rscale>
<asrwt>0</asrwt>
<pdfrwt beam="1">  1        4 0.33899402E-01 0.97057090E+02</pdfrwt>
<pdfrwt beam="2">  1       -4 0.66766410E-02 0.97057090E+02</pdfrwt>
<totfact> 0.19004852E+03</totfact>
</mgrwt>
</event>
<event>
 7    1  0.9456677E-004  0.1425004E+03  0.7546771E-02  0.1231750E+00
          2   -1    0    0  501    0  0.00000000000E+00  0.00000000000E+00  0.52118360980E+03  0.52118360980E+03  0.00000000000E+00 0. -1.
         -2   -1    0    0    0  501 -0.00000000000E+00 -0.00000000000E+00 -0.28838760356E+02  0.28838760356E+02  0.00000000000E+00 0.  1.
         23    2    1    2    0    0  0.49379914898E+01 -0.72817747567E+01  0.28071619794E+03  0.29488896771E+03  0.89891665274E+02 0.  0.
          5    1    3    3  502    0 -0.35920549734E+02  0.18694117525E+02  0.14905063893E+03  0.15452488113E+03  0.47000000000E+01 0. -1.
         -5    1    3    3    0  502  0.40858541224E+02 -0.25975892281E+02  0.13166555902E+03  0.14036408658E+03  0.47000000000E+01 0.  1.
          5    1    1    2  503    0 -0.17591974240E+02 -0.54830562583E+02  0.16899288804E+03  0.17859606479E+03  0.47000000000E+01 0. -1.
         -5    1    1    2    0  503  0.12653982750E+02  0.62112337339E+02  0.42635763459E+02  0.76537337652E+02  0.47000000000E+01 0.  1.
<mgrwt>
<rscale>  0 0.12714799E+03</rscale>
<asrwt>0</asrwt>
<pdfrwt beam="1">  1        2 0.80182087E-01 0.14250041E+03</pdfrwt>
<pdfrwt beam="2">  1       -2 0.44367327E-02 0.14250041E+03</pdfrwt>
<totfact> 0.13274561E+04</totfact>
</mgrwt>
</event>
<event>
 8    1  0.9456677E-004  0.1263132E+03  0.7546771E-02  0.1237155E+00
          1   -1    0    0  501    0  0.00000000000E+00  0.00000000000E+00  0.97993084112E+02  0.97993084112E+02  0.00000000000E+00 0. -1.
         -1   -1    0    0    0  501 -0.00000000000E+00 -0.00000000000E+00 -0.50352828786E+03  0.50352828786E+03  0.00000000000E+00 0.  1.
         23    2    1    2    0    0 -0.20972558995E+02  0.68424039617E+02 -0.45220078597E+03  0.46686367161E+03  0.91402623664E+02 0.  0.
         23    2    1    2    0    0  0.20972558995E+02 -0.68424039617E+02  0.46665582223E+02  0.13465770036E+03  0.10408324684E+03 0.  0.
          5    1    3    3  502    0  0.34781448194E+02  0.31730756379E+02 -0.14750561038E+03  0.15490831202E+03  0.47000000000E+01 0. -1.
         -5    1    3    3    0  502 -0.55754007189E+02  0.36693283238E+02 -0.30469517559E+03  0.31195535960E+03  0.47000000000E+01 0.  1.
          5    1    4    4  503    0  0.54441303546E+02 -0.33430090508E+02  0.56041251052E+02  0.85112503798E+02  0.47000000000E+01 0. -1.
         -5    1    4    4    0  503 -0.33468744551E+02 -0.34993949109E+02 -0.93756688293E+01  0.49545196559E+02  0.47000000000E+01 0.  1.
<mgrwt>
<rscale>  0 0.12367507E+03</rscale>
<asrwt>0</asrwt>
<pdfrwt beam="1">  1        1 0.15075859E-01 0.12631318E+03</pdfrwt>
<pdfrwt beam="2">  1       -1 0.77465891E-01 0.12631318E+03</pdfrwt>
<totfact> 0.64220855E+02</totfact>
</mgrwt>
</event>
<event>
 8    1  0.9456677E-004  0.1181551E+03  0.7546771E-02  0.1253014E+00
         -2   -1    0    0    0  501 -0.00000000000E+00  0.00000000000E+00  0.58555498084E+02  0.58555498084E+02  0.00000000000E+00 0. -1.
          2   -1    0    0  501    0  0.00000000000E+00 -0.00000000000E+00 -0.24583154796E+03  0.24583154796E+03  0.00000000000E+00 0.  1.
         23    2    1    2    0    0 -0.31232583272E+02 -0.39644056581E+02 -0.15793374291E+03  0.19724020230E+03  0.10683400571E+03 0.  0.
         23    2    1    2    0    0  0.31232583272E+02  0.39644056581E+02 -0.29342306963E+02  0.10714684374E+03  0.89846255710E+02 0.  0.
          5    1    3    3  502    0 -0.49390738545E+02 -0.67924722917E+02 -0.11623671371E+03  0.14347918543E+03  0.47000000000E+01 0. -1.
         -5    1    3    3    0  502  0.18158155273E+02  0.28280666336E+02 -0.41697029206E+02  0.53761016879E+02  0.47000000000E+01 0.  1.
          5    1    4    4  503    0 -0.26220119184E+02 -0.76203239903E+01 -0.21195861096E+01  0.27787526573E+02  0.47000000000E+01 0. -1.
         -5    1    4    4    0  503  0.57452702457E+02  0.47264380571E+02 -0.27222720854E+02  0.79359317166E+02  0.47000000000E+01 0.  1.
<mgrwt>
<rscale>  0 0.11418321E+03</rscale>
<asrwt>0</asrwt>
<pdfrwt beam="1">  1        2 0.37820238E-01 0.11815511E+03</pdfrwt>
<pdfrwt beam="2">  1       -2 0.90085383E-02 0.11815511E+03</pdfrwt>
<totfact> 0.99475576E+03</totfact>
</mgrwt>
</event>
<event>
 8    1  0.9456677E-004  0.9408433E+02  0.7546771E-02  0.1295193E+00
          2   -1    0    0  501    0  0.00000000000E+00  0.00000000000E+00  0.63018663618E+03  0.63018663618E+03  0.00000000000E+00 0. -1.
         -2   -1    0    0    0  501 -0.00000000000E+00 -0.00000000000E+00 -0.17591732316E+02  0.17591732316E+02  0.00000000000E+00 0.  1.
         23    2    1    2    0    0  0.94349814296E+01  0.32161018736E+01  0.15538040340E+03  0.18164506883E+03  0.93554791891E+02 0.  0.
         23    2    1    2    0    0 -0.94349814296E+01 -0.32161018736E+01  0.45721450047E+03  0.46613329966E+03  0.90198622110E+02 0.  0.
          5    1    3    3  502    0 -0.11015407651E+02 -0.29742164623E+02  0.13259249037E+03  0.13641405376E+03  0.47000000000E+01 0. -1.
         -5    1    4    4    0  503  0.37432042688E+02  0.81869725059E+01  0.13946180376E+03  0.14470614723E+03  0.47000000000E+01 0.  1.
          5    1    4    4  503    0 -0.46867024117E+02 -0.11403074380E+02  0.31775269671E+03  0.32142715243E+03  0.47000000000E+01 0. -1.
         -5    1    3    3    0  502  0.20450389080E+02  0.32958266497E+02  0.22787913029E+02  0.45231015070E+02  0.47000000000E+01 0.  1.
<mgrwt>
<rscale>  0 0.93238856E+02</rscale>
<asrwt>0</asrwt>
<pdfrwt beam="1">  1        2 0.96951773E-01 0.94084331E+02</pdfrwt>
<pdfrwt beam="2">  1       -2 0.27064208E-02 0.94084331E+02</pdfrwt>
<totfact> 0.21444806E+04</totfact>
</mgrwt>
</event>
<event>
 8    1  0.9456677E-004  0.9471261E+02  0.7546771E-02  0.1291876E+00
         -3   -1    0    0    0  501 -0.00000000000E+00  0.00000000000E+00  0.54798260906E+02  0.54798260906E+02  0.00000000000E+00 0.  1.
          3   -1    0    0  501    0  0.00000000000E+00 -0.00000000000E+00 -0.16645781097E+03  0.16645781097E+03  0.00000000000E+00 0. -1.
         23    2    1    2    0    0  0.23174497798E+02 -0.51860120571E+01 -0.70498026653E+02  0.11806968053E+03  0.91687107217E+02 0.  0.
         23    2    1    2    0    0 -0.23174497798E+02  0.51860120571E+01 -0.41161523413E+02  0.10318639135E+03  0.91592621319E+02 0.  0.
          5    1    3    3  502    0 -0.15047448318E+02  0.21064137200E+02 -0.66235518604E+02  0.71269611348E+02  0.47000000000E+01 0. -1.
         -5    1    4    4    0  503  0.34514157663E+02  0.39404878758E+01 -0.25074725070E+02  0.43099725767E+02  0.47000000000E+01 0.  1.
          5    1    4    4  503    0 -0.57688655461E+02  0.12455241814E+01 -0.16086798343E+02  0.60086665578E+02  0.47000000000E+01 0. -1.
         -5    1    3    3    0  502  0.38221946115E+02 -0.26250149257E+02 -0.42625080481E+01  0.46800069185E+02  0.47000000000E+01 0.  1.
<mgrwt>
<rscale>  0 0.94689731E+02</rscale>
<asrwt>0</asrwt>
<pdfrwt beam="1">  1        3 0.25608894E-01 0.94712606E+02</pdfrwt>
<pdfrwt beam="2">  1       -3 0.84305017E-02 0.94712606E+02</pdfrwt>
<totfact> 0.29951112E+03</totfact>
</mgrwt>
</event>
<event>
 8    1  0.9456677E-004  0.9918134E+02  0.7546771E-02  0.1283202E+00
         -2   -1    0    0    0  501 -0.00000000000E+00  0.00000000000E+00  0.77467451363E+02  0.77467451363E+02  0.00000000000E+00 0.  1.
          2   -1    0    0  501    0  0.00000000000E+00 -0.00000000000E+00 -0.14727008566E+03  0.14727008566E+03  0.00000000000E+00 0. -1.
         23    2    1    2    0    0 -0.25272486038E+02 -0.29477920855E+02 -0.79046019727E+02  0.12512640498E+03  0.88885868503E+02 0.  0.
         23    2    1    2    0    0  0.25272486038E+02  0.29477920855E+02  0.92433854344E+01  0.99611132040E+02  0.91264949918E+02 0.  0.
          5    1    3    3  502    0  0.20402510843E+02  0.15656877540E+02 -0.45623582819E+02  0.52583282250E+02  0.47000000000E+01 0. -1.
         -5    1    4    4    0  503  0.26950720550E+02  0.59369036310E+02 -0.60823148580E+01  0.65651415557E+02  0.47000000000E+01 0.  1.
          5    1    4    4  503    0 -0.16782345117E+01 -0.29891115455E+02  0.15325700292E+02  0.33959716484E+02  0.47000000000E+01 0. -1.
         -5    1    3    3    0  502 -0.45674996881E+02 -0.45134798395E+02 -0.33422436908E+02  0.72543122727E+02  0.47000000000E+01 0.  1.
<mgrwt>
<rscale>  0 0.98630586E+02</rscale>
<asrwt>0</asrwt>
<pdfrwt beam="1">  1        2 0.22656936E-01 0.99181336E+02</pdfrwt>
<pdfrwt beam="2">  1       -2 0.11918069E-01 0.99181336E+02</pdfrwt>
<totfact> 0.10988874E+04</totfact>
</mgrwt>
</event>
<event>
 8    1  0.9456677E-004  0.1099297E+03  0.7546771E-02  0.1261701E+00
         -1   -1    0    0    0  501 -0.00000000000E+00  0.00000000000E+00  0.14186617453E+02  0.14186617453E+02  0.00000000000E+00 0.  1.
          1   -1    0    0  501    0  0.00000000000E+00 -0.00000000000E+00 -0.88886672636E+03  0.88886672636E+03  0.00000000000E+00 0. -1.
         23    2    1    2    0    0 -0.12818375285E+02 -0.62104529132E+02 -0.33058351105E+03  0.34838195857E+03  0.89795590058E+02 0.  0.
         23    2    1    2    0    0  0.12818375285E+02  0.62104529132E+02 -0.54409659785E+03  0.55467138524E+03  0.87166246492E+02 0.  0.
          5    1    3    3  502    0 -0.50427762727E+02 -0.32845221866E+02 -0.15360120347E+03  0.16503692787E+03  0.47000000000E+01 0. -1.
         -5    1    3    3    0  502  0.37609387443E+02 -0.29259307266E+02 -0.17698230758E+03  0.18334503070E+03  0.47000000000E+01 0.  1.
          5    1    4    4  503    0 -0.11862360008E+02  0.48303566535E+02 -0.49722886904E+03  0.49973251679E+03  0.47000000000E+01 0. -1.
         -5    1    4    4    0  503  0.24680735293E+02  0.13800962597E+02 -0.46867728806E+02  0.54938868450E+02  0.47000000000E+01 0.  1.
<mgrwt>
<rscale>  0 0.10939145E+03</rscale>
<asrwt>0</asrwt>
<pdfrwt beam="1">  1        1 0.13674873E+00 0.10992967E+03</pdfrwt>
<pdfrwt beam="2">  1       -1 0.21825564E-02 0.10992967E+03</pdfrwt>
<totfact> 0.11132985E+04</totfact>
</mgrwt>
</event>
<event>
 8    1  0.9456677E-004  0.1511505E+03  0.7546771E-02  0.1199357E+00
          2   -1    0    0  501    0  0.00000000000E+00  0.00000000000E+00  0.96812758956E+02  0.96812758956E+02  0.00000000000E+00 0. -1.
         -2   -1    0    0    0  501 -0.00000000000E+00 -0.00000000000E+00 -0.27478172673E+03  0.27478172673E+03  0.00000000000E+00 0.  1.
         23    2    1    2    0    0 -0.75299754859E+02  0.91340711766E+02 -0.15988195668E+03  0.21936564165E+03  0.92443852998E+02 0.  0.
         23    2    1    2    0    0  0.75299754859E+02 -0.91340711766E+02 -0.18087011092E+02  0.15222884403E+03  0.93985649319E+02 0.  0.
          5    1    4    4  502    0  0.50443617014E+02 -0.10903921522E+03 -0.15859298400E+02  0.12127537384E+03  0.47000000000E+01 0. -1.
         -5    1    3    3    0  503 -0.49460307526E+02  0.40707766260E+02 -0.14766977291E+03  0.16103383522E+03  0.47000000000E+01 0.  1.
          5    1    3    3  503    0 -0.25839447334E+02  0.50632945505E+02 -0.12212183771E+02  0.58331806431E+02  0.47000000000E+01 0. -1.
         -5    1    4    4    0  502  0.24856137846E+02  0.17698503458E+02 -0.22277126912E+01  0.30953470195E+02  0.47000000000E+01 0.  1.
<mgrwt>
<rscale>  0 0.15091150E+03</rscale>
<asrwt>0</asrwt>
<pdfrwt beam="1">  1        2 0.14894271E-01 0.15115052E+03</pdfrwt>
<pdfrwt beam="2">  1       -2 0.42274112E-01 0.15115052E+03</pdfrwt>
<totfact> 0.20484017E+03</totfact>
</mgrwt>
</event>
<event>
 8    1  0.9928626E-004  0.1375153E+03  0.7546771E-02  0.1217305E+00
          1   -1    0    0  501    0  0.00000000000E+00  0.00000000000E+00  0.13907585995E+03  0.13907585995E+03  0.00000000000E+00 0. -1.
         -1   -1    0    0    0  501 -0.00000000000E+00 -0.00000000000E+00 -0.41426133101E+03  0.41426133101E+03  0.00000000000E+00 0.  1.
         23    2    1    2    0    0  0.10051273608E+03 -0.11922303175E+02  0.90133463412E+02  0.16299328021E+03  0.90541795543E+02 0.  0.
         23    2    1    2    0    0 -0.10051273608E+03  0.11922303175E+02 -0.36531893447E+03  0.39034391074E+03  0.93088631637E+02 0.  0.
          5    1    4    4  502    0  0.24001436283E+01  0.32046239350E+02 -0.91718194441E+02  0.97298711900E+02  0.47000000000E+01 0. -1.
         -5    1    3    3    0  503 -0.70853481153E+01 -0.20219838655E+02  0.36029682900E+02  0.42181418694E+02  0.47000000000E+01 0.  1.
          5    1    3    3  503    0  0.10759808420E+03  0.82975354802E+01  0.54103780512E+02  0.12081186152E+03  0.47000000000E+01 0. -1.
         -5    1    4    4    0  502 -0.10291287971E+03 -0.20123936175E+02 -0.27360074003E+03  0.29304519884E+03  0.47000000000E+01 0.  1.
<mgrwt>
<rscale>  0 0.13708547E+03</rscale>
<asrwt>0</asrwt>
<pdfrwt beam="1">  1        1 0.21396287E-01 0.13751525E+03</pdfrwt>
<pdfrwt beam="2">  1       -1 0.63732511E-01 0.13751525E+03</pdfrwt>
<totfact> 0.60389433E+02</totfact>
</mgrwt>
</event>
<event>
 8    1  0.9456677E-004  0.1077389E+03  0.7546771E-02  0.1266362E+00
         -4   -1    0    0    0  501 -0.00000000000E+00  0.00000000000E+00  0.42437480085E+02  0.42437480085E+02  0.00000000000E+00 0.  1.
          4   -1    0    0  501    0  0.00000000000E+00 -0.00000000000E+00 -0.36559445673E+03  0.36559445673E+03  0.00000000000E+00 0. -1.
         23    2    1    2    0    0  0.17552168168E+02  0.47496592431E+02 -0.53051191654E+02  0.11723165786E+03  0.91459432363E+02 0.  0.
         23    2    1    2    0    0 -0.17552168168E+02 -0.47496592431E+02 -0.27010578499E+03  0.29080027896E+03  0.95098171679E+02 0.  0.
          5    1    3    3  502    0 -0.27632432588E+02  0.40033032853E+02 -0.51746545127E+02  0.71175768227E+02  0.47000000000E+01 0. -1.
         -5    1    3    3    0  502  0.45184600756E+02  0.74635595776E+01 -0.13046465274E+01  0.46055889630E+02  0.47000000000E+01 0.  1.
          5    1    4    4  503    0 -0.50949354086E+02 -0.49597500799E+02 -0.15058387872E+03  0.16659334710E+03  0.47000000000E+01 0. -1.
         -5    1    4    4    0  503  0.33397185918E+02  0.21009083683E+01 -0.11952190627E+03  0.12420693186E+03  0.47000000000E+01 0.  1.
<mgrwt>
<rscale>  0 0.10693037E+03</rscale>
<asrwt>0</asrwt>
<pdfrwt beam="1">  1        4 0.56245303E-01 0.10773888E+03</pdfrwt>
<pdfrwt beam="2">  1       -4 0.65288428E-02 0.10773888E+03</pdfrwt>
<totfact> 0.74030141E+02</totfact>
</mgrwt>
</event>
<event>
 8    1  0.9456677E-004  0.1493293E+03  0.7546771E-02  0.1201585E+00
         -1   -1    0    0    0  501 -0.00000000000E+00  0.00000000000E+00  0.10219080589E+02  0.10219080589E+02  0.00000000000E+00 0.  1.
          1   -1    0    0  501    0  0.00000000000E+00 -0.00000000000E+00 -0.22515768653E+04  0.22515768653E+04  0.00000000000E+00 0. -1.
         23    2    1    2    0    0  0.30528215652E+01 -0.11856591733E+03 -0.90034265138E+03  0.91249211200E+03  0.89206323172E+02 0.  0.
         23    2    1    2    0    0 -0.30528215652E+01  0.11856591733E+03 -0.13410151333E+04  0.13493038338E+04  0.90730655555E+02 0.  0.
          5    1    3    3  502    0 -0.38969313530E+02 -0.72090210816E+02 -0.60475044640E+03  0.61029566467E+03  0.47000000000E+01 0. -1.
         -5    1    3    3    0  502  0.42022135095E+02 -0.46475706512E+02 -0.29559220499E+03  0.30219644734E+03  0.47000000000E+01 0.  1.
          5    1    4    4  503    0  0.17037023316E+02  0.12610414296E+03 -0.11525526679E+04  0.11595655468E+04  0.47000000000E+01 0. -1.
         -5    1    4    4    0  503 -0.20089844881E+02 -0.75382256288E+01 -0.18846246539E+03  0.18973828706E+03  0.47000000000E+01 0.  1.
<mgrwt>
<rscale>  0 0.14909849E+03</rscale>
<asrwt>0</asrwt>
<pdfrwt beam="1">  1        1 0.34639652E+00 0.14932933E+03</pdfrwt>
<pdfrwt beam="2">  1       -1 0.15721659E-02 0.14932933E+03</pdfrwt>
<totfact> 0.22611882E+03</totfact>
</mgrwt>
</event>
<event>
 8    1  0.3244389E-003  0.9938182E+02  0.7546771E-02  0.1282140E+00
         -1   -1    0    0    0  501 -0.00000000000E+00  0.00000000000E+00  0.93526009895E+02  0.93526009895E+02  0.00000000000E+00 0.  1.
          1   -1    0    0  501    0  0.00000000000E+00 -0.00000000000E+00 -0.50903222022E+03  0.50903222022E+03  0.00000000000E+00 0. -1.
         23    2    1    2    0    0  0.35369791922E+02  0.70226338616E+01 -0.47653947289E+03  0.48679216823E+03  0.92608888694E+02 0.  0.
         23    2    1    2    0    0 -0.35369791922E+02 -0.70226338616E+01  0.61033262564E+02  0.11576606188E+03  0.91522578512E+02 0.  0.
          5    1    3    3  502    0  0.66985814557E+02  0.56668572885E+01 -0.32380195995E+03  0.33074009720E+03  0.47000000000E+01 0. -1.
         -5    1    4    4    0  503 -0.37101097139E+02  0.28714743344E+02  0.64072923511E+02  0.79551602256E+02  0.47000000000E+01 0.  1.
          5    1    4    4  503    0  0.17313052169E+01 -0.35737377206E+02 -0.30396609470E+01  0.36214459626E+02  0.47000000000E+01 0. -1.
         -5    1    3    3    0  502 -0.31616022635E+02  0.13557765731E+01 -0.15273751294E+03  0.15605207104E+03  0.47000000000E+01 0.  1.
<mgrwt>
<rscale>  0 0.99127976E+02</rscale>
<asrwt>0</asrwt>
<pdfrwt beam="1">  1        1 0.78312650E-01 0.99381818E+02</pdfrwt>
<pdfrwt beam="2">  1       -1 0.14388617E-01 0.99381818E+02</pdfrwt>
<totfact> 0.14862674E+03</totfact>
</mgrwt>
</event>
<event>
 8    1  0.9456677E-004  0.1057331E+03  0.7546771E-02  0.1269218E+00
          3   -1    0    0  501    0  0.00000000000E+00  0.00000000000E+00  0.43032616760E+02  0.43032616760E+02  0.00000000000E+00 0. -1.
         -3   -1    0    0    0  501 -0.00000000000E+00 -0.00000000000E+00 -0.42772636662E+03  0.42772636662E+03  0.00000000000E+00 0.  1.
         23    2    1    2    0    0 -0.75865138184E+01 -0.51057918955E+02 -0.44289583451E+02  0.11463447219E+03  0.92276913321E+02 0.  0.
         23    2    1    2    0    0  0.75865138184E+01  0.51057918955E+02 -0.34040416641E+03  0.35612451119E+03  0.91023099713E+02 0.  0.
          5    1    4    4  502    0 -0.33102916926E+02 -0.20233102805E+01 -0.71032177244E+02  0.78533795894E+02  0.47000000000E+01 0. -1.
         -5    1    4    4    0  502  0.40689430744E+02  0.53081229235E+02 -0.26937198917E+03  0.27759071530E+03  0.47000000000E+01 0.  1.
          5    1    3    3  503    0  0.40836249687E+01 -0.75828439371E+02 -0.41621968187E+02  0.86724312889E+02  0.47000000000E+01 0. -1.
         -5    1    3    3    0  503 -0.11670138787E+02  0.24770520416E+02 -0.26676152639E+01  0.27910159301E+02  0.47000000000E+01 0.  1.
<mgrwt>
<rscale>  0 0.10545895E+03</rscale>
<asrwt>0</asrwt>
<pdfrwt beam="1">  1        3 0.66204021E-02 0.10573313E+03</pdfrwt>
<pdfrwt beam="2">  1       -3 0.65804061E-01 0.10573313E+03</pdfrwt>
<totfact> 0.73176428E+02</totfact>
</mgrwt>
</event>
<event>
 8    1  0.9456677E-004  0.1082592E+03  0.7546771E-02  0.1264121E+00
          1   -1    0    0  501    0  0.00000000000E+00  0.00000000000E+00  0.28394616626E+03  0.28394616626E+03  0.00000000000E+00 0. -1.
         -1   -1    0    0    0  501 -0.00000000000E+00 -0.00000000000E+00 -0.83398865849E+02  0.83398865849E+02  0.00000000000E+00 0.  1.
         23    2    1    2    0    0  0.24282798634E+02  0.51054647422E+02 -0.30482859917E+02  0.11246892406E+03  0.92324551435E+02 0.  0.
         23    2    1    2    0    0 -0.24282798634E+02 -0.51054647422E+02  0.23103016033E+03  0.25487610805E+03  0.91600568448E+02 0.  0.
          5    1    3    3  502    0 -0.19270431620E+02  0.43174339968E+02  0.14009652821E+02  0.49535174762E+02  0.47000000000E+01 0. -1.
         -5    1    4    4    0  503 -0.20519531045E+02  0.22909328041E+02  0.46142335060E+02  0.55651536819E+02  0.47000000000E+01 0.  1.
          5    1    4    4  503    0 -0.37632675887E+01 -0.73963975462E+02  0.18488782527E+03  0.19922457123E+03  0.47000000000E+01 0. -1.
         -5    1    3    3    0  502  0.43553230253E+02  0.78803074533E+01 -0.44492512737E+02  0.62933749298E+02  0.47000000000E+01 0.  1.
<mgrwt>
<rscale>  0 0.10810468E+03</rscale>
<asrwt>0</asrwt>
<pdfrwt beam="1">  1        1 0.43684025E-01 0.10825920E+03</pdfrwt>
<pdfrwt beam="2">  1       -1 0.12830595E-01 0.10825920E+03</pdfrwt>
<totfact> 0.36908357E+03</totfact>
</mgrwt>
</event>
<event>
 8    1  0.9456677E-004  0.2167508E+03  0.7546771E-02  0.1136425E+00
         -1   -1    0    0    0  501 -0.00000000000E+00  0.00000000000E+00  0.78832708437E+02  0.78832708437E+02  0.00000000000E+00 0.  1.
          1   -1    0    0  501    0  0.00000000000E+00 -0.00000000000E+00 -0.60797219610E+03  0.60797219610E+03  0.00000000000E+00 0. -1.
         23    2    1    2    0    0 -0.19401011807E+03  0.29576259353E+02 -0.21327253146E+03  0.30372155468E+03  0.90812604123E+02 0.  0.
         23    2    1    2    0    0  0.19401011807E+03 -0.29576259353E+02 -0.31586695620E+03  0.38308334986E+03  0.92012161630E+02 0.  0.
          5    1    4    4  502    0  0.52973663326E+02  0.28909887662E+02 -0.12267793887E+03  0.13679896672E+03  0.47000000000E+01 0. -1.
         -5    1    3    3    0  503 -0.10176815623E+03 -0.78352575672E+01 -0.53283730080E+02  0.11523625634E+03  0.47000000000E+01 0.  1.
          5    1    3    3  503    0 -0.92241961847E+02  0.37411516920E+02 -0.15998880138E+03  0.18848529834E+03  0.47000000000E+01 0. -1.
         -5    1    4    4    0  502  0.14103645475E+03 -0.58486147015E+02 -0.19318901734E+03  0.24628438314E+03  0.47000000000E+01 0.  1.
<mgrwt>
<rscale>  0 0.21662409E+03</rscale>
<asrwt>0</asrwt>
<pdfrwt beam="1">  1        1 0.93534187E-01 0.21675082E+03</pdfrwt>
<pdfrwt beam="2">  1       -1 0.12128109E-01 0.21675082E+03</pdfrwt>
<totfact> 0.15509972E+03</totfact>
</mgrwt>
</event>
<event>
 8    1  0.9456677E-004  0.1769868E+03  0.7546771E-02  0.1174756E+00
          2   -1    0    0  501    0  0.00000000000E+00  0.00000000000E+00  0.78177707780E+03  0.78177707780E+03  0.00000000000E+00 0. -1.
         -2   -1    0    0    0  501 -0.00000000000E+00 -0.00000000000E+00 -0.59615463636E+02  0.59615463636E+02  0.00000000000E+00 0.  1.
         23    2    1    2    0    0 -0.12344092356E+03 -0.49203998067E+02  0.11026423849E+03  0.20852462998E+03  0.11690005981E+03 0.  0.
         23    2    1    2    0    0  0.12344092356E+03  0.49203998067E+02  0.61189737568E+03  0.63286791145E+03  0.91895048553E+02 0.  0.
          5    1    3    3  502    0 -0.10436843315E+03 -0.74554529524E+02  0.11927404691E+03  0.17521283052E+03  0.47000000000E+01 0. -1.
         -5    1    3    3    0  502 -0.19072490414E+02  0.25350531457E+02 -0.90098084276E+01  0.33311799466E+02  0.47000000000E+01 0.  1.
          5    1    4    4  503    0  0.46282525907E+02 -0.14297645429E+02  0.99125568631E+02  0.11042854353E+03  0.47000000000E+01 0. -1.
         -5    1    4    4    0  503  0.77158397656E+02  0.63501643496E+02  0.51277180705E+03  0.52243936792E+03  0.47000000000E+01 0.  1.
<mgrwt>
<rscale>  0 0.17299866E+03</rscale>
<asrwt>0</asrwt>
<pdfrwt beam="1">  1        2 0.12027339E+00 0.17698678E+03</pdfrwt>
<pdfrwt beam="2">  1       -2 0.91716103E-02 0.17698678E+03</pdfrwt>
<totfact> 0.27525631E+03</totfact>
</mgrwt>
</event>
<event>
 8    1  0.9456677E-004  0.1236625E+03  0.7546771E-02  0.1237985E+00
          1   -1    0    0  501    0  0.00000000000E+00  0.00000000000E+00  0.12166546563E+04  0.12166546563E+04  0.00000000000E+00 0. -1.
         -1   -1    0    0    0  501 -0.00000000000E+00 -0.00000000000E+00 -0.13928583306E+02  0.13928583306E+02  0.00000000000E+00 0.  1.
         23    2    1    2    0    0  0.40142959396E+02  0.71100145607E+02  0.39073349535E+03  0.40922804315E+03  0.90156746909E+02 0.  0.
         23    2    1    2    0    0 -0.40142959396E+02 -0.71100145607E+02  0.81199257766E+03  0.82135519648E+03  0.92874779733E+02 0.  0.
          5    1    4    4  502    0 -0.17345343237E+02 -0.91164658011E+02  0.60514295092E+03  0.61223519733E+03  0.47000000000E+01 0. -1.
         -5    1    3    3    0  503  0.31571957970E+02  0.92521728018E+02  0.32415946475E+03  0.33861262125E+03  0.47000000000E+01 0.  1.
          5    1    3    3  503    0  0.85710014257E+01 -0.21421582412E+02  0.66574030607E+02  0.70615421898E+02  0.47000000000E+01 0. -1.
         -5    1    4    4    0  502 -0.22797616159E+02  0.20064512404E+02  0.20684962674E+03  0.20911999915E+03  0.47000000000E+01 0.  1.
<mgrwt>
<rscale>  0 0.12315232E+03</rscale>
<asrwt>0</asrwt>
<pdfrwt beam="1">  1        1 0.18717756E+00 0.12366249E+03</pdfrwt>
<pdfrwt beam="2">  1       -1 0.21428599E-02 0.12366249E+03</pdfrwt>
<totfact> 0.67047280E+03</totfact>
</mgrwt>
</event>
<event>
 8    1  0.9456677E-004  0.1106543E+03  0.7546771E-02  0.1259618E+00
         -2   -1    0    0    0  501 -0.00000000000E+00  0.00000000000E+00  0.25536211652E+02  0.25536211652E+02  0.00000000000E+00 0.  1.
          2   -1    0    0  501    0  0.00000000000E+00 -0.00000000000E+00 -0.86754546734E+03  0.86754546734E+03  0.00000000000E+00 0. -1.
         23    2    1    2    0    0 -0.32069790499E+02  0.51812893562E+02 -0.71999392654E+03  0.72836337352E+03  0.91700066677E+02 0.  0.
         23    2    1    2    0    0  0.32069790499E+02 -0.51812893562E+02 -0.12201532915E+03  0.16471830547E+03  0.92365211029E+02 0.  0.
          5    1    3    3  502    0  0.13212340167E+02  0.60859306418E+02 -0.46556164848E+03  0.46973200833E+03  0.47000000000E+01 0. -1.
         -5    1    4    4    0  503  0.31039523794E+02 -0.77901623185E+02 -0.96140906053E+02  0.12766079566E+03  0.47000000000E+01 0.  1.
          5    1    4    4  503    0  0.10302667051E+01  0.26088729623E+02 -0.25874423094E+02  0.37057509809E+02  0.47000000000E+01 0. -1.
         -5    1    3    3    0  502 -0.45282130666E+02 -0.90464128566E+01 -0.25443227805E+03  0.25863136519E+03  0.47000000000E+01 0.  1.
<mgrwt>
<rscale>  0 0.11051541E+03</rscale>
<asrwt>0</asrwt>
<pdfrwt beam="1">  1        2 0.13346853E+00 0.11065432E+03</pdfrwt>
<pdfrwt beam="2">  1       -2 0.39286480E-02 0.11065432E+03</pdfrwt>
<totfact> 0.85863916E+03</totfact>
</mgrwt>
</event>
<event>
 8    1  0.9456677E-004  0.1067891E+03  0.7546771E-02  0.1267041E+00
          1   -1    0    0  501    0  0.00000000000E+00  0.00000000000E+00  0.32577744576E+03  0.32577744576E+03  0.00000000000E+00 0. -1.
         -1   -1    0    0    0  501 -0.00000000000E+00 -0.00000000000E+00 -0.12186164117E+03  0.12186164117E+03  0.00000000000E+00 0.  1.
         23    2    1    2    0    0 -0.28014828292E+01  0.53134173263E+02 -0.87183745901E+02  0.13785835448E+03  0.92589587292E+02 0.  0.
         23    2    1    2    0    0  0.28014828292E+01 -0.53134173263E+02  0.29109955049E+03  0.30978073245E+03  0.91619131332E+02 0.  0.
          5    1    3    3  502    0  0.40077310684E+02  0.92946383169E+01 -0.53764841032E+02  0.67862576316E+02  0.47000000000E+01 0. -1.
         -5    1    4    4    0  503  0.35656192808E+01 -0.25277755613E+02  0.10888709660E+02  0.28148402579E+02  0.47000000000E+01 0.  1.
          5    1    4    4  503    0 -0.76413645154E+00 -0.27856417650E+02  0.28021084083E+03  0.28163232987E+03  0.47000000000E+01 0. -1.
         -5    1    3    3    0  502 -0.42878793513E+02  0.43839534946E+02 -0.33418904869E+02  0.69995778159E+02  0.47000000000E+01 0.  1.
<mgrwt>
<rscale>  0 0.10657844E+03</rscale>
<asrwt>0</asrwt>
<pdfrwt beam="1">  1        1 0.50119607E-01 0.10678914E+03</pdfrwt>
<pdfrwt beam="2">  1       -1 0.18747945E-01 0.10678914E+03</pdfrwt>
<totfact> 0.17227610E+03</totfact>
</mgrwt>
</event>
<event>
 8    1  0.9456677E-004  0.9902906E+02  0.7546771E-02  0.1284446E+00
         -1   -1    0    0    0  501 -0.00000000000E+00  0.00000000000E+00  0.34940185839E+03  0.34940185839E+03  0.00000000000E+00 0.  1.
          1   -1    0    0  501    0  0.00000000000E+00 -0.00000000000E+00 -0.27222999461E+02  0.27222999461E+02  0.00000000000E+00 0. -1.
         23    2    1    2    0    0  0.34563952219E+02  0.32062718311E+01  0.18179715486E+03  0.20701922742E+03  0.92745932718E+02 0.  0.
         23    2    1    2    0    0 -0.34563952219E+02 -0.32062718311E+01  0.14038170407E+03  0.16960563043E+03  0.88623360709E+02 0.  0.
          5    1    3    3  502    0 -0.28109706738E+02 -0.94680158571E+01  0.31015758847E+02  0.43172517114E+02  0.47000000000E+01 0. -1.
         -5    1    4    4    0  503 -0.16825978958E+02 -0.33097394625E+02  0.12643930491E+03  0.13186181754E+03  0.47000000000E+01 0.  1.
          5    1    4    4  503    0 -0.17737973260E+02  0.29891122794E+02  0.13942399166E+02  0.37743812893E+02  0.47000000000E+01 0. -1.
         -5    1    3    3    0  502  0.62673658956E+02  0.12674287688E+02  0.15078139601E+03  0.16384671031E+03  0.47000000000E+01 0.  1.
<mgrwt>
<rscale>  0 0.98052193E+02</rscale>
<asrwt>0</asrwt>
<pdfrwt beam="1">  1        1 0.41881540E-02 0.99029061E+02</pdfrwt>
<pdfrwt beam="2">  1       -1 0.53754129E-01 0.99029061E+02</pdfrwt>
<totfact> 0.70554080E+03</totfact>
</mgrwt>
</event>
<event>
 8    1  0.9456677E-004  0.1404680E+03  0.7546771E-02  0.1214163E+00
          3   -1    0    0  501    0  0.00000000000E+00  0.00000000000E+00  0.13035169893E+04  0.13035169893E+04  0.00000000000E+00 0. -1.
         -3   -1    0    0    0  501 -0.00000000000E+00 -0.00000000000E+00 -0.31745623810E+02  0.31745623810E+02  0.00000000000E+00 0.  1.
         23    2    1    2    0    0 -0.87015443627E+02  0.62450346373E+02  0.11208305247E+04  0.11290723888E+04  0.84093167813E+02 0.  0.
         23    2    1    2    0    0  0.87015443627E+02 -0.62450346373E+02  0.15094084079E+03  0.20619022431E+03  0.90882000354E+02 0.  0.
          5    1    4    4  502    0  0.19742532606E+02 -0.55966206430E+02  0.11500877186E+03  0.12950324884E+03  0.47000000000E+01 0. -1.
         -5    1    4    4    0  502  0.67272911021E+02 -0.64841399431E+01  0.35932068933E+02  0.76686975464E+02  0.47000000000E+01 0.  1.
          5    1    3    3  503    0 -0.97075560079E+02  0.30366840323E+02  0.87642950022E+03  0.88232452545E+03  0.47000000000E+01 0. -1.
         -5    1    3    3    0  503  0.10060116452E+02  0.32083506049E+02  0.24440102444E+03  0.24674786331E+03  0.47000000000E+01 0.  1.
<mgrwt>
<rscale>  0 0.13938204E+03</rscale>
<asrwt>0</asrwt>
<pdfrwt beam="1">  1        3 0.20054103E+00 0.14046804E+03</pdfrwt>
<pdfrwt beam="2">  1       -3 0.48839431E-02 0.14046804E+03</pdfrwt>
<totfact> 0.89736723E+01</totfact>
</mgrwt>
</event>
<event>
 8    1  0.9456677E-004  0.9692448E+02  0.7546771E-02  0.1287297E+00
          1   -1    0    0  501    0  0.00000000000E+00  0.00000000000E+00  0.18396824349E+02  0.18396824349E+02  0.00000000000E+00 0. -1.
         -1   -1    0    0    0  501 -0.00000000000E+00 -0.00000000000E+00 -0.50686603634E+03  0.50686603634E+03  0.00000000000E+00 0.  1.
         23    2    1    2    0    0 -0.19346158999E+00 -0.32283206142E+02 -0.24183304817E+03  0.26026521512E+03  0.90622934142E+02 0.  0.
         23    2    1    2    0    0  0.19346158999E+00  0.32283206142E+02 -0.24663616383E+03  0.26499764557E+03  0.91389890152E+02 0.  0.
          5    1    3    3  502    0  0.21938341781E+02  0.25418811148E+02 -0.95860034207E+02  0.10167911761E+03  0.47000000000E+01 0. -1.
         -5    1    3    3    0  502 -0.22131803371E+02 -0.57702017290E+02 -0.14597301396E+03  0.15858609751E+03  0.47000000000E+01 0.  1.
          5    1    4    4  503    0  0.19907046263E+01 -0.27308344728E+02 -0.32940055249E+02  0.43091134082E+02  0.47000000000E+01 0.  1.
         -5    1    4    4    0  503 -0.17972430363E+01  0.59591550870E+02 -0.21369610858E+03  0.22190651149E+03  0.47000000000E+01 0. -1.
<mgrwt>
<rscale>  0 0.96743267E+02</rscale>
<asrwt>0</asrwt>
<pdfrwt beam="1">  1        1 0.28302804E-02 0.96924480E+02</pdfrwt>
<pdfrwt beam="2">  1       -1 0.77979397E-01 0.96924480E+02</pdfrwt>
<totfact> 0.58908202E+03</totfact>
</mgrwt>
</event>
<event>
 8    1  0.9456677E-004  0.1200616E+03  0.7546771E-02  0.1245038E+00
         -1   -1    0    0    0  501 -0.00000000000E+00  0.00000000000E+00  0.27979458658E+03  0.27979458658E+03  0.00000000000E+00 0.  1.
          1   -1    0    0  501    0  0.00000000000E+00 -0.00000000000E+00 -0.50645224071E+02  0.50645224071E+02  0.00000000000E+00 0. -1.
         23    2    1    2    0    0 -0.61472184111E+02 -0.34254795652E+02  0.13753860412E+03  0.17941889256E+03  0.91225275770E+02 0.  0.
         23    2    1    2    0    0  0.61472184111E+02  0.34254795652E+02  0.91610758382E+02  0.15102091809E+03  0.97275722581E+02 0.  0.
          5    1    4    4  502    0  0.72835985657E+02 -0.99611927609E+01  0.49636097422E+02  0.88826450650E+02  0.47000000000E+01 0. -1.
         -5    1    4    4    0  502 -0.11363801546E+02  0.44215988413E+02  0.41974660960E+02  0.62194467436E+02  0.47000000000E+01 0.  1.
          5    1    3    3  503    0 -0.54899030548E+02 -0.54438290662E+02  0.13734089862E+03  0.15767702268E+03  0.47000000000E+01 0. -1.
         -5    1    3    3    0  503 -0.65731535632E+01  0.20183495011E+02  0.19770549882E+00  0.21741869884E+02  0.47000000000E+01 0.  1.
<mgrwt>
<rscale>  0 0.11883091E+03</rscale>
<asrwt>0</asrwt>
<pdfrwt beam="1">  1        1 0.77915731E-02 0.12006160E+03</pdfrwt>
<pdfrwt beam="2">  1       -1 0.43045320E-01 0.12006160E+03</pdfrwt>
<totfact> 0.46205696E+03</totfact>
</mgrwt>
</event>
<event>
 8    1  0.9456677E-004  0.9953419E+02  0.7546771E-02  0.1282726E+00
         -1   -1    0    0    0  501 -0.00000000000E+00  0.00000000000E+00  0.15719523106E+02  0.15719523106E+02  0.00000000000E+00 0.  1.
          1   -1    0    0  501    0  0.00000000000E+00 -0.00000000000E+00 -0.63550951306E+03  0.63550951306E+03  0.00000000000E+00 0. -1.
         23    2    1    2    0    0  0.32641254802E+02 -0.17794824902E+02 -0.36667097305E+03  0.37924320662E+03  0.89418678016E+02 0.  0.
         23    2    1    2    0    0 -0.32641254802E+02  0.17794824902E+02 -0.25311901690E+03  0.27198582955E+03  0.92330641985E+02 0.  0.
          5    1    3    3  502    0 -0.44892143734E+01  0.29137640932E+02 -0.19737256360E+03  0.19961756944E+03  0.47000000000E+01 0. -1.
         -5    1    3    3    0  502  0.37130469176E+02 -0.46932465834E+02 -0.16929840945E+03  0.17962563718E+03  0.47000000000E+01 0.  1.
          5    1    4    4  503    0 -0.34641944106E+02  0.52323302327E+02 -0.18561299566E+03  0.19598996509E+03  0.47000000000E+01 0. -1.
         -5    1    4    4    0  503  0.20006893040E+01 -0.34528477425E+02 -0.67506021245E+02  0.75995864462E+02  0.47000000000E+01 0.  1.
<mgrwt>
<rscale>  0 0.98853460E+02</rscale>
<asrwt>0</asrwt>
<pdfrwt beam="1">  1        1 0.97770691E-01 0.99534189E+02</pdfrwt>
<pdfrwt beam="2">  1       -1 0.24183883E-02 0.99534189E+02</pdfrwt>
<totfact> 0.15547332E+04</totfact>
</mgrwt>
</event>
<event>
 8    1  0.9456677E-004  0.1071778E+03  0.7546771E-02  0.1268315E+00
         -4   -1    0    0    0  501 -0.00000000000E+00  0.00000000000E+00  0.47360898246E+02  0.47360898246E+02  0.00000000000E+00 0. -1.
          4   -1    0    0  501    0  0.00000000000E+00 -0.00000000000E+00 -0.36957119644E+03  0.36957119644E+03  0.00000000000E+00 0.  1.
         23    2    1    2    0    0 -0.33488742617E+02 -0.36101889498E+02 -0.28612521006E+03  0.30384264950E+03  0.89598423629E+02 0.  0.
         23    2    1    2    0    0  0.33488742617E+02  0.36101889498E+02 -0.36085088137E+02  0.11308944519E+03  0.95195833521E+02 0.  0.
          5    1    4    4  502    0  0.47804932882E+02  0.19854494115E+02  0.17708403909E+02  0.54910746794E+02  0.47000000000E+01 0. -1.
         -5    1    4    4    0  502 -0.14316190265E+02  0.16247395382E+02 -0.53793492046E+02  0.58178698394E+02  0.47000000000E+01 0.  1.
          5    1    3    3  503    0 -0.28183086691E+02 -0.64833457405E+02 -0.22571549733E+03  0.23657396161E+03  0.47000000000E+01 0. -1.
         -5    1    3    3    0  503 -0.53056559263E+01  0.28731567907E+02 -0.60409712727E+02  0.67268687894E+02  0.47000000000E+01 0.  1.
<mgrwt>
<rscale>  0 0.10592108E+03</rscale>
<asrwt>0</asrwt>
<pdfrwt beam="1">  1        4 0.56857109E-01 0.10717784E+03</pdfrwt>
<pdfrwt beam="2">  1       -4 0.72862918E-02 0.10717784E+03</pdfrwt>
<totfact> 0.60449780E+02</totfact>
</mgrwt>
</event>
<event>
 8    1  0.9456677E-004  0.1070883E+03  0.7546771E-02  0.1269375E+00
          3   -1    0    0  501    0  0.00000000000E+00  0.00000000000E+00  0.13535088855E+03  0.13535088855E+03  0.00000000000E+00 0. -1.
         -3   -1    0    0    0  501 -0.00000000000E+00 -0.00000000000E+00 -0.91097752091E+02  0.91097752091E+02  0.00000000000E+00 0.  1.
         23    2    1    2    0    0 -0.25326493901E+02  0.48702157472E+02  0.61837501127E+02  0.11792619375E+03  0.84079600328E+02 0.  0.
         23    2    1    2    0    0  0.25326493901E+02 -0.48702157472E+02 -0.17584364664E+02  0.10852244689E+03  0.91948790983E+02 0.  0.
          5    1    3    3  502    0 -0.36093040128E+02  0.19942735291E+02  0.73772929665E+02  0.84646059494E+02  0.47000000000E+01 0. -1.
         -5    1    3    3    0  502  0.10766546227E+02  0.28759422180E+02 -0.11935428538E+02  0.33280134257E+02  0.47000000000E+01 0.  1.
          5    1    4    4  503    0  0.51976959339E+02 -0.54998080873E+02 -0.33597367726E+00  0.75819496702E+02  0.47000000000E+01 0. -1.
         -5    1    4    4    0  503 -0.26650465438E+02  0.62959234012E+01 -0.17248390987E+02  0.32702950191E+02  0.47000000000E+01 0.  1.
<mgrwt>
<rscale>  0 0.10537893E+03</rscale>
<asrwt>0</asrwt>
<pdfrwt beam="1">  1        3 0.20823214E-01 0.10708834E+03</pdfrwt>
<pdfrwt beam="2">  1       -3 0.14015039E-01 0.10708834E+03</pdfrwt>
<totfact> 0.19138054E+03</totfact>
</mgrwt>
</event>
<event>
 8    1  0.9456677E-004  0.9671126E+02  0.7546771E-02  0.1288693E+00
         -1   -1    0    0    0  501 -0.00000000000E+00  0.00000000000E+00  0.86122265912E+03  0.86122265912E+03  0.00000000000E+00 0.  1.
          1   -1    0    0  501    0  0.00000000000E+00 -0.00000000000E+00 -0.11313549225E+02  0.11313549225E+02  0.00000000000E+00 0. -1.
         23    2    1    2    0    0 -0.16179799146E+02 -0.27866748248E+02  0.53987064121E+03  0.54846456274E+03  0.91185118203E+02 0.  0.
         23    2    1    2    0    0  0.16179799146E+02  0.27866748248E+02  0.31003846868E+03  0.32407164560E+03  0.88657982514E+02 0.  0.
          5    1    4    4  502    0  0.35879153296E+02  0.45798395720E+02  0.13676618335E+03  0.14870065770E+03  0.47000000000E+01 0. -1.
         -5    1    4    4    0  502 -0.19699354150E+02 -0.17931647472E+02  0.17327228533E+03  0.17537098790E+03  0.47000000000E+01 0.  1.
          5    1    3    3  503    0 -0.45166091777E+02  0.11399331943E+02  0.30030527930E+03  0.30393300477E+03  0.47000000000E+01 0. -1.
         -5    1    3    3    0  503  0.28986292631E+02 -0.39266080191E+02  0.23956536192E+03  0.24453155797E+03  0.47000000000E+01 0.  1.
<mgrwt>
<rscale>  0 0.96110947E+02</rscale>
<asrwt>0</asrwt>
<pdfrwt beam="1">  1        1 0.17405467E-02 0.96711258E+02</pdfrwt>
<pdfrwt beam="2">  1       -1 0.13249574E+00 0.96711258E+02</pdfrwt>
<totfact> 0.35840318E+03</totfact>
</mgrwt>
</event>
<event>
 8    1  0.9456677E-004  0.9910756E+02  0.7546771E-02  0.1283256E+00
         -2   -1    0    0    0  501 -0.00000000000E+00  0.00000000000E+00  0.26485426533E+02  0.26485426533E+02  0.00000000000E+00 0.  1.
          2   -1    0    0  501    0  0.00000000000E+00 -0.00000000000E+00 -0.39691007406E+03  0.39691007406E+03  0.00000000000E+00 0. -1.
         23    2    1    2    0    0 -0.30322385361E+02 -0.15222061255E+02 -0.24841103576E+03  0.26745158570E+03  0.93119008809E+02 0.  0.
         23    2    1    2    0    0  0.30322385361E+02  0.15222061255E+02 -0.12201361176E+03  0.15594391489E+03  0.90994642336E+02 0.  0.
          5    1    4    4  502    0  0.29760432102E+02  0.51909185647E+02 -0.78955219803E+02  0.99177939117E+02  0.47000000000E+01 0. -1.
         -5    1    3    3    0  503 -0.62000518022E+02 -0.41858540305E+01 -0.18964744938E+03  0.19962422365E+03  0.47000000000E+01 0.  1.
          5    1    3    3  503    0  0.31678132662E+02 -0.11036207225E+02 -0.58763586379E+02  0.67827362052E+02  0.47000000000E+01 0. -1.
         -5    1    4    4    0  502  0.56195325899E+00 -0.36687124391E+02 -0.43058391961E+02  0.56765975777E+02  0.47000000000E+01 0.  1.
<mgrwt>
<rscale>  0 0.98605435E+02</rscale>
<asrwt>0</asrwt>
<pdfrwt beam="1">  1        2 0.61063085E-01 0.99107558E+02</pdfrwt>
<pdfrwt beam="2">  1       -2 0.40746812E-02 0.99107558E+02</pdfrwt>
<totfact> 0.19587146E+04</totfact>
</mgrwt>
</event>
<event>
 8    1  0.9456677E-004  0.1880082E+03  0.7546771E-02  0.1161845E+00
          1   -1    0    0  501    0  0.00000000000E+00  0.00000000000E+00  0.27941032207E+02  0.27941032207E+02  0.00000000000E+00 0. -1.
         -1   -1    0    0    0  501 -0.00000000000E+00 -0.00000000000E+00 -0.12964618314E+04  0.12964618314E+04  0.00000000000E+00 0.  1.
         23    2    1    2    0    0 -0.39225177494E+02  0.15401959524E+03 -0.48439366670E+03  0.51960014649E+03  0.10043125825E+03 0.  0.
         23    2    1    2    0    0  0.39225177494E+02 -0.15401959524E+03 -0.78412713251E+03  0.80480271713E+03  0.87128659411E+02 0.  0.
          5    1    4    4  502    0  0.64237553908E+02 -0.12117777119E+03 -0.65245117062E+03  0.66672718229E+03  0.47000000000E+01 0. -1.
         -5    1    3    3    0  503 -0.61359577127E+01  0.15425962620E+03 -0.39052884790E+03  0.41996256178E+03  0.47000000000E+01 0.  1.
          5    1    3    3  503    0 -0.33089219781E+02 -0.24003096017E+00 -0.93864818796E+02  0.99637584717E+02  0.47000000000E+01 0. -1.
         -5    1    4    4    0  502 -0.25012376414E+02 -0.32841824048E+02 -0.13167596189E+03  0.13807553484E+03  0.47000000000E+01 0.  1.
<mgrwt>
<rscale>  0 0.18629574E+03</rscale>
<asrwt>0</asrwt>
<pdfrwt beam="1">  1        1 0.42986204E-02 0.18800821E+03</pdfrwt>
<pdfrwt beam="2">  1       -1 0.19945566E+00 0.18800821E+03</pdfrwt>
<totfact> 0.34649030E+02</totfact>
</mgrwt>
</event>
<event>
 8    1  0.9456677E-004  0.1110107E+03  0.7546771E-02  0.1259241E+00
          1   -1    0    0  501    0  0.00000000000E+00  0.00000000000E+00  0.40331034721E+03  0.40331034721E+03  0.00000000000E+00 0. -1.
         -1   -1    0    0    0  501 -0.00000000000E+00 -0.00000000000E+00 -0.12942188469E+03  0.12942188469E+03  0.00000000000E+00 0.  1.
         23    2    1    2    0    0 -0.23028024655E+02 -0.52298054734E+02 -0.96404180453E+02  0.14615751448E+03  0.93823646171E+02 0.  0.
         23    2    1    2    0    0  0.23028024655E+02  0.52298054734E+02  0.37029264298E+03  0.38657471742E+03  0.95173495567E+02 0.  0.
          5    1    4    4  502    0 -0.14180644826E+02  0.46837180544E+02  0.31917915313E+03  0.32294308161E+03  0.47000000000E+01 0. -1.
         -5    1    4    4    0  502  0.37208669481E+02  0.54608741896E+01  0.51113489852E+02  0.63631635813E+02  0.47000000000E+01 0.  1.
          5    1    3    3  503    0 -0.37193566620E+02  0.15316361213E+02 -0.32360903511E+02  0.51838888827E+02  0.47000000000E+01 0. -1.
         -5    1    3    3    0  503  0.14165541966E+02 -0.67614415947E+02 -0.64043276942E+02  0.94318625650E+02  0.47000000000E+01 0.  1.
<mgrwt>
<rscale>  0 0.11072078E+03</rscale>
<asrwt>0</asrwt>
<pdfrwt beam="1">  1        1 0.62047745E-01 0.11101068E+03</pdfrwt>
<pdfrwt beam="2">  1       -1 0.19911059E-01 0.11101068E+03</pdfrwt>
<totfact> 0.12022859E+03</totfact>
</mgrwt>
</event>
<event>
 8    1  0.9456677E-004  0.9307165E+02  0.7546771E-02  0.1298994E+00
          2   -1    0    0  501    0  0.00000000000E+00  0.00000000000E+00  0.25043964938E+03  0.25043964938E+03  0.00000000000E+00 0. -1.
         -2   -1    0    0    0  501 -0.00000000000E+00 -0.00000000000E+00 -0.41267969933E+02  0.41267969933E+02  0.00000000000E+00 0.  1.
         23    2    1    2    0    0 -0.15255161343E+02 -0.29279088590E+01  0.39993381242E+02  0.10130055323E+03  0.91766218962E+02 0.  0.
         23    2    1    2    0    0  0.15255161343E+02  0.29279088590E+01  0.16917829820E+03  0.19040706609E+03  0.85978262571E+02 0.  0.
          5    1    4    4  502    0  0.34778405626E+02  0.13606150864E+02  0.16235636839E+03  0.16666236887E+03  0.47000000000E+01 0. -1.
         -5    1    4    4    0  502 -0.19523244283E+02 -0.10678242005E+02  0.68219298110E+01  0.23744697218E+02  0.47000000000E+01 0.  1.
          5    1    3    3  503    0  0.27441513872E+02  0.76628064924E+01  0.48312282601E+02  0.56284295652E+02  0.47000000000E+01 0. -1.
         -5    1    3    3    0  503 -0.42696675215E+02 -0.10590715351E+02 -0.83189013591E+01  0.45016257573E+02  0.47000000000E+01 0.  1.
<mgrwt>
<rscale>  0 0.91612324E+02</rscale>
<asrwt>0</asrwt>
<pdfrwt beam="1">  1        2 0.38529176E-01 0.93071647E+02</pdfrwt>
<pdfrwt beam="2">  1       -2 0.63489186E-02 0.93071647E+02</pdfrwt>
<totfact> 0.16299544E+04</totfact>
</mgrwt>
</event>
<event>
 8    1  0.9456677E-004  0.9321781E+02  0.7546771E-02  0.1295677E+00
          2   -1    0    0  501    0  0.00000000000E+00  0.00000000000E+00  0.53139462693E+03  0.53139462693E+03  0.00000000000E+00 0. -1.
         -2   -1    0    0    0  501 -0.00000000000E+00 -0.00000000000E+00 -0.16286993194E+02  0.16286993194E+02  0.00000000000E+00 0.  1.
         23    2    1    2    0    0 -0.30027206310E+02 -0.13480478981E+02  0.23906168193E+03  0.25632114233E+03  0.86409975151E+02 0.  0.
         23    2    1    2    0    0  0.30027206310E+02  0.13480478981E+02  0.27604595181E+03  0.29136047779E+03  0.87213554447E+02 0.  0.
          5    1    4    4  502    0  0.58988156000E+02  0.20955208414E+02  0.19417499834E+03  0.20407043708E+03  0.47000000000E+01 0. -1.
         -5    1    3    3    0  503 -0.32764487806E+02  0.20765682945E+02  0.46846760558E+02  0.61003559110E+02  0.47000000000E+01 0.  1.
          5    1    3    3  503    0  0.27372814956E+01 -0.34246161926E+02  0.19221492137E+03  0.19531758322E+03  0.47000000000E+01 0. -1.
         -5    1    4    4    0  502 -0.28960949690E+02 -0.74747294327E+01  0.81870953464E+02  0.87290040715E+02  0.47000000000E+01 0.  1.
<mgrwt>
<rscale>  0 0.93029396E+02</rscale>
<asrwt>0</asrwt>
<pdfrwt beam="1">  1        2 0.81753006E-01 0.93217812E+02</pdfrwt>
<pdfrwt beam="2">  1       -2 0.25056917E-02 0.93217812E+02</pdfrwt>
<totfact> 0.28955546E+04</totfact>
</mgrwt>
</event>
<event>
 8    1  0.9456677E-004  0.1587170E+03  0.7546771E-02  0.1190673E+00
          3   -1    0    0  501    0  0.00000000000E+00  0.00000000000E+00  0.45270829236E+03  0.45270829236E+03  0.00000000000E+00 0. -1.
         -3   -1    0    0    0  501 -0.00000000000E+00 -0.00000000000E+00 -0.68941320424E+02  0.68941320424E+02  0.00000000000E+00 0.  1.
         23    2    1    2    0    0  0.35470870224E+02 -0.12247490585E+03  0.75522303672E+02  0.17576885738E+03  0.94513425904E+02 0.  0.
         23    2    1    2    0    0 -0.35470870224E+02  0.12247490585E+03  0.30824466827E+03  0.34588075541E+03  0.91435421193E+02 0.  0.
          5    1    3    3  502    0  0.21444751817E+02 -0.26478232456E+02  0.70578235202E+02  0.78513383947E+02  0.47000000000E+01 0. -1.
         -5    1    4    4    0  503 -0.45721781139E+02  0.16866819887E+02  0.74629261116E+02  0.89255742102E+02  0.47000000000E+01 0.  1.
          5    1    4    4  503    0  0.10250910915E+02  0.10560808596E+03  0.23361540715E+03  0.25662501331E+03  0.47000000000E+01 0. -1.
         -5    1    3    3    0  502  0.14026118407E+02 -0.95996673392E+02  0.49440684695E+01  0.97255473434E+02  0.47000000000E+01 0.  1.
<mgrwt>
<rscale>  0 0.15826165E+03</rscale>
<asrwt>0</asrwt>
<pdfrwt beam="1">  1        3 0.69647428E-01 0.15871696E+03</pdfrwt>
<pdfrwt beam="2">  1       -3 0.10606357E-01 0.15871696E+03</pdfrwt>
<totfact> 0.31989376E+02</totfact>
</mgrwt>
</event>
<event>
 8    1  0.9456677E-004  0.9887755E+02  0.7546771E-02  0.1283863E+00
          1   -1    0    0  501    0  0.00000000000E+00  0.00000000000E+00  0.43707958031E+03  0.43707958031E+03  0.00000000000E+00 0. -1.
         -1   -1    0    0    0  501 -0.00000000000E+00 -0.00000000000E+00 -0.21882330593E+02  0.21882330593E+02  0.00000000000E+00 0.  1.
         23    2    1    2    0    0 -0.34988235881E+02  0.62530959112E+01  0.20993324586E+03  0.23112407035E+03  0.89906008243E+02 0.  0.
         23    2    1    2    0    0  0.34988235881E+02 -0.62530959112E+01  0.20526400386E+03  0.22783784055E+03  0.92268588645E+02 0.  0.
          5    1    3    3  502    0  0.20819205533E+02 -0.24719714492E+02  0.73103937982E+02  0.80067342606E+02  0.47000000000E+01 0. -1.
         -5    1    4    4    0  503  0.19282017682E+02  0.16518393287E+02  0.58712311405E+01  0.26480462189E+02  0.47000000000E+01 0.  1.
          5    1    4    4  503    0  0.15706218199E+02 -0.22771489198E+02  0.19939277272E+03  0.20135737837E+03  0.47000000000E+01 0. -1.
         -5    1    3    3    0  502 -0.55807441414E+02  0.30972810404E+02  0.13682930788E+03  0.15105672774E+03  0.47000000000E+01 0.  1.
<mgrwt>
<rscale>  0 0.98322665E+02</rscale>
<asrwt>0</asrwt>
<pdfrwt beam="1">  1        1 0.67243006E-01 0.98877552E+02</pdfrwt>
<pdfrwt beam="2">  1       -1 0.33665127E-02 0.98877552E+02</pdfrwt>
<totfact> 0.15725831E+04</totfact>
</mgrwt>
</event>
<event>
 8    1  0.9456677E-004  0.9925724E+02  0.7546771E-02  0.1282542E+00
         -2   -1    0    0    0  501 -0.00000000000E+00  0.00000000000E+00  0.89370391756E+02  0.89370391756E+02  0.00000000000E+00 0.  1.
          2   -1    0    0  501    0  0.00000000000E+00 -0.00000000000E+00 -0.12155734446E+03  0.12155734446E+03  0.00000000000E+00 0. -1.
         23    2    1    2    0    0 -0.21370191417E+02  0.36522292303E+02  0.18114235472E+02  0.99652357023E+02  0.88384975065E+02 0.  0.
         23    2    1    2    0    0  0.21370191417E+02 -0.36522292303E+02 -0.50301188175E+02  0.11127537919E+03  0.89785508667E+02 0.  0.
          5    1    3    3  502    0  0.13808546154E+02 -0.21480695490E+02 -0.74390524093E+01  0.27009733919E+02  0.47000000000E+01 0. -1.
         -5    1    4    4    0  503 -0.29290680646E+02 -0.14226976415E+01  0.27408715190E+01  0.29825667100E+02  0.47000000000E+01 0.  1.
          5    1    4    4  503    0  0.50660872063E+02 -0.35099594661E+02 -0.53042059694E+02  0.81449712093E+02  0.47000000000E+01 0. -1.
         -5    1    3    3    0  502 -0.35178737571E+02  0.58002987793E+02  0.25553287881E+02  0.72642623104E+02  0.47000000000E+01 0.  1.
<mgrwt>
<rscale>  0 0.98939454E+02</rscale>
<asrwt>0</asrwt>
<pdfrwt beam="1">  1        2 0.18701130E-01 0.99257244E+02</pdfrwt>
<pdfrwt beam="2">  1       -2 0.13749291E-01 0.99257244E+02</pdfrwt>
<totfact> 0.10839657E+04</totfact>
</mgrwt>
</event>
<event>
 8    1  0.9456677E-004  0.9174651E+02  0.7546771E-02  0.1299245E+00
          1   -1    0    0  501    0  0.00000000000E+00  0.00000000000E+00  0.28962322162E+02  0.28962322162E+02  0.00000000000E+00 0. -1.
         -1   -1    0    0    0  501 -0.00000000000E+00 -0.00000000000E+00 -0.35216380443E+03  0.35216380443E+03  0.00000000000E+00 0.  1.
         23    2    1    2    0    0  0.83092079532E+01  0.22065409290E+01 -0.24249819723E+03  0.25893593952E+03  0.90379938890E+02 0.  0.
         23    2    1    2    0    0 -0.83092079532E+01 -0.22065409290E+01 -0.80703285036E+02  0.12219018707E+03  0.91342814943E+02 0.  0.
          5    1    4    4  502    0 -0.42528395442E+02  0.13215355517E+02 -0.69609427770E+02  0.82769997431E+02  0.47000000000E+01 0. -1.
         -5    1    4    4    0  502  0.34219187489E+02 -0.15421896446E+02 -0.11093857266E+02  0.39420189642E+02  0.47000000000E+01 0.  1.
          5    1    3    3  503    0 -0.21738723667E+02 -0.76733433698E+01 -0.12340657013E+02  0.26567538852E+02  0.47000000000E+01 0. -1.
         -5    1    3    3    0  503  0.30047931620E+02  0.98798842988E+01 -0.23015754022E+03  0.23236840067E+03  0.47000000000E+01 0.  1.
<mgrwt>
<rscale>  0 0.91505914E+02</rscale>
<asrwt>0</asrwt>
<pdfrwt beam="1">  1        1 0.44557418E-02 0.91746507E+02</pdfrwt>
<pdfrwt beam="2">  1       -1 0.54179048E-01 0.91746507E+02</pdfrwt>
<totfact> 0.63505388E+03</totfact>
</mgrwt>
</event>
<event>
 8    1  0.9456677E-004  0.9469672E+02  0.7546771E-02  0.1292287E+00
          2   -1    0    0  501    0  0.00000000000E+00  0.00000000000E+00  0.10371921068E+03  0.10371921068E+03  0.00000000000E+00 0. -1.
         -2   -1    0    0    0  501 -0.00000000000E+00 -0.00000000000E+00 -0.10252774498E+03  0.10252774498E+03  0.00000000000E+00 0.  1.
         23    2    1    2    0    0 -0.11898912720E+02  0.32912900040E+02 -0.41086324926E+02  0.10322574624E+03  0.87992189871E+02 0.  0.
         23    2    1    2    0    0  0.11898912720E+02 -0.32912900040E+02  0.42277790628E+02  0.10302120942E+03  0.87184373011E+02 0.  0.
          5    1    4    4  502    0  0.44381229375E+02  0.58158895338E+00  0.32253975042E+02  0.55067600933E+02  0.47000000000E+01 0. -1.
         -5    1    4    4    0  502 -0.32482316655E+02 -0.33494488993E+02  0.10023815586E+02  0.47953608489E+02  0.47000000000E+01 0.  1.
          5    1    3    3  503    0  0.15042402127E+02 -0.25527207542E+02 -0.10155180889E+02  0.31672225774E+02  0.47000000000E+01 0. -1.
         -5    1    3    3    0  503 -0.26941314846E+02  0.58440107582E+02 -0.30931144037E+02  0.71553520467E+02  0.47000000000E+01 0.  1.
<mgrwt>
<rscale>  0 0.94508622E+02</rscale>
<asrwt>0</asrwt>
<pdfrwt beam="1">  1        2 0.15956802E-01 0.94696719E+02</pdfrwt>
<pdfrwt beam="2">  1       -2 0.15773499E-01 0.94696719E+02</pdfrwt>
<totfact> 0.10356008E+04</totfact>
</mgrwt>
</event>
<event>
 8    1  0.9456677E-004  0.1108140E+03  0.7546771E-02  0.1260032E+00
         -2   -1    0    0    0  501 -0.00000000000E+00  0.00000000000E+00  0.44255135940E+03  0.44255135940E+03  0.00000000000E+00 0.  1.
          2   -1    0    0  501    0  0.00000000000E+00 -0.00000000000E+00 -0.54029566285E+02  0.54029566285E+02  0.00000000000E+00 0. -1.
         23    2    1    2    0    0  0.13062164321E+01 -0.60078329547E+02  0.36819826098E+03  0.38391864315E+03  0.90622587070E+02 0.  0.
         23    2    1    2    0    0 -0.13062164321E+01  0.60078329547E+02  0.20323532135E+02  0.11266228253E+03  0.93105488909E+02 0.  0.
          5    1    3    3  502    0  0.32330537702E+02  0.81189017922E+01  0.11518484769E+03  0.12000341400E+03  0.47000000000E+01 0. -1.
         -5    1    3    3    0  502 -0.31024321270E+02 -0.68197231340E+02  0.25301341330E+03  0.26391522916E+03  0.47000000000E+01 0.  1.
          5    1    4    4  503    0  0.15714356769E+01  0.39917563703E+02 -0.35127407688E+02  0.53403240285E+02  0.47000000000E+01 0. -1.
         -5    1    4    4    0  503 -0.28776521090E+01  0.20160765844E+02  0.55450939823E+02  0.59259042249E+02  0.47000000000E+01 0.  1.
<mgrwt>
<rscale>  0 0.11029087E+03</rscale>
<asrwt>0</asrwt>
<pdfrwt beam="1">  1        2 0.83122413E-02 0.11081401E+03</pdfrwt>
<pdfrwt beam="2">  1       -2 0.68084822E-01 0.11081401E+03</pdfrwt>
<totfact> 0.15703636E+03</totfact>
</mgrwt>
</event>
<event>
 8    1  0.9456677E-004  0.9138363E+02  0.7546771E-02  0.1302056E+00
         -1   -1    0    0    0  501 -0.00000000000E+00  0.00000000000E+00  0.29080136035E+03  0.29080136035E+03  0.00000000000E+00 0.  1.
          1   -1    0    0  501    0  0.00000000000E+00 -0.00000000000E+00 -0.28112627136E+02  0.28112627136E+02  0.00000000000E+00 0. -1.
         23    2    1    2    0    0  0.88458525812E+01  0.50950071105E+01  0.10946322138E+03  0.14259440406E+03  0.90811667915E+02 0.  0.
         23    2    1    2    0    0 -0.88458525812E+01 -0.50950071105E+01  0.15322551184E+03  0.17631958343E+03  0.86639077886E+02 0.  0.
          5    1    3    3  502    0  0.29059320272E+02  0.40040333575E+02  0.70785405130E+02  0.86488935632E+02  0.47000000000E+01 0. -1.
         -5    1    4    4    0  503  0.21592970852E+02  0.20060332028E+01  0.14050826503E+03  0.14224958032E+03  0.47000000000E+01 0.  1.
          5    1    4    4  503    0 -0.30438823434E+02 -0.71010403133E+01  0.12717246811E+02  0.34070003111E+02  0.47000000000E+01 0. -1.
         -5    1    3    3    0  502 -0.20213467690E+02 -0.34945326465E+02  0.38677816250E+02  0.56105468429E+02  0.47000000000E+01 0.  1.
<mgrwt>
<rscale>  0 0.90329210E+02</rscale>
<asrwt>0</asrwt>
<pdfrwt beam="1">  1        1 0.43250198E-02 0.91383627E+02</pdfrwt>
<pdfrwt beam="2">  1       -1 0.44738669E-01 0.91383627E+02</pdfrwt>
<totfact> 0.93326921E+03</totfact>
</mgrwt>
</event>
<event>
 8    1  0.9456677E-004  0.1189784E+03  0.7546771E-02  0.1247584E+00
         -1   -1    0    0    0  501 -0.00000000000E+00  0.00000000000E+00  0.32182214446E+02  0.32182214446E+02  0.00000000000E+00 0.  1.
          1   -1    0    0  501    0  0.00000000000E+00 -0.00000000000E+00 -0.41619470607E+03  0.41619470607E+03  0.00000000000E+00 0. -1.
         23    2    1    2    0    0 -0.70174126640E+02  0.23235212456E+02 -0.19618568915E+03  0.22944430803E+03  0.93228658210E+02 0.  0.
         23    2    1    2    0    0  0.70174126640E+02 -0.23235212456E+02 -0.18782680248E+03  0.21893261249E+03  0.84783830625E+02 0.  0.
          5    1    4    4  502    0  0.60396143908E+02  0.14086475156E+02 -0.15843062953E+03  0.17020128482E+03  0.47000000000E+01 0. -1.
         -5    1    4    4    0  502  0.97779827321E+01 -0.37321687612E+02 -0.29396172948E+02  0.48731327671E+02  0.47000000000E+01 0.  1.
          5    1    3    3  503    0 -0.39616379731E+01  0.45027073323E+02 -0.10624899293E+03  0.11555981311E+03  0.47000000000E+01 0. -1.
         -5    1    3    3    0  503 -0.66212488667E+02 -0.21791860867E+02 -0.89936696214E+02  0.11388449491E+03  0.47000000000E+01 0.  1.
<mgrwt>
<rscale>  0 0.11732041E+03</rscale>
<asrwt>0</asrwt>
<pdfrwt beam="1">  1        1 0.64029950E-01 0.11897843E+03</pdfrwt>
<pdfrwt beam="2">  1       -1 0.49511103E-02 0.11897843E+03</pdfrwt>
<totfact> 0.96711358E+03</totfact>
</mgrwt>
</event>
<event>
 8    1  0.9456677E-004  0.9777140E+02  0.7546771E-02  0.1286586E+00
          1   -1    0    0  501    0  0.00000000000E+00  0.00000000000E+00  0.31347854292E+02  0.31347854292E+02  0.00000000000E+00 0. -1.
         -1   -1    0    0    0  501 -0.00000000000E+00 -0.00000000000E+00 -0.29885333946E+03  0.29885333946E+03  0.00000000000E+00 0.  1.
         23    2    1    2    0    0 -0.15114507951E+02 -0.58089859698E+01 -0.14704184646E+03  0.17505373187E+03  0.93596537128E+02 0.  0.
         23    2    1    2    0    0  0.15114507951E+02  0.58089859698E+01 -0.12046363871E+03  0.15514746189E+03  0.96421232152E+02 0.  0.
          5    1    4    4  502    0  0.95683929557E+01  0.49478070033E+02 -0.45349024734E+02  0.67957763370E+02  0.47000000000E+01 0. -1.
         -5    1    4    4    0  502  0.55461149954E+01 -0.43669084063E+02 -0.75114613979E+02  0.87189698518E+02  0.47000000000E+01 0.  1.
          5    1    3    3  503    0 -0.53280012011E+02 -0.73191390072E+01 -0.65450141472E+02  0.84841855793E+02  0.47000000000E+01 0. -1.
         -5    1    3    3    0  503  0.38165504060E+02  0.15101530374E+01 -0.81591704986E+02  0.90211876075E+02  0.47000000000E+01 0.  1.
<mgrwt>
<rscale>  0 0.97067705E+02</rscale>
<asrwt>0</asrwt>
<pdfrwt beam="1">  1        1 0.48227467E-02 0.97771400E+02</pdfrwt>
<pdfrwt beam="2">  1       -1 0.45977438E-01 0.97771400E+02</pdfrwt>
<totfact> 0.77184083E+03</totfact>
</mgrwt>
</event>
<event>
 8    1  0.9456677E-004  0.9262530E+02  0.7546771E-02  0.1296978E+00
         -2   -1    0    0    0  501 -0.00000000000E+00  0.00000000000E+00  0.17989961359E+02  0.17989961359E+02  0.00000000000E+00 0.  1.
          2   -1    0    0  501    0  0.00000000000E+00 -0.00000000000E+00 -0.60505607254E+03  0.60505607254E+03  0.00000000000E+00 0. -1.
         23    2    1    2    0    0  0.47049661258E+01 -0.16543975252E+02 -0.14916400266E+03  0.17558287210E+03  0.91014314589E+02 0.  0.
         23    2    1    2    0    0 -0.47049661258E+01  0.16543975252E+02 -0.43790210852E+03  0.44746316181E+03  0.90383542210E+02 0.  0.
          5    1    3    3  502    0  0.30661344067E+02 -0.12193365203E+02 -0.14468633633E+03  0.14847566163E+03  0.47000000000E+01 0. -1.
         -5    1    3    3    0  502 -0.25956377941E+02 -0.43506100485E+01 -0.44776663318E+01  0.27107210469E+02  0.47000000000E+01 0.  1.
          5    1    4    4  503    0 -0.35767433853E+02 -0.10276719116E+02 -0.95889701118E+02  0.10296526143E+03  0.47000000000E+01 0.  1.
         -5    1    4    4    0  503  0.31062467727E+02  0.26820694367E+02 -0.34201240740E+03  0.34449790038E+03  0.47000000000E+01 0. -1.
<mgrwt>
<rscale>  0 0.92469973E+02</rscale>
<asrwt>0</asrwt>
<pdfrwt beam="1">  1        2 0.93085536E-01 0.92625295E+02</pdfrwt>
<pdfrwt beam="2">  1       -2 0.27676868E-02 0.92625295E+02</pdfrwt>
<totfact> 0.21702413E+04</totfact>
</mgrwt>
</event>
<event>
 8    1  0.9456677E-004  0.1093019E+03  0.7546771E-02  0.1262952E+00
         -2   -1    0    0    0  501 -0.00000000000E+00  0.00000000000E+00  0.36842298551E+03  0.36842298551E+03  0.00000000000E+00 0.  1.
          2   -1    0    0  501    0  0.00000000000E+00 -0.00000000000E+00 -0.33548104652E+02  0.33548104652E+02  0.00000000000E+00 0. -1.
         23    2    1    2    0    0  0.28839325739E+02  0.52732691887E+02  0.21565244424E+03  0.24177030328E+03  0.91293260099E+02 0.  0.
         23    2    1    2    0    0 -0.28839325739E+02 -0.52732691887E+02  0.11922243661E+03  0.16020078687E+03  0.88531684840E+02 0.  0.
          5    1    4    4  502    0  0.31820373470E+02 -0.17513630640E+02  0.37894604762E+02  0.52700611913E+02  0.47000000000E+01 0. -1.
         -5    1    3    3    0  503 -0.29766298707E+02  0.38340699202E+02  0.97496527843E+02  0.10901240615E+03  0.47000000000E+01 0.  1.
          5    1    3    3  503    0  0.58605624446E+02  0.14391992685E+02  0.11815591640E+03  0.13275789713E+03  0.47000000000E+01 0. -1.
         -5    1    4    4    0  502 -0.60659699209E+02 -0.35219061248E+02  0.81327831850E+02  0.10750017496E+03  0.47000000000E+01 0.  1.
<mgrwt>
<rscale>  0 0.10872336E+03</rscale>
<asrwt>0</asrwt>
<pdfrwt beam="1">  1        2 0.51612471E-02 0.10930189E+03</pdfrwt>
<pdfrwt beam="2">  1       -2 0.56680457E-01 0.10930189E+03</pdfrwt>
<totfact> 0.41927677E+03</totfact>
</mgrwt>
</event>
<event>
 8    1  0.9456677E-004  0.1004366E+03  0.7546771E-02  0.1280364E+00
          3   -1    0    0  501    0  0.00000000000E+00  0.00000000000E+00  0.28976934221E+03  0.28976934221E+03  0.00000000000E+00 0. -1.
         -3   -1    0    0    0  501 -0.00000000000E+00 -0.00000000000E+00 -0.35725297118E+02  0.35725297118E+02  0.00000000000E+00 0.  1.
         23    2    1    2    0    0 -0.40396504938E+02  0.65472464165E+01  0.91923378514E+02  0.13478379482E+03  0.89677309187E+02 0.  0.
         23    2    1    2    0    0  0.40396504938E+02 -0.65472464165E+01  0.16212066658E+03  0.19071084450E+03  0.91721162402E+02 0.  0.
          5    1    3    3  502    0 -0.50632405557E+02  0.38121065234E+02  0.70899740184E+02  0.95214070732E+02  0.47000000000E+01 0. -1.
         -5    1    4    4    0  503 -0.21363724652E+02  0.72579788469E+01  0.97324066140E+02  0.10001575295E+03  0.47000000000E+01 0. -1.
          5    1    4    4  503    0  0.61760229590E+02 -0.13805225263E+02  0.64796600437E+02  0.90695091553E+02  0.47000000000E+01 0.  1.
         -5    1    3    3    0  502  0.10235900618E+02 -0.31573818818E+02  0.21023638329E+02  0.39569724093E+02  0.47000000000E+01 0.  1.
<mgrwt>
<rscale>  0 0.99967605E+02</rscale>
<asrwt>0</asrwt>
<pdfrwt beam="1">  1        3 0.44579897E-01 0.10043663E+03</pdfrwt>
<pdfrwt beam="2">  1       -3 0.54961997E-02 0.10043663E+03</pdfrwt>
<totfact> 0.21329189E+03</totfact>
</mgrwt>
</event>
<event>
 8    1  0.9456677E-004  0.1638366E+03  0.7546771E-02  0.1184827E+00
          1   -1    0    0  501    0  0.00000000000E+00  0.00000000000E+00  0.17333687517E+03  0.17333687517E+03  0.00000000000E+00 0. -1.
         -1   -1    0    0    0  501 -0.00000000000E+00 -0.00000000000E+00 -0.62722057663E+03  0.62722057663E+03  0.00000000000E+00 0.  1.
         23    2    1    2    0    0  0.12736351320E+02  0.13528987663E+03  0.12067926933E+03  0.20348444843E+03  0.91525238836E+02 0.  0.
         23    2    1    2    0    0 -0.12736351320E+02 -0.13528987663E+03 -0.57456297078E+03  0.59707300337E+03  0.88926928418E+02 0.  0.
          5    1    3    3  502    0  0.48044531381E+02  0.45741211551E+02  0.60222266448E+02  0.89718152042E+02  0.47000000000E+01 0. -1.
         -5    1    4    4    0  503 -0.38657292122E+02 -0.85634130026E+02 -0.23923356199E+03  0.25706492885E+03  0.47000000000E+01 0.  1.
          5    1    4    4  503    0  0.25920940802E+02 -0.49655746603E+02 -0.33532940879E+03  0.34000807452E+03  0.47000000000E+01 0. -1.
         -5    1    3    3    0  502 -0.35308180061E+02  0.89548665079E+02  0.60457002878E+02  0.11376629639E+03  0.47000000000E+01 0.  1.
<mgrwt>
<rscale>  0 0.16347612E+03</rscale>
<asrwt>0</asrwt>
<pdfrwt beam="1">  1        1 0.26667212E-01 0.16383661E+03</pdfrwt>
<pdfrwt beam="2">  1       -1 0.96495473E-01 0.16383661E+03</pdfrwt>
<totfact> 0.19562916E+02</totfact>
</mgrwt>
</event>
<event>
 8    1  0.9456677E-004  0.1129922E+03  0.7546771E-02  0.1256185E+00
         -2   -1    0    0    0  501 -0.00000000000E+00  0.00000000000E+00  0.89062983961E+02  0.89062983961E+02  0.00000000000E+00 0.  1.
          2   -1    0    0  501    0  0.00000000000E+00 -0.00000000000E+00 -0.30899732924E+03  0.30899732924E+03  0.00000000000E+00 0. -1.
         23    2    1    2    0    0  0.49240057004E+02 -0.38649148191E+02  0.36525079465E+02  0.11874899136E+03  0.94068600767E+02 0.  0.
         23    2    1    2    0    0 -0.49240057004E+02  0.38649148191E+02 -0.25645942475E+03  0.27931132184E+03  0.91241646725E+02 0.  0.
          5    1    4    4  502    0 -0.26391299019E+01  0.22401640623E+02 -0.21034815777E+03  0.21160632312E+03  0.47000000000E+01 0. -1.
         -5    1    3    3    0  503  0.57106328756E+02  0.14380059351E+02  0.21617070506E+02  0.62907127006E+02  0.47000000000E+01 0.  1.
          5    1    3    3  503    0 -0.78662717522E+01 -0.53029207541E+02  0.14908008958E+02  0.55841864357E+02  0.47000000000E+01 0. -1.
         -5    1    4    4    0  502 -0.46600927102E+02  0.16247507568E+02 -0.46111266979E+02  0.67704998717E+02  0.47000000000E+01 0.  1.
<mgrwt>
<rscale>  0 0.11240201E+03</rscale>
<asrwt>0</asrwt>
<pdfrwt beam="1">  1        2 0.47538050E-01 0.11299222E+03</pdfrwt>
<pdfrwt beam="2">  1       -2 0.13701998E-01 0.11299222E+03</pdfrwt>
<totfact> 0.40160144E+03</totfact>
</mgrwt>
</event>
<event>
 8    1  0.9456677E-004  0.9471215E+02  0.7546771E-02  0.1292434E+00
          2   -1    0    0  501    0  0.00000000000E+00  0.00000000000E+00  0.35095457416E+03  0.35095457416E+03  0.00000000000E+00 0. -1.
         -2   -1    0    0    0  501 -0.00000000000E+00 -0.00000000000E+00 -0.32120851844E+02  0.32120851844E+02  0.00000000000E+00 0.  1.
         23    2    1    2    0    0  0.12919979134E+02 -0.49482377950E+01  0.24714584326E+03  0.26429182932E+03  0.92615831724E+02 0.  0.
         23    2    1    2    0    0 -0.12919979134E+02  0.49482377950E+01  0.71687879062E+02  0.11878359669E+03  0.93696210810E+02 0.  0.
          5    1    4    4  502    0  0.22870234157E+02 -0.31236545064E+02  0.49621706155E+02  0.63112384519E+02  0.47000000000E+01 0. -1.
         -5    1    3    3    0  503  0.28436288144E+02  0.36438662258E+02  0.94452516964E+02  0.10526047003E+03  0.47000000000E+01 0.  1.
          5    1    3    3  503    0 -0.15516309010E+02 -0.41386900053E+02  0.15269332629E+03  0.15903135928E+03  0.47000000000E+01 0. -1.
         -5    1    4    4    0  502 -0.35790213291E+02  0.36184782859E+02  0.22066172907E+02  0.55671212172E+02  0.47000000000E+01 0.  1.
<mgrwt>
<rscale>  0 0.94443845E+02</rscale>
<asrwt>0</asrwt>
<pdfrwt beam="1">  1        2 0.53993009E-01 0.94712147E+02</pdfrwt>
<pdfrwt beam="2">  1       -2 0.49416698E-02 0.94712147E+02</pdfrwt>
<totfact> 0.16681161E+04</totfact>
</mgrwt>
</event>
<event>
 8    1  0.9456677E-004  0.1822616E+03  0.7546771E-02  0.1167481E+00
          1   -1    0    0  501    0  0.00000000000E+00  0.00000000000E+00  0.81433601725E+03  0.81433601725E+03  0.00000000000E+00 0. -1.
         -1   -1    0    0    0  501 -0.00000000000E+00 -0.00000000000E+00 -0.43066472139E+02  0.43066472139E+02  0.00000000000E+00 0.  1.
         23    2    1    2    0    0  0.27373412110E+02 -0.14761368257E+03  0.26319695199E+03  0.32014360723E+03  0.10334500831E+03 0.  0.
         23    2    1    2    0    0 -0.27373412110E+02  0.14761368257E+03  0.50807259312E+03  0.53725888215E+03  0.89276220820E+02 0.  0.
          5    1    4    4  502    0 -0.42185457734E+02  0.47281743440E+02  0.11608849588E+03  0.13233973320E+03  0.47000000000E+01 0. -1.
         -5    1    3    3    0  503  0.63575981635E+02 -0.11911343396E+03  0.18193951902E+03  0.22661419676E+03  0.47000000000E+01 0.  1.
          5    1    3    3  503    0 -0.36202569525E+02 -0.28500248603E+02  0.81257432967E+02  0.93529410471E+02  0.47000000000E+01 0. -1.
         -5    1    4    4    0  502  0.14812045624E+02  0.10033193913E+03  0.39198409724E+03  0.40491914895E+03  0.47000000000E+01 0.  1.
<mgrwt>
<rscale>  0 0.18033313E+03</rscale>
<asrwt>0</asrwt>
<pdfrwt beam="1">  1        1 0.12528245E+00 0.18226161E+03</pdfrwt>
<pdfrwt beam="2">  1       -1 0.66256117E-02 0.18226161E+03</pdfrwt>
<totfact> 0.25524617E+03</totfact>
</mgrwt>
</event>
<event>
 8    1  0.9456677E-004  0.1037325E+03  0.7546771E-02  0.1274360E+00
          1   -1    0    0  501    0  0.00000000000E+00  0.00000000000E+00  0.36116910608E+03  0.36116910608E+03  0.00000000000E+00 0. -1.
         -1   -1    0    0    0  501 -0.00000000000E+00 -0.00000000000E+00 -0.43410547734E+02  0.43410547734E+02  0.00000000000E+00 0.  1.
         23    2    1    2    0    0 -0.41902606185E+02  0.71309306141E+01  0.43403052840E+02  0.11244666264E+03  0.94624248303E+02 0.  0.
         23    2    1    2    0    0  0.41902606185E+02 -0.71309306141E+01  0.27435550551E+03  0.29213299117E+03  0.90906889470E+02 0.  0.
          5    1    3    3  502    0 -0.19580453839E+02  0.48010002061E+02  0.39729721501E+02  0.65489657512E+02  0.47000000000E+01 0. -1.
         -5    1    4    4    0  503  0.71329328215E+01 -0.25766821439E+02  0.17667656877E+02  0.32388947455E+02  0.47000000000E+01 0.  1.
          5    1    4    4  503    0  0.34769673364E+02  0.18635890825E+02  0.25668784863E+03  0.25974404372E+03  0.47000000000E+01 0. -1.
         -5    1    3    3    0  502 -0.22322152346E+02 -0.40879071446E+02  0.36733313391E+01  0.46957005130E+02  0.47000000000E+01 0.  1.
<mgrwt>
<rscale>  0 0.10287711E+03</rscale>
<asrwt>0</asrwt>
<pdfrwt beam="1">  1        1 0.55564476E-01 0.10373248E+03</pdfrwt>
<pdfrwt beam="2">  1       -1 0.66785460E-02 0.10373248E+03</pdfrwt>
<totfact> 0.73399079E+03</totfact>
</mgrwt>
</event>
<event>
 8    1  0.9456677E-004  0.1009336E+03  0.7546771E-02  0.1281342E+00
          1   -1    0    0  501    0  0.00000000000E+00  0.00000000000E+00  0.55667694441E+02  0.55667694441E+02  0.00000000000E+00 0. -1.
         -1   -1    0    0    0  501 -0.00000000000E+00 -0.00000000000E+00 -0.56521794036E+03  0.56521794036E+03  0.00000000000E+00 0.  1.
         23    2    1    2    0    0 -0.25514858290E+01 -0.26844685730E+02 -0.51557275449E+03  0.52535974225E+03  0.97264825980E+02 0.  0.
         23    2    1    2    0    0  0.25514858290E+01  0.26844685730E+02  0.60225085630E+01  0.95525892559E+02  0.91442759735E+02 0.  0.
          5    1    4    4  502    0  0.46372179616E+02  0.99670757215E+01  0.78085837447E+01  0.48298919459E+02  0.47000000000E+01 0. -1.
         -5    1    3    3    0  503  0.43147959094E+02 -0.21814862075E+02 -0.35365801779E+03  0.35697859618E+03  0.47000000000E+01 0.  1.
          5    1    3    3  503    0 -0.45699444923E+02 -0.50298236548E+01 -0.16191473669E+03  0.16838114607E+03  0.47000000000E+01 0. -1.
         -5    1    4    4    0  502 -0.43820693787E+02  0.16877610008E+02 -0.17860751817E+01  0.47226973100E+02  0.47000000000E+01 0.  1.
<mgrwt>
<rscale>  0 0.99504088E+02</rscale>
<asrwt>0</asrwt>
<pdfrwt beam="1">  1        1 0.85642606E-02 0.10093361E+03</pdfrwt>
<pdfrwt beam="2">  1       -1 0.86956607E-01 0.10093361E+03</pdfrwt>
<totfact> 0.10562666E+03</totfact>
</mgrwt>
</event>
<event>
 8    1  0.9456677E-004  0.1269771E+03  0.7546771E-02  0.1233674E+00
          1   -1    0    0  501    0  0.00000000000E+00  0.00000000000E+00  0.11016225101E+04  0.11016225101E+04  0.00000000000E+00 0. -1.
         -1   -1    0    0    0  501 -0.00000000000E+00 -0.00000000000E+00 -0.16511639545E+02  0.16511639545E+02  0.00000000000E+00 0.  1.
         23    2    1    2    0    0  0.31602523791E+02 -0.82235783120E+02  0.32313025321E+03  0.34564619275E+03  0.85420644384E+02 0.  0.
         23    2    1    2    0    0 -0.31602523791E+02  0.82235783120E+02  0.76198061738E+03  0.77248795693E+03  0.91442543745E+02 0.  0.
          5    1    4    4  502    0 -0.48746639672E+02  0.61362189147E+02  0.70386118544E+03  0.70822610196E+03  0.47000000000E+01 0. -1.
         -5    1    3    3    0  503  0.36638548371E+02 -0.28582283516E+02  0.55192009588E+02  0.72301992228E+02  0.47000000000E+01 0.  1.
          5    1    3    3  503    0 -0.50360245804E+01 -0.53653499604E+02  0.26793824362E+03  0.27334420052E+03  0.47000000000E+01 0. -1.
         -5    1    4    4    0  502  0.17144115881E+02  0.20873593973E+02  0.58119431941E+02  0.64261854967E+02  0.47000000000E+01 0.  1.
<mgrwt>
<rscale>  0 0.12589701E+03</rscale>
<asrwt>0</asrwt>
<pdfrwt beam="1">  1        1 0.16948033E+00 0.12697709E+03</pdfrwt>
<pdfrwt beam="2">  1       -1 0.25402531E-02 0.12697709E+03</pdfrwt>
<totfact> 0.63029199E+03</totfact>
</mgrwt>
</event>
<event>
 8    1  0.9456677E-004  0.1028628E+03  0.7546771E-02  0.1276321E+00
         -1   -1    0    0    0  501 -0.00000000000E+00  0.00000000000E+00  0.85590933746E+02  0.85590933746E+02  0.00000000000E+00 0.  1.
          1   -1    0    0  501    0  0.00000000000E+00 -0.00000000000E+00 -0.44940376814E+03  0.44940376814E+03  0.00000000000E+00 0. -1.
         23    2    1    2    0    0 -0.34853505053E+02 -0.17885371470E+02  0.46495670528E+02  0.11288316090E+03  0.95111026231E+02 0.  0.
         23    2    1    2    0    0  0.34853505053E+02  0.17885371470E+02 -0.41030850492E+03  0.42211154098E+03  0.91051801148E+02 0.  0.
          5    1    3    3  502    0  0.14189642540E+02  0.30288680714E+02  0.18461931301E+02  0.38492636207E+02  0.47000000000E+01 0. -1.
         -5    1    3    3    0  502 -0.49043147593E+02 -0.48174052185E+02  0.28033739227E+02  0.74390524697E+02  0.47000000000E+01 0.  1.
          5    1    4    4  503    0  0.19327309442E+02  0.43546897706E+02 -0.36132620086E+03  0.36448400598E+03  0.47000000000E+01 0. -1.
         -5    1    4    4    0  503  0.15526195612E+02 -0.25661526235E+02 -0.48982304067E+02  0.57627535004E+02  0.47000000000E+01 0.  1.
<mgrwt>
<rscale>  0 0.10191447E+03</rscale>
<asrwt>0</asrwt>
<pdfrwt beam="1">  1        1 0.69139042E-01 0.10286282E+03</pdfrwt>
<pdfrwt beam="2">  1       -1 0.13167836E-01 0.10286282E+03</pdfrwt>
<totfact> 0.20012240E+03</totfact>
</mgrwt>
</event>
<event>
 8    1  0.9456677E-004  0.1114874E+03  0.7546771E-02  0.1258111E+00
          2   -1    0    0  501    0  0.00000000000E+00  0.00000000000E+00  0.11525763231E+04  0.11525763231E+04  0.00000000000E+00 0. -1.
         -2   -1    0    0    0  501 -0.00000000000E+00 -0.00000000000E+00 -0.19469189000E+02  0.19469189000E+02  0.00000000000E+00 0.  1.
         23    2    1    2    0    0  0.48611976753E+02 -0.41065304967E+02  0.96008694636E+03  0.96653835456E+03  0.91542136282E+02 0.  0.
         23    2    1    2    0    0 -0.48611976753E+02  0.41065304967E+02  0.17302018778E+03  0.20550715758E+03  0.90816974626E+02 0.  0.
          5    1    3    3  502    0  0.15313337118E+02 -0.66864725929E+02  0.63018690964E+03  0.63392666843E+03  0.47000000000E+01 0. -1.
         -5    1    4    4    0  503 -0.58863177659E+01  0.52660737611E+02  0.44044109554E+02  0.69063562093E+02  0.47000000000E+01 0.  1.
          5    1    4    4  503    0 -0.42725658987E+02 -0.11595432643E+02  0.12897607823E+03  0.13644359549E+03  0.47000000000E+01 0. -1.
         -5    1    3    3    0  502  0.33298639635E+02  0.25799420962E+02  0.32990003672E+03  0.33261168613E+03  0.47000000000E+01 0.  1.
<mgrwt>
<rscale>  0 0.11133846E+03</rscale>
<asrwt>0</asrwt>
<pdfrwt beam="1">  1        2 0.17731938E+00 0.11148743E+03</pdfrwt>
<pdfrwt beam="2">  1       -2 0.29952607E-02 0.11148743E+03</pdfrwt>
<totfact> 0.86779791E+03</totfact>
</mgrwt>
</event>
<event>
 8    1  0.9456677E-004  0.9787558E+02  0.7546771E-02  0.1285164E+00
          1   -1    0    0  501    0  0.00000000000E+00  0.00000000000E+00  0.26895792181E+02  0.26895792181E+02  0.00000000000E+00 0. -1.
         -1   -1    0    0    0  501 -0.00000000000E+00 -0.00000000000E+00 -0.41907536213E+03  0.41907536213E+03  0.00000000000E+00 0.  1.
         23    2    1    2    0    0 -0.35221702250E+02  0.24619297472E+01 -0.28348258526E+03  0.29970200886E+03  0.90621678207E+02 0.  0.
         23    2    1    2    0    0  0.35221702250E+02 -0.24619297472E+01 -0.10869698468E+03  0.14626914544E+03  0.91285261803E+02 0.  0.
          5    1    4    4  502    0  0.35248847576E+02  0.34666752962E+02 -0.27278290189E+02  0.56660922442E+02  0.47000000000E+01 0. -1.
         -5    1    4    4    0  502 -0.27145325744E-01 -0.37128682709E+02 -0.81418694491E+02  0.89608223000E+02  0.47000000000E+01 0.  1.
          5    1    3    3  503    0 -0.25443662729E+01 -0.37648487010E+02 -0.17927343249E+03  0.18326193268E+03  0.47000000000E+01 0. -1.
         -5    1    3    3    0  503 -0.32677335977E+02  0.40110416757E+02 -0.10420915277E+03  0.11644007618E+03  0.47000000000E+01 0.  1.
<mgrwt>
<rscale>  0 0.97720556E+02</rscale>
<asrwt>0</asrwt>
<pdfrwt beam="1">  1        1 0.41378143E-02 0.97875576E+02</pdfrwt>
<pdfrwt beam="2">  1       -1 0.64473131E-01 0.97875576E+02</pdfrwt>
<totfact> 0.50946085E+03</totfact>
</mgrwt>
</event>
<event>
 8    1  0.9456677E-004  0.1089661E+03  0.7546771E-02  0.1262742E+00
         -1   -1    0    0    0  501 -0.00000000000E+00  0.00000000000E+00  0.83353559305E+03  0.83353559305E+03  0.00000000000E+00 0.  1.
          1   -1    0    0  501    0  0.00000000000E+00 -0.00000000000E+00 -0.14430389547E+02  0.14430389547E+02  0.00000000000E+00 0. -1.
         23    2    1    2    0    0 -0.16639867564E+02  0.53293832640E+02  0.46481549316E+03  0.47729792863E+03  0.92966403660E+02 0.  0.
         23    2    1    2    0    0  0.16639867564E+02 -0.53293832640E+02  0.35428971034E+03  0.37066805396E+03  0.93576116509E+02 0.  0.
          5    1    4    4  502    0 -0.31787280469E+02 -0.45621793741E+02  0.13830348385E+03  0.14913659145E+03  0.47000000000E+01 0. -1.
         -5    1    4    4    0  502  0.48427148033E+02 -0.76720388993E+01  0.21598622649E+03  0.22153146251E+03  0.47000000000E+01 0.  1.
          5    1    3    3  503    0 -0.41552415185E+02 -0.55939778680E+01  0.14014900845E+03  0.14636164240E+03  0.47000000000E+01 0. -1.
         -5    1    3    3    0  503  0.24912547620E+02  0.58887810508E+02  0.32466648470E+03  0.33093628623E+03  0.47000000000E+01 0.  1.
<mgrwt>
<rscale>  0 0.10883506E+03</rscale>
<asrwt>0</asrwt>
<pdfrwt beam="1">  1        1 0.22200606E-02 0.10896608E+03</pdfrwt>
<pdfrwt beam="2">  1       -1 0.12823621E+00 0.10896608E+03</pdfrwt>
<totfact> 0.27932130E+03</totfact>
</mgrwt>
</event>
<event>
 8    1  0.9456677E-004  0.1846114E+03  0.7546771E-02  0.1164320E+00
         -1   -1    0    0    0  501 -0.00000000000E+00  0.00000000000E+00  0.18638922116E+03  0.18638922116E+03  0.00000000000E+00 0.  1.
          1   -1    0    0  501    0  0.00000000000E+00 -0.00000000000E+00 -0.20558596871E+03  0.20558596871E+03  0.00000000000E+00 0. -1.
         23    2    1    2    0    0  0.13448296194E+03  0.86774594586E+02  0.60687805487E+02  0.19433058167E+03  0.92010151172E+02 0.  0.
         23    2    1    2    0    0 -0.13448296194E+03 -0.86774594586E+02 -0.79884553045E+02  0.19764460820E+03  0.84061596584E+02 0.  0.
          5    1    4    4  502    0 -0.16394703985E+02  0.16013133808E+02 -0.45141975440E+01  0.23825926059E+02  0.47000000000E+01 0.  1.
         -5    1    3    3    0  503  0.79235424846E+02  0.71681462467E+02 -0.49833164387E+01  0.10706730619E+03  0.47000000000E+01 0.  1.
          5    1    3    3  503    0  0.55247537091E+02  0.15093132119E+02  0.65671121926E+02  0.87263275476E+02  0.47000000000E+01 0. -1.
         -5    1    4    4    0  502 -0.11808825795E+03 -0.10278772839E+03 -0.75370355501E+02  0.17381868215E+03  0.47000000000E+01 0. -1.
<mgrwt>
<rscale>  0 0.18364631E+03</rscale>
<asrwt>0</asrwt>
<pdfrwt beam="1">  1        1 0.31628611E-01 0.18461139E+03</pdfrwt>
<pdfrwt beam="2">  1       -1 0.28675265E-01 0.18461139E+03</pdfrwt>
<totfact> 0.15478099E+03</totfact>
</mgrwt>
</event>
<event>
 8    1  0.9456677E-004  0.1089859E+03  0.7546771E-02  0.1262688E+00
         -1   -1    0    0    0  501 -0.00000000000E+00  0.00000000000E+00  0.79895282768E+02  0.79895282768E+02  0.00000000000E+00 0.  1.
          1   -1    0    0  501    0  0.00000000000E+00 -0.00000000000E+00 -0.15653008715E+03  0.15653008715E+03  0.00000000000E+00 0. -1.
         23    2    1    2    0    0  0.46946522668E+02 -0.34889135711E+02 -0.65823711034E+02  0.12690460434E+03  0.91382656387E+02 0.  0.
         23    2    1    2    0    0 -0.46946522668E+02  0.34889135711E+02 -0.10811093347E+02  0.10952076557E+03  0.91960266262E+02 0.  0.
          5    1    4    4  502    0 -0.84013866168E+01  0.39153110717E+02 -0.42968690134E+02  0.58923235720E+02  0.47000000000E+01 0. -1.
         -5    1    4    4    0  502 -0.38545136051E+02 -0.42639750059E+01  0.32157596787E+02  0.50597529853E+02  0.47000000000E+01 0.  1.
          5    1    3    3  503    0  0.13306595345E+02 -0.52702506060E+02 -0.47227854219E+01  0.54763257087E+02  0.47000000000E+01 0. -1.
         -5    1    3    3    0  503  0.33639927323E+02  0.17813370349E+02 -0.61100925612E+02  0.72141347258E+02  0.47000000000E+01 0.  1.
<mgrwt>
<rscale>  0 0.10886393E+03</rscale>
<asrwt>0</asrwt>
<pdfrwt beam="1">  1        1 0.24081552E-01 0.10898586E+03</pdfrwt>
<pdfrwt beam="2">  1       -1 0.12291582E-01 0.10898586E+03</pdfrwt>
<totfact> 0.82255855E+03</totfact>
</mgrwt>
</event>
<event>
 8    1  0.9456677E-004  0.1746971E+03  0.7546771E-02  0.1173233E+00
          1   -1    0    0  501    0  0.00000000000E+00  0.00000000000E+00  0.48533508207E+03  0.48533508207E+03  0.00000000000E+00 0. -1.
         -1   -1    0    0    0  501 -0.00000000000E+00 -0.00000000000E+00 -0.73664124990E+02  0.73664124990E+02  0.00000000000E+00 0.  1.
         23    2    1    2    0    0  0.90910687831E+02  0.11819913082E+03  0.97917116494E+02  0.20026691339E+03  0.91012566202E+02 0.  0.
         23    2    1    2    0    0 -0.90910687831E+02 -0.11819913082E+03  0.31375384059E+03  0.35873229367E+03  0.89507532369E+02 0.  0.
          5    1    4    4  502    0 -0.74409232540E+02 -0.25804329029E+02  0.16293314907E+03  0.18103010344E+03  0.47000000000E+01 0. -1.
         -5    1    4    4    0  502 -0.16501455291E+02 -0.92394801794E+02  0.15082069152E+03  0.17770219024E+03  0.47000000000E+01 0.  1.
          5    1    3    3  503    0  0.86375674806E+01  0.79422417849E+02  0.25761530575E+02  0.84073030673E+02  0.47000000000E+01 0. -1.
         -5    1    3    3    0  503  0.82273120351E+02  0.38776712974E+02  0.72155585919E+02  0.11619388272E+03  0.47000000000E+01 0.  1.
<mgrwt>
<rscale>  0 0.17450193E+03</rscale>
<asrwt>0</asrwt>
<pdfrwt beam="1">  1        1 0.74666934E-01 0.17469709E+03</pdfrwt>
<pdfrwt beam="2">  1       -1 0.11332943E-01 0.17469709E+03</pdfrwt>
<totfact> 0.23236269E+03</totfact>
</mgrwt>
</event>
<event>
 8    1  0.9456677E-004  0.1102783E+03  0.7546771E-02  0.1260846E+00
         -2   -1    0    0    0  501 -0.00000000000E+00  0.00000000000E+00  0.88076546103E+03  0.88076546103E+03  0.00000000000E+00 0.  1.
          2   -1    0    0  501    0  0.00000000000E+00 -0.00000000000E+00 -0.76126520994E+02  0.76126520994E+02  0.00000000000E+00 0. -1.
         23    2    1    2    0    0 -0.57181218551E+02 -0.56582842391E+01  0.83538192521E+03  0.84240860432E+03  0.92128104968E+02 0.  0.
         23    2    1    2    0    0  0.57181218551E+02  0.56582842391E+01 -0.30742985181E+02  0.11448337770E+03  0.94125473153E+02 0.  0.
          5    1    4    4  502    0  0.71374803067E+02 -0.22664894965E+02 -0.33829088107E+02  0.82307698175E+02  0.47000000000E+01 0. -1.
         -5    1    3    3    0  503 -0.33917212739E+02  0.41915060237E+02  0.48606713138E+03  0.48907115617E+03  0.47000000000E+01 0.  1.
          5    1    3    3  503    0 -0.23264005812E+02 -0.47573344476E+02  0.34931479383E+03  0.35333744815E+03  0.47000000000E+01 0. -1.
         -5    1    4    4    0  502 -0.14193584516E+02  0.28323179205E+02  0.30861029257E+01  0.32175679525E+02  0.47000000000E+01 0.  1.
<mgrwt>
<rscale>  0 0.10985091E+03</rscale>
<asrwt>0</asrwt>
<pdfrwt beam="1">  1        2 0.11711773E-01 0.11027834E+03</pdfrwt>
<pdfrwt beam="2">  1       -2 0.13550237E+00 0.11027834E+03</pdfrwt>
<totfact> 0.21575853E+02</totfact>
</mgrwt>
</event>
<event>
 8    1  0.9456677E-004  0.2036190E+03  0.7546771E-02  0.1146881E+00
          1   -1    0    0  501    0  0.00000000000E+00  0.00000000000E+00  0.83732096334E+02  0.83732096334E+02  0.00000000000E+00 0. -1.
         -1   -1    0    0    0  501 -0.00000000000E+00 -0.00000000000E+00 -0.49895435809E+03  0.49895435809E+03  0.00000000000E+00 0.  1.
         23    2    1    2    0    0 -0.13794521130E+03 -0.11910972647E+03 -0.17693486236E+03  0.26975294858E+03  0.90800327599E+02 0.  0.
         23    2    1    2    0    0  0.13794521130E+03  0.11910972647E+03 -0.23828739939E+03  0.31293350584E+03  0.89053276797E+02 0.  0.
          5    1    4    4  502    0  0.57678367680E+02  0.24739176913E+02 -0.28139645575E+02  0.68940196008E+02  0.47000000000E+01 0. -1.
         -5    1    3    3    0  503 -0.31776373457E+02 -0.38176953105E+02 -0.10902825849E+03  0.11990191328E+03  0.47000000000E+01 0.  1.
          5    1    3    3  503    0 -0.10616883784E+03 -0.80932773361E+02 -0.67906603866E+02  0.14985103530E+03  0.47000000000E+01 0. -1.
         -5    1    4    4    0  502  0.80266843617E+02  0.94370549554E+02 -0.21014775382E+03  0.24399330983E+03  0.47000000000E+01 0.  1.
<mgrwt>
<rscale>  0 0.20342549E+03</rscale>
<asrwt>0</asrwt>
<pdfrwt beam="1">  1        1 0.12881861E-01 0.20361903E+03</pdfrwt>
<pdfrwt beam="2">  1       -1 0.76762210E-01 0.20361903E+03</pdfrwt>
<totfact> 0.80848812E+02</totfact>
</mgrwt>
</event>
<event>
 8    1  0.9456677E-004  0.1151412E+03  0.7546771E-02  0.1252362E+00
          4   -1    0    0  501    0  0.00000000000E+00  0.00000000000E+00  0.25036550754E+03  0.25036550754E+03  0.00000000000E+00 0. -1.
         -4   -1    0    0    0  501 -0.00000000000E+00 -0.00000000000E+00 -0.77442267341E+02  0.77442267341E+02  0.00000000000E+00 0.  1.
         23    2    1    2    0    0  0.31736849543E+02 -0.55565950986E+02 -0.70993537095E+01  0.11535987285E+03  0.95721977164E+02 0.  0.
         23    2    1    2    0    0 -0.31736849543E+02  0.55565950986E+02  0.18002259390E+03  0.21244790203E+03  0.92904113115E+02 0.  0.
          5    1    4    4  502    0  0.15191882176E+02  0.60795316779E+02  0.12411750918E+03  0.13911904942E+03  0.47000000000E+01 0. -1.
         -5    1    3    3    0  503  0.61421463320E+02 -0.52094989277E+02 -0.18943416212E+02  0.82869940762E+02  0.47000000000E+01 0.  1.
          5    1    3    3  503    0 -0.29684613777E+02 -0.34709617086E+01  0.11844062503E+02  0.32489932084E+02  0.47000000000E+01 0. -1.
         -5    1    4    4    0  502 -0.46928731719E+02 -0.52293657933E+01  0.55905084725E+02  0.73328852612E+02  0.47000000000E+01 0.  1.
<mgrwt>
<rscale>  0 0.11455380E+03</rscale>
<asrwt>0</asrwt>
<pdfrwt beam="1">  1        4 0.38517770E-01 0.11514122E+03</pdfrwt>
<pdfrwt beam="2">  1       -4 0.11914195E-01 0.11514122E+03</pdfrwt>
<totfact> 0.59052533E+02</totfact>
</mgrwt>
</event>
<event>
 8    1  0.9456677E-004  0.9658672E+02  0.7546771E-02  0.1289889E+00
          2   -1    0    0  501    0  0.00000000000E+00  0.00000000000E+00  0.15917972140E+03  0.15917972140E+03  0.00000000000E+00 0. -1.
         -2   -1    0    0    0  501 -0.00000000000E+00 -0.00000000000E+00 -0.57007128466E+02  0.57007128466E+02  0.00000000000E+00 0.  1.
         23    2    1    2    0    0 -0.69368249465E+01  0.20918922607E+02  0.62792535551E+02  0.11188064749E+03  0.89936955127E+02 0.  0.
         23    2    1    2    0    0  0.69368249465E+01 -0.20918922607E+02  0.39380057381E+02  0.10430620238E+03  0.94038683911E+02 0.  0.
          5    1    3    3  502    0  0.32879656240E+02  0.73378809459E+01  0.60599484430E+02  0.69493192504E+02  0.47000000000E+01 0. -1.
         -5    1    4    4    0  503 -0.85162149516E+01 -0.50599914631E+02 -0.11478732044E+01  0.51539158808E+02  0.47000000000E+01 0.  1.
          5    1    4    4  503    0  0.15453039898E+02  0.29680992023E+02  0.40527930585E+02  0.52767043570E+02  0.47000000000E+01 0. -1.
         -5    1    3    3    0  502 -0.39816481186E+02  0.13581041662E+02  0.21930511213E+01  0.42387454982E+02  0.47000000000E+01 0.  1.
<mgrwt>
<rscale>  0 0.95573698E+02</rscale>
<asrwt>0</asrwt>
<pdfrwt beam="1">  1        2 0.24489188E-01 0.96586722E+02</pdfrwt>
<pdfrwt beam="2">  1       -2 0.87703275E-02 0.96586722E+02</pdfrwt>
<totfact> 0.16244714E+04</totfact>
</mgrwt>
</event>
<event>
 8    1  0.9456677E-004  0.1137351E+03  0.7546771E-02  0.1253814E+00
          2   -1    0    0  501    0  0.00000000000E+00  0.00000000000E+00  0.78029875778E+03  0.78029875778E+03  0.00000000000E+00 0. -1.
         -2   -1    0    0    0  501 -0.00000000000E+00 -0.00000000000E+00 -0.16928986627E+02  0.16928986627E+02  0.00000000000E+00 0.  1.
         23    2    1    2    0    0 -0.67849017551E+02 -0.10882076714E+02  0.32401573851E+03  0.34339116314E+03  0.90605647414E+02 0.  0.
         23    2    1    2    0    0  0.67849017551E+02  0.10882076714E+02  0.43935403264E+03  0.45383658127E+03  0.90629839019E+02 0.  0.
          5    1    3    3  502    0 -0.65230403360E+02 -0.41937546507E+02  0.26891772566E+03  0.27991533810E+03  0.47000000000E+01 0. -1.
         -5    1    3    3    0  502 -0.26186141914E+01  0.31055469793E+02  0.55098012854E+02  0.63475825042E+02  0.47000000000E+01 0.  1.
          5    1    4    4  503    0  0.17906960264E+02 -0.35828295692E+02  0.23110525192E+03  0.23459764164E+03  0.47000000000E+01 0. -1.
         -5    1    4    4    0  503  0.49942057287E+02  0.46710372405E+02  0.20824878072E+03  0.21923893963E+03  0.47000000000E+01 0.  1.
<mgrwt>
<rscale>  0 0.11373030E+03</rscale>
<asrwt>0</asrwt>
<pdfrwt beam="1">  1        2 0.12004593E+00 0.11373512E+03</pdfrwt>
<pdfrwt beam="2">  1       -2 0.26044601E-02 0.11373512E+03</pdfrwt>
<totfact> 0.17938286E+04</totfact>
</mgrwt>
</event>
<event>
 8    1  0.9456677E-004  0.1149808E+03  0.7546771E-02  0.1252227E+00
         -1   -1    0    0    0  501 -0.00000000000E+00  0.00000000000E+00  0.50030241311E+03  0.50030241311E+03  0.00000000000E+00 0.  1.
          1   -1    0    0  501    0  0.00000000000E+00 -0.00000000000E+00 -0.26194513613E+02  0.26194513613E+02  0.00000000000E+00 0. -1.
         23    2    1    2    0    0 -0.68760832339E+02  0.10293115894E+02  0.22316970133E+03  0.25104841652E+03  0.91578335573E+02 0.  0.
         23    2    1    2    0    0  0.68760832339E+02 -0.10293115894E+02  0.25093819817E+03  0.27544851020E+03  0.89821501740E+02 0.  0.
          5    1    3    3  502    0 -0.81962616030E+02  0.29361208962E+02  0.19880297585E+03  0.21708216008E+03  0.47000000000E+01 0. -1.
         -5    1    3    3    0  502  0.13201783691E+02 -0.19068093068E+02  0.24366725477E+02  0.33966256437E+02  0.47000000000E+01 0.  1.
          5    1    4    4  503    0  0.20891838247E+02  0.16546694290E+02  0.10904876490E+02  0.29176503021E+02  0.47000000000E+01 0. -1.
         -5    1    4    4    0  503  0.47868994092E+02 -0.26839810184E+02  0.24003332168E+03  0.24627200718E+03  0.47000000000E+01 0.  1.
<mgrwt>
<rscale>  0 0.11463066E+03</rscale>
<asrwt>0</asrwt>
<pdfrwt beam="1">  1        1 0.40299255E-02 0.11498083E+03</pdfrwt>
<pdfrwt beam="2">  1       -1 0.76969595E-01 0.11498083E+03</pdfrwt>
<totfact> 0.37738929E+03</totfact>
</mgrwt>
</event>
<event>
 8    1  0.9456677E-004  0.1198012E+03  0.7546771E-02  0.1247603E+00
          2   -1    0    0  501    0  0.00000000000E+00  0.00000000000E+00  0.84983732920E+03  0.84983732920E+03  0.00000000000E+00 0. -1.
         -2   -1    0    0    0  501 -0.00000000000E+00 -0.00000000000E+00 -0.15558147295E+02  0.15558147295E+02  0.00000000000E+00 0.  1.
         23    2    1    2    0    0 -0.76829847290E+02  0.14374815469E+02  0.40687830298E+03  0.42152181287E+03  0.77596549803E+02 0.  0.
         23    2    1    2    0    0  0.76829847290E+02 -0.14374815469E+02  0.42740087893E+03  0.44387366363E+03  0.90790182253E+02 0.  0.
          5    1    3    3  502    0 -0.56531178637E+02 -0.19875718146E+02  0.15102746798E+03  0.16254908309E+03  0.47000000000E+01 0. -1.
         -5    1    3    3    0  502 -0.20298668654E+02  0.34250533615E+02  0.25585083500E+03  0.25897272978E+03  0.47000000000E+01 0.  1.
          5    1    4    4  503    0  0.42664538940E+02 -0.11102517300E+02  0.39143431714E+03  0.39393710590E+03  0.47000000000E+01 0. -1.
         -5    1    4    4    0  503  0.34165308350E+02 -0.32722981689E+01  0.35966561796E+02  0.49936557725E+02  0.47000000000E+01 0.  1.
<mgrwt>
<rscale>  0 0.11730903E+03</rscale>
<asrwt>0</asrwt>
<pdfrwt beam="1">  1        2 0.13074417E+00 0.11980116E+03</pdfrwt>
<pdfrwt beam="2">  1       -2 0.23935618E-02 0.11980116E+03</pdfrwt>
<totfact> 0.18314741E+04</totfact>
</mgrwt>
</event>
<event>
 8    1  0.9456677E-004  0.9582586E+02  0.7546771E-02  0.1291254E+00
          2   -1    0    0  501    0  0.00000000000E+00  0.00000000000E+00  0.33080664142E+03  0.33080664142E+03  0.00000000000E+00 0. -1.
         -2   -1    0    0    0  501 -0.00000000000E+00 -0.00000000000E+00 -0.28574197867E+02  0.28574197867E+02  0.00000000000E+00 0.  1.
         23    2    1    2    0    0  0.28899235642E+02 -0.34510398973E+01  0.19354112955E+03  0.21447950094E+03  0.87728057076E+02 0.  0.
         23    2    1    2    0    0 -0.28899235642E+02  0.34510398973E+01  0.10869131400E+03  0.14490133835E+03  0.91299072384E+02 0.  0.
          5    1    3    3  502    0 -0.20659195219E+02  0.12414731738E+02  0.12960214013E+03  0.13190804614E+03  0.47000000000E+01 0. -1.
         -5    1    3    3    0  502  0.49558430860E+02 -0.15865771635E+02  0.63938989422E+02  0.82571454796E+02  0.47000000000E+01 0.  1.
          5    1    4    4  503    0 -0.58983833385E+02 -0.62987172955E+01  0.48584182959E+02  0.76819784392E+02  0.47000000000E+01 0. -1.
         -5    1    4    4    0  503  0.30084597743E+02  0.97497571928E+01  0.60107131041E+02  0.68081553953E+02  0.47000000000E+01 0.  1.
<mgrwt>
<rscale>  0 0.94965352E+02</rscale>
<asrwt>0</asrwt>
<pdfrwt beam="1">  1        2 0.50893327E-01 0.95825863E+02</pdfrwt>
<pdfrwt beam="2">  1       -2 0.43960307E-02 0.95825863E+02</pdfrwt>
<totfact> 0.21133744E+04</totfact>
</mgrwt>
</event>
<event>
 8    1  0.9456677E-004  0.9981635E+02  0.7546771E-02  0.1280831E+00
         -4   -1    0    0    0  501 -0.00000000000E+00  0.00000000000E+00  0.83827614240E+02  0.83827614240E+02  0.00000000000E+00 0.  1.
          4   -1    0    0  501    0  0.00000000000E+00 -0.00000000000E+00 -0.12407071205E+03  0.12407071205E+03  0.00000000000E+00 0. -1.
         23    2    1    2    0    0  0.11018276573E+02  0.38523039271E+02 -0.42079388604E+02  0.10806508983E+03  0.91115101494E+02 0.  0.
         23    2    1    2    0    0 -0.11018276573E+02 -0.38523039271E+02  0.18362907892E+01  0.99833236469E+02  0.91421420721E+02 0.  0.
          5    1    4    4  502    0 -0.98766972538E+00 -0.65263298346E+02 -0.13883174654E+02  0.66896234132E+02  0.47000000000E+01 0. -1.
         -5    1    3    3    0  503  0.72260044034E+01  0.62503235471E+02 -0.47309928491E+01  0.63271967547E+02  0.47000000000E+01 0.  1.
          5    1    3    3  503    0  0.37922721700E+01 -0.23980196199E+02 -0.37348395755E+02  0.44793122278E+02  0.47000000000E+01 0. -1.
         -5    1    4    4    0  502 -0.10030606848E+02  0.26740259075E+02  0.15719465444E+02  0.32937002337E+02  0.47000000000E+01 0.  1.
<mgrwt>
<rscale>  0 0.99746153E+02</rscale>
<asrwt>0</asrwt>
<pdfrwt beam="1">  1        4 0.19087802E-01 0.99816347E+02</pdfrwt>
<pdfrwt beam="2">  1       -4 0.12896556E-01 0.99816347E+02</pdfrwt>
<totfact> 0.18397282E+03</totfact>
</mgrwt>
</event>
<event>
 8    1  0.9456677E-004  0.1001510E+03  0.7546771E-02  0.1280066E+00
          1   -1    0    0  501    0  0.00000000000E+00  0.00000000000E+00  0.30817897460E+03  0.30817897460E+03  0.00000000000E+00 0. -1.
         -1   -1    0    0    0  501 -0.00000000000E+00 -0.00000000000E+00 -0.52707491339E+02  0.52707491339E+02  0.00000000000E+00 0.  1.
         23    2    1    2    0    0  0.33385288974E+02  0.22568243362E+02  0.16053863475E+02  0.10142954658E+03  0.91686003618E+02 0.  0.
         23    2    1    2    0    0 -0.33385288974E+02 -0.22568243362E+02  0.23941761979E+03  0.25945691936E+03  0.91505154004E+02 0.  0.
          5    1    4    4  502    0  0.40757317254E+01 -0.21698173799E+02  0.21097597390E+03  0.21218005066E+03  0.47000000000E+01 0. -1.
         -5    1    3    3    0  503 -0.11945902725E+01  0.51118399417E+02 -0.51473207592E+01  0.51605258607E+02  0.47000000000E+01 0.  1.
          5    1    3    3  503    0  0.34579879247E+02 -0.28550156055E+02  0.21201184235E+02  0.49824287977E+02  0.47000000000E+01 0. -1.
         -5    1    4    4    0  502 -0.37461020700E+02 -0.87006956239E+00  0.28441645885E+02  0.47276868695E+02  0.47000000000E+01 0.  1.
<mgrwt>
<rscale>  0 0.10010961E+03</rscale>
<asrwt>0</asrwt>
<pdfrwt beam="1">  1        1 0.47412149E-01 0.10015102E+03</pdfrwt>
<pdfrwt beam="2">  1       -1 0.81088450E-02 0.10015102E+03</pdfrwt>
<totfact> 0.66646914E+03</totfact>
</mgrwt>
</event>
<event>
 8    1  0.9456677E-004  0.9416791E+02  0.7546771E-02  0.1294637E+00
         -2   -1    0    0    0  501 -0.00000000000E+00  0.00000000000E+00  0.27616107265E+02  0.27616107265E+02  0.00000000000E+00 0.  1.
          2   -1    0    0  501    0  0.00000000000E+00 -0.00000000000E+00 -0.51566569545E+03  0.51566569545E+03  0.00000000000E+00 0. -1.
         23    2    1    2    0    0  0.91687711724E+00 -0.14000098671E+02 -0.71107996016E+02  0.11583837186E+03  0.90362259105E+02 0.  0.
         23    2    1    2    0    0 -0.91687711724E+00  0.14000098671E+02 -0.41694159217E+03  0.42744343085E+03  0.93116872139E+02 0.  0.
          5    1    4    4  502    0 -0.46169677538E+02  0.12283346120E+01 -0.18490217311E+03  0.19064115912E+03  0.47000000000E+01 0. -1.
         -5    1    3    3    0  503 -0.30952170641E+02 -0.35736797921E+02 -0.57668158678E+02  0.74718552705E+02  0.47000000000E+01 0.  1.
          5    1    3    3  503    0  0.31869047758E+02  0.21736699251E+02 -0.13439837338E+02  0.41119819151E+02  0.47000000000E+01 0. -1.
         -5    1    4    4    0  502  0.45252800420E+02  0.12771764059E+02 -0.23203941905E+03  0.23680227173E+03  0.47000000000E+01 0.  1.
<mgrwt>
<rscale>  0 0.93479665E+02</rscale>
<asrwt>0</asrwt>
<pdfrwt beam="1">  1        2 0.79333186E-01 0.94167910E+02</pdfrwt>
<pdfrwt beam="2">  1       -2 0.42486318E-02 0.94167910E+02</pdfrwt>
<totfact> 0.13853316E+04</totfact>
</mgrwt>
</event>
<event>
 8    1  0.9456677E-004  0.1012553E+03  0.7546771E-02  0.1277787E+00
         -4   -1    0    0    0  501 -0.00000000000E+00  0.00000000000E+00  0.20306775886E+03  0.20306775886E+03  0.00000000000E+00 0.  1.
          4   -1    0    0  501    0  0.00000000000E+00 -0.00000000000E+00 -0.55796550253E+02  0.55796550253E+02  0.00000000000E+00 0. -1.
         23    2    1    2    0    0 -0.99521172991E+01  0.45048322191E+02  0.33391263199E+02  0.10661900559E+03  0.90134565650E+02 0.  0.
         23    2    1    2    0    0  0.99521172991E+01 -0.45048322191E+02  0.11387994541E+03  0.15224530352E+03  0.89897689106E+02 0.  0.
          5    1    4    4  502    0  0.56996753571E+00  0.24475595250E+02  0.10116889148E+02  0.26903922983E+02  0.47000000000E+01 0. -1.
         -5    1    3    3    0  503  0.33034827188E+02  0.41923720940E+01  0.33014742363E+02  0.47126839533E+02  0.47000000000E+01 0.  1.
          5    1    3    3  503    0 -0.42986944487E+02  0.40855950097E+02  0.37652083549E+00  0.59492166060E+02  0.47000000000E+01 0. -1.
         -5    1    4    4    0  502  0.93821497634E+01 -0.69523917440E+02  0.10376305626E+03  0.12534138054E+03  0.47000000000E+01 0.  1.
<mgrwt>
<rscale>  0 0.10120256E+03</rscale>
<asrwt>0</asrwt>
<pdfrwt beam="1">  1        4 0.85840848E-02 0.10125530E+03</pdfrwt>
<pdfrwt beam="2">  1       -4 0.31241193E-01 0.10125530E+03</pdfrwt>
<totfact> 0.14854509E+03</totfact>
</mgrwt>
</event>
<event>
 8    1  0.9456677E-004  0.1889662E+03  0.7546771E-02  0.1159819E+00
          2   -1    0    0  501    0  0.00000000000E+00  0.00000000000E+00  0.79068309546E+03  0.79068309546E+03  0.00000000000E+00 0. -1.
         -2   -1    0    0    0  501 -0.00000000000E+00 -0.00000000000E+00 -0.63504933280E+02  0.63504933280E+02  0.00000000000E+00 0.  1.
         23    2    1    2    0    0  0.99944704144E+02 -0.12688799399E+03  0.13256487605E+03  0.23082820140E+03  0.98074998311E+02 0.  0.
         23    2    1    2    0    0 -0.99944704144E+02  0.12688799399E+03  0.59461328613E+03  0.62335982734E+03  0.94461671572E+02 0.  0.
          5    1    4    4  502    0 -0.11802720821E+03  0.11269038770E+03  0.53243667325E+03  0.55690254658E+03  0.47000000000E+01 0. -1.
         -5    1    4    4    0  502  0.18082504071E+02  0.14197606289E+02  0.62176612871E+02  0.66457280759E+02  0.47000000000E+01 0. -1.
          5    1    3    3  503    0  0.78827759435E+02 -0.79885537501E+02  0.13897081489E+03  0.17869105224E+03  0.47000000000E+01 0. -1.
         -5    1    3    3    0  503  0.21116944709E+02 -0.47002456489E+02 -0.64059388422E+01  0.52137149157E+02  0.47000000000E+01 0.  1.
<mgrwt>
<rscale>  0 0.18850200E+03</rscale>
<asrwt>0</asrwt>
<pdfrwt beam="1">  1        2 0.12164355E+00 0.18896617E+03</pdfrwt>
<pdfrwt beam="2">  1       -2 0.97699903E-02 0.18896617E+03</pdfrwt>
<totfact> 0.24602580E+03</totfact>
</mgrwt>
</event>
<event>
 8    1  0.9456677E-004  0.1121967E+03  0.7546771E-02  0.1257122E+00
         -2   -1    0    0    0  501 -0.00000000000E+00  0.00000000000E+00  0.26577206179E+02  0.26577206179E+02  0.00000000000E+00 0. -1.
          2   -1    0    0  501    0  0.00000000000E+00 -0.00000000000E+00 -0.56053963209E+03  0.56053963209E+03  0.00000000000E+00 0.  1.
         23    2    1    2    0    0 -0.38672535995E+02  0.50455412602E+02 -0.38476090072E+03  0.40043744510E+03  0.90927900095E+02 0.  0.
         23    2    1    2    0    0  0.38672535995E+02 -0.50455412602E+02 -0.14920152519E+03  0.18667939316E+03  0.92448834564E+02 0.  0.
          5    1    3    3  502    0 -0.75341592574E+01  0.61183455797E+02 -0.13515397568E+03  0.14862323493E+03  0.47000000000E+01 0. -1.
         -5    1    3    3    0  502 -0.31138376738E+02 -0.10728043195E+02 -0.24960692504E+03  0.25181421017E+03  0.47000000000E+01 0.  1.
          5    1    4    4  503    0  0.65118047071E+02 -0.32773997844E+02 -0.69903950731E+02  0.10110958074E+03  0.47000000000E+01 0. -1.
         -5    1    4    4    0  503 -0.26445511076E+02 -0.17681414758E+02 -0.79297574455E+02  0.85569812425E+02  0.47000000000E+01 0.  1.
<mgrwt>
<rscale>  0 0.11188292E+03</rscale>
<asrwt>0</asrwt>
<pdfrwt beam="1">  1        2 0.86236868E-01 0.11219671E+03</pdfrwt>
<pdfrwt beam="2">  1       -2 0.40888009E-02 0.11219671E+03</pdfrwt>
<totfact> 0.13573667E+04</totfact>
</mgrwt>
</event>
<event>
 8    1  0.9456677E-004  0.9937133E+02  0.7546771E-02  0.1281973E+00
         -1   -1    0    0    0  501 -0.00000000000E+00  0.00000000000E+00  0.14484802252E+02  0.14484802252E+02  0.00000000000E+00 0.  1.
          1   -1    0    0  501    0  0.00000000000E+00 -0.00000000000E+00 -0.70059446304E+03  0.70059446304E+03  0.00000000000E+00 0. -1.
         23    2    1    2    0    0  0.62604538372E+01  0.37489226790E+02 -0.40946113274E+03  0.42134674606E+03  0.91815171874E+02 0.  0.
         23    2    1    2    0    0 -0.62604538372E+01 -0.37489226790E+02 -0.27664852805E+03  0.29373251923E+03  0.91102960289E+02 0.  0.
          5    1    3    3  502    0 -0.27006485033E+02 -0.14715181466E+02 -0.21437436538E+03  0.21662027913E+03  0.47000000000E+01 0. -1.
         -5    1    4    4    0  503  0.40592606910E+02 -0.29168201177E+02 -0.12431818453E+03  0.13407328108E+03  0.47000000000E+01 0.  1.
          5    1    4    4  503    0 -0.46853060747E+02 -0.83210256130E+01 -0.15233034352E+03  0.15965923815E+03  0.47000000000E+01 0. -1.
         -5    1    3    3    0  502  0.33266938870E+02  0.52204408256E+02 -0.19508676736E+03  0.20472646693E+03  0.47000000000E+01 0.  1.
<mgrwt>
<rscale>  0 0.99206500E+02</rscale>
<asrwt>0</asrwt>
<pdfrwt beam="1">  1        1 0.10778377E+00 0.99371330E+02</pdfrwt>
<pdfrwt beam="2">  1       -1 0.22284311E-02 0.99371330E+02</pdfrwt>
<totfact> 0.15266815E+04</totfact>
</mgrwt>
</event>
<event>
 8    1  0.9456677E-004  0.1004426E+03  0.7546771E-02  0.1280771E+00
         -1   -1    0    0    0  501 -0.00000000000E+00  0.00000000000E+00  0.36555127428E+02  0.36555127428E+02  0.00000000000E+00 0.  1.
          1   -1    0    0  501    0  0.00000000000E+00 -0.00000000000E+00 -0.40746177892E+03  0.40746177892E+03  0.00000000000E+00 0. -1.
         23    2    1    2    0    0 -0.42441740015E+02  0.65290840519E+01 -0.54299158679E+02  0.11185876784E+03  0.87863843965E+02 0.  0.
         23    2    1    2    0    0  0.42441740015E+02 -0.65290840519E+01 -0.31660749281E+03  0.33215813850E+03  0.90800849304E+02 0.  0.
          5    1    4    4  502    0  0.18858304444E+02 -0.27937614799E+02 -0.28505265781E+03  0.28707708667E+03  0.47000000000E+01 0. -1.
         -5    1    4    4    0  502  0.23583435571E+02  0.21408530747E+02 -0.31554834999E+02  0.45081051828E+02  0.47000000000E+01 0.  1.
          5    1    3    3  503    0  0.12265184727E+02  0.29435600605E+02 -0.38675656481E+02  0.50346655734E+02  0.47000000000E+01 0. -1.
         -5    1    3    3    0  503 -0.54706924742E+02 -0.22906516553E+02 -0.15623502198E+02  0.61512112110E+02  0.47000000000E+01 0.  1.
<mgrwt>
<rscale>  0 0.99774247E+02</rscale>
<asrwt>0</asrwt>
<pdfrwt beam="1">  1        1 0.62686425E-01 0.10044264E+03</pdfrwt>
<pdfrwt beam="2">  1       -1 0.56238660E-02 0.10044264E+03</pdfrwt>
<totfact> 0.81277941E+03</totfact>
</mgrwt>
</event>
<event>
 8    1  0.9456677E-004  0.9502988E+02  0.7546771E-02  0.1292900E+00
          1   -1    0    0  501    0  0.00000000000E+00  0.00000000000E+00  0.44026199970E+02  0.44026199970E+02  0.00000000000E+00 0. -1.
         -1   -1    0    0    0  501 -0.00000000000E+00 -0.00000000000E+00 -0.26625901961E+03  0.26625901961E+03  0.00000000000E+00 0.  1.
         23    2    1    2    0    0  0.69264896767E+01 -0.25399127856E+02 -0.34204001487E+02  0.10099798155E+03  0.91310386074E+02 0.  0.
         23    2    1    2    0    0 -0.69264896767E+01  0.25399127856E+02 -0.18802881815E+03  0.20928723802E+03  0.88052368451E+02 0.  0.
          5    1    4    4  502    0 -0.31782902741E+02 -0.11251224688E+02 -0.30916403398E+02  0.45985399452E+02  0.47000000000E+01 0. -1.
         -5    1    4    4    0  502  0.24856413065E+02  0.36650352545E+02 -0.15711241475E+03  0.16330183857E+03  0.47000000000E+01 0.  1.
          5    1    3    3  503    0 -0.29010464457E+02 -0.41957124245E+02 -0.47466099366E+01  0.51445384913E+02  0.47000000000E+01 0. -1.
         -5    1    3    3    0  503  0.35936954134E+02  0.16557996389E+02 -0.29457391550E+02  0.49552596640E+02  0.47000000000E+01 0.  1.
<mgrwt>
<rscale>  0 0.94238536E+02</rscale>
<asrwt>0</asrwt>
<pdfrwt beam="1">  1        1 0.67732614E-02 0.95029882E+02</pdfrwt>
<pdfrwt beam="2">  1       -1 0.40962927E-01 0.95029882E+02</pdfrwt>
<totfact> 0.59738302E+03</totfact>
</mgrwt>
</event>
<event>
 8    1  0.9456677E-004  0.1119290E+03  0.7546771E-02  0.1257742E+00
          2   -1    0    0  501    0  0.00000000000E+00  0.00000000000E+00  0.28341067059E+03  0.28341067059E+03  0.00000000000E+00 0. -1.
         -2   -1    0    0    0  501 -0.00000000000E+00 -0.00000000000E+00 -0.80548113782E+02  0.80548113782E+02  0.00000000000E+00 0.  1.
         23    2    1    2    0    0 -0.55489748822E+02  0.30843756560E+02 -0.22204042851E+02  0.11259634039E+03  0.90302086393E+02 0.  0.
         23    2    1    2    0    0  0.55489748822E+02 -0.30843756560E+02  0.22506659966E+03  0.25136244399E+03  0.92182723004E+02 0.  0.
          5    1    4    4  502    0  0.41640215293E+02 -0.86839928195E+01  0.22026127319E+03  0.22438011884E+03  0.47000000000E+01 0. -1.
         -5    1    4    4    0  502  0.13849533529E+02 -0.22159763740E+02  0.48053264695E+01  0.26982325149E+02  0.47000000000E+01 0.  1.
          5    1    3    3  503    0  0.51222049855E+01  0.46934606317E+02 -0.78497115283E+01  0.48091602439E+02  0.47000000000E+01 0. -1.
         -5    1    3    3    0  503 -0.60611953808E+02 -0.16090849757E+02 -0.14354331323E+02  0.64504737950E+02  0.47000000000E+01 0.  1.
<mgrwt>
<rscale>  0 0.11154107E+03</rscale>
<asrwt>0</asrwt>
<pdfrwt beam="1">  1        2 0.43601641E-01 0.11192901E+03</pdfrwt>
<pdfrwt beam="2">  1       -2 0.12392018E-01 0.11192901E+03</pdfrwt>
<totfact> 0.51642430E+03</totfact>
</mgrwt>
</event>
<event>
 8    1  0.9456677E-004  0.1258419E+03  0.7546771E-02  0.1234387E+00
         -1   -1    0    0    0  501 -0.00000000000E+00  0.00000000000E+00  0.11227697777E+02  0.11227697777E+02  0.00000000000E+00 0.  1.
          1   -1    0    0  501    0  0.00000000000E+00 -0.00000000000E+00 -0.14457571430E+04  0.14457571430E+04  0.00000000000E+00 0. -1.
         23    2    1    2    0    0 -0.64232340014E+02 -0.65202012847E+02 -0.85266205197E+03  0.86166489334E+03  0.84004271175E+02 0.  0.
         23    2    1    2    0    0  0.64232340014E+02  0.65202012847E+02 -0.58186739329E+03  0.59531994747E+03  0.86365968371E+02 0.  0.
          5    1    3    3  502    0 -0.61138446658E+02 -0.64386922042E+01 -0.53723958318E+03  0.54076596246E+03  0.47000000000E+01 0. -1.
         -5    1    4    4    0  503  0.73516514328E+02  0.28767383332E+02 -0.27575527923E+03  0.28687158146E+03  0.47000000000E+01 0.  1.
          5    1    4    4  503    0 -0.92841743143E+01  0.36434629515E+02 -0.30611211406E+03  0.30844836601E+03  0.47000000000E+01 0.  1.
         -5    1    3    3    0  502 -0.30938933556E+01 -0.58763320643E+02 -0.31542246878E+03  0.32089893089E+03  0.47000000000E+01 0. -1.
<mgrwt>
<rscale>  0 0.12543769E+03</rscale>
<asrwt>0</asrwt>
<pdfrwt beam="1">  1        1 0.22242415E+00 0.12584187E+03</pdfrwt>
<pdfrwt beam="2">  1       -1 0.17273383E-02 0.12584187E+03</pdfrwt>
<totfact> 0.64483272E+03</totfact>
</mgrwt>
</event>
<event>
 8    1  0.9456677E-004  0.9552208E+02  0.7546771E-02  0.1291667E+00
          1   -1    0    0  501    0  0.00000000000E+00  0.00000000000E+00  0.13047195299E+03  0.13047195299E+03  0.00000000000E+00 0. -1.
         -1   -1    0    0    0  501 -0.00000000000E+00 -0.00000000000E+00 -0.32576565363E+03  0.32576565363E+03  0.00000000000E+00 0.  1.
         23    2    1    2    0    0 -0.95565040630E+00  0.31748539413E+02 -0.30095117416E+03  0.31574685627E+03  0.90086541672E+02 0.  0.
         23    2    1    2    0    0  0.95565040630E+00 -0.31748539413E+02  0.10565747352E+03  0.14049075035E+03  0.86978538731E+02 0.  0.
          5    1    3    3  502    0 -0.31097099116E+02  0.49613143982E+02 -0.21314558994E+03  0.22109189524E+03  0.47000000000E+01 0. -1.
         -5    1    4    4    0  503  0.30709925737E+02 -0.74063746979E+01  0.46019293689E+01  0.32267966761E+02  0.47000000000E+01 0.  1.
          5    1    4    4  503    0 -0.29754275331E+02 -0.24342164715E+02  0.10105554415E+03  0.10822278359E+03  0.47000000000E+01 0. -1.
         -5    1    3    3    0  502  0.30141448710E+02 -0.17864604569E+02 -0.87805584220E+02  0.94654961027E+02  0.47000000000E+01 0.  1.
<mgrwt>
<rscale>  0 0.94782184E+02</rscale>
<asrwt>0</asrwt>
<pdfrwt beam="1">  1        1 0.20072608E-01 0.95522081E+02</pdfrwt>
<pdfrwt beam="2">  1       -1 0.50117792E-01 0.95522081E+02</pdfrwt>
<totfact> 0.10182801E+03</totfact>
</mgrwt>
</event>
<event>
 8    1  0.9456677E-004  0.1359401E+03  0.7546771E-02  0.1219197E+00
         -1   -1    0    0    0  501 -0.00000000000E+00  0.00000000000E+00  0.19991560006E+03  0.19991560006E+03  0.00000000000E+00 0.  1.
          1   -1    0    0  501    0  0.00000000000E+00 -0.00000000000E+00 -0.46584196789E+03  0.46584196789E+03  0.00000000000E+00 0. -1.
         23    2    1    2    0    0  0.68413878409E+02  0.67965029947E+02  0.16537707792E+03  0.21353818208E+03  0.94600598564E+02 0.  0.
         23    2    1    2    0    0 -0.68413878409E+02 -0.67965029947E+02 -0.43130344575E+03  0.45221938588E+03  0.95812350971E+02 0.  0.
          5    1    4    4  502    0  0.90185138738E+01 -0.49148472728E+02 -0.10624453394E+03  0.11750275297E+03  0.47000000000E+01 0.  1.
         -5    1    4    4    0  502 -0.77432392283E+02 -0.18816557219E+02 -0.32505891181E+03  0.33471663291E+03  0.47000000000E+01 0. -1.
          5    1    3    3  503    0  0.41703868252E+02  0.83223190376E+02  0.80571615300E+02  0.12320384424E+03  0.47000000000E+01 0. -1.
         -5    1    3    3    0  503  0.26710010158E+02 -0.15258160429E+02  0.84805462619E+02  0.90334337836E+02  0.47000000000E+01 0.  1.
<mgrwt>
<rscale>  0 0.13572677E+03</rscale>
<asrwt>0</asrwt>
<pdfrwt beam="1">  1        1 0.71667995E-01 0.13594010E+03</pdfrwt>
<pdfrwt beam="2">  1       -1 0.30756246E-01 0.13594010E+03</pdfrwt>
<totfact> 0.49185200E+02</totfact>
</mgrwt>
</event>
<event>
 8    1  0.9456677E-004  0.9516712E+02  0.7546771E-02  0.1291201E+00
         -1   -1    0    0    0  501 -0.00000000000E+00  0.00000000000E+00  0.16402385412E+03  0.16402385412E+03  0.00000000000E+00 0.  1.
          1   -1    0    0  501    0  0.00000000000E+00 -0.00000000000E+00 -0.58010001194E+02  0.58010001194E+02  0.00000000000E+00 0. -1.
         23    2    1    2    0    0 -0.68438681368E+01  0.23552089683E+02  0.78914391965E+02  0.12308355377E+03  0.91216996711E+02 0.  0.
         23    2    1    2    0    0  0.68438681368E+01 -0.23552089683E+02  0.27099460959E+02  0.98950301546E+02  0.91952389486E+02 0.  0.
          5    1    3    3  502    0 -0.15954568451E+02 -0.23115364784E+02 -0.26022088867E+01  0.28595975847E+02  0.47000000000E+01 0. -1.
         -5    1    3    3    0  502  0.91107003145E+01  0.46667454466E+02  0.81516600851E+02  0.94487577919E+02  0.47000000000E+01 0.  1.
          5    1    4    4  503    0  0.32579257535E+02 -0.34284899610E+02 -0.13559768861E+02  0.49424889422E+02  0.47000000000E+01 0. -1.
         -5    1    4    4    0  503 -0.25735389398E+02  0.10732809928E+02  0.40659229820E+02  0.49525412124E+02  0.47000000000E+01 0.  1.
<mgrwt>
<rscale>  0 0.94989034E+02</rscale>
<asrwt>0</asrwt>
<pdfrwt beam="1">  1        1 0.89246157E-02 0.95167123E+02</pdfrwt>
<pdfrwt beam="2">  1       -1 0.25234439E-01 0.95167123E+02</pdfrwt>
<totfact> 0.93539913E+03</totfact>
</mgrwt>
</event>
<event>
 8    1  0.9456677E-004  0.1137787E+03  0.7546771E-02  0.1254952E+00
         -3   -1    0    0    0  501 -0.00000000000E+00  0.00000000000E+00  0.28963551145E+02  0.28963551145E+02  0.00000000000E+00 0.  1.
          3   -1    0    0  501    0  0.00000000000E+00 -0.00000000000E+00 -0.47976518262E+03  0.47976518262E+03  0.00000000000E+00 0. -1.
         23    2    1    2    0    0 -0.61995703818E+02 -0.13581908148E+02 -0.14636173438E+03  0.18372221347E+03  0.91127157933E+02 0.  0.
         23    2    1    2    0    0  0.61995703818E+02  0.13581908148E+02 -0.30443989710E+03  0.32500652029E+03  0.94433319152E+02 0.  0.
          5    1    4    4  502    0  0.48612297815E+02  0.29722435493E+02 -0.29671425566E+03  0.30217216646E+03  0.47000000000E+01 0. -1.
         -5    1    3    3    0  503 -0.67482437475E+02  0.14493237342E+02 -0.13662354803E+03  0.15314051447E+03  0.47000000000E+01 0.  1.
          5    1    3    3  503    0  0.54867336573E+01 -0.28075145490E+02 -0.97381863466E+01  0.30581699002E+02  0.47000000000E+01 0. -1.
         -5    1    4    4    0  502  0.13383406003E+02 -0.16140527345E+02 -0.77256414342E+01  0.22834353829E+02  0.47000000000E+01 0.  1.
<mgrwt>
<rscale>  0 0.11309028E+03</rscale>
<asrwt>0</asrwt>
<pdfrwt beam="1">  1        3 0.73810031E-01 0.11377868E+03</pdfrwt>
<pdfrwt beam="2">  1       -3 0.44559307E-02 0.11377868E+03</pdfrwt>
<totfact> 0.10895482E+03</totfact>
</mgrwt>
</event>
<event>
 8    1  0.9456677E-004  0.1340072E+03  0.7546771E-02  0.1222242E+00
          2   -1    0    0  501    0  0.00000000000E+00  0.00000000000E+00  0.76192666415E+03  0.76192666415E+03  0.00000000000E+00 0. -1.
         -2   -1    0    0    0  501 -0.00000000000E+00 -0.00000000000E+00 -0.10827466479E+03  0.10827466479E+03  0.00000000000E+00 0.  1.
         23    2    1    2    0    0 -0.85084460610E+02 -0.44638902542E+02  0.71189562103E+03  0.72408410911E+03  0.90941875732E+02 0.  0.
         23    2    1    2    0    0  0.85084460610E+02  0.44638902542E+02 -0.58243621668E+02  0.14611721983E+03  0.93412661921E+02 0.  0.
          5    1    3    3  502    0 -0.73350998160E+02  0.10218286544E+02  0.46236253623E+03  0.46827981722E+03  0.47000000000E+01 0. -1.
         -5    1    3    3    0  502 -0.11733462451E+02 -0.54857189086E+02  0.24953308480E+03  0.25580429188E+03  0.47000000000E+01 0.  1.
          5    1    4    4  503    0  0.83590545790E+02  0.68647346982E+02 -0.54864573599E+02  0.12137565254E+03  0.47000000000E+01 0. -1.
         -5    1    4    4    0  503  0.14939148206E+01 -0.24008444440E+02 -0.33790480687E+01  0.24741567286E+02  0.47000000000E+01 0.  1.
<mgrwt>
<rscale>  0 0.13357750E+03</rscale>
<asrwt>0</asrwt>
<pdfrwt beam="1">  1        2 0.11721948E+00 0.13400717E+03</pdfrwt>
<pdfrwt beam="2">  1       -2 0.16657641E-01 0.13400717E+03</pdfrwt>
<totfact> 0.10836714E+03</totfact>
</mgrwt>
</event>
<event>
 8    1  0.9456677E-004  0.1136037E+03  0.7546771E-02  0.1254164E+00
         -1   -1    0    0    0  501 -0.00000000000E+00  0.00000000000E+00  0.94108399586E+02  0.94108399586E+02  0.00000000000E+00 0.  1.
          1   -1    0    0  501    0  0.00000000000E+00 -0.00000000000E+00 -0.32330105682E+03  0.32330105682E+03  0.00000000000E+00 0. -1.
         23    2    1    2    0    0 -0.36460766711E+02  0.56636085032E+02  0.43859149406E+02  0.12177610943E+03  0.91480939019E+02 0.  0.
         23    2    1    2    0    0  0.36460766711E+02 -0.56636085032E+02 -0.27305180664E+03  0.29563334697E+03  0.91130418080E+02 0.  0.
          5    1    4    4  502    0  0.30556111944E+02 -0.35087805540E+02 -0.26825830658E+03  0.27230394622E+03  0.47000000000E+01 0. -1.
         -5    1    4    4    0  502  0.59046547672E+01 -0.21548279491E+02 -0.47935000531E+01  0.23329400757E+02  0.47000000000E+01 0.  1.
          5    1    3    3  503    0  0.25685467582E+02  0.42204339137E+02  0.18815528157E+02  0.53076017058E+02  0.47000000000E+01 0. -1.
         -5    1    3    3    0  503 -0.62146234293E+02  0.14431745894E+02  0.25043621249E+02  0.68700092370E+02  0.47000000000E+01 0.  1.
<mgrwt>
<rscale>  0 0.11353310E+03</rscale>
<asrwt>0</asrwt>
<pdfrwt beam="1">  1        1 0.49738625E-01 0.11360368E+03</pdfrwt>
<pdfrwt beam="2">  1       -1 0.14478215E-01 0.11360368E+03</pdfrwt>
<totfact> 0.26156603E+03</totfact>
</mgrwt>
</event>
<event>
 8    1  0.9456677E-004  0.1320649E+03  0.7546771E-02  0.1224736E+00
          2   -1    0    0  501    0  0.00000000000E+00  0.00000000000E+00  0.29874765000E+03  0.29874765000E+03  0.00000000000E+00 0. -1.
         -2   -1    0    0    0  501 -0.00000000000E+00 -0.00000000000E+00 -0.12580553937E+03  0.12580553937E+03  0.00000000000E+00 0.  1.
         23    2    1    2    0    0  0.41744809305E+02 -0.83180242976E+02 -0.69496712570E+02  0.14847762040E+03  0.92489073819E+02 0.  0.
         23    2    1    2    0    0 -0.41744809305E+02  0.83180242976E+02  0.24243882319E+03  0.27607556897E+03  0.93699278898E+02 0.  0.
          5    1    4    4  502    0  0.11137695782E+02  0.42277520516E+02  0.29783233038E+02  0.53109019747E+02  0.47000000000E+01 0. -1.
         -5    1    3    3    0  503  0.65363597980E+02 -0.83068949670E+02 -0.47953608327E+02  0.11616578193E+03  0.47000000000E+01 0.  1.
          5    1    3    3  503    0 -0.23618788676E+02 -0.11129330598E+00 -0.21543104243E+02  0.32311838467E+02  0.47000000000E+01 0. -1.
         -5    1    4    4    0  502 -0.52882505086E+02  0.40902722461E+02  0.21265559015E+03  0.22296654922E+03  0.47000000000E+01 0.  1.
<mgrwt>
<rscale>  0 0.13185041E+03</rscale>
<asrwt>0</asrwt>
<pdfrwt beam="1">  1        2 0.45961177E-01 0.13206490E+03</pdfrwt>
<pdfrwt beam="2">  1       -2 0.19354699E-01 0.13206490E+03</pdfrwt>
<totfact> 0.23751039E+03</totfact>
</mgrwt>
</event>
<event>
 8    1  0.9456677E-004  0.1055898E+03  0.7546771E-02  0.1269055E+00
          1   -1    0    0  501    0  0.00000000000E+00  0.00000000000E+00  0.42651293194E+03  0.42651293194E+03  0.00000000000E+00 0. -1.
         -1   -1    0    0    0  501 -0.00000000000E+00 -0.00000000000E+00 -0.26479299640E+02  0.26479299640E+02  0.00000000000E+00 0.  1.
         23    2    1    2    0    0  0.16336729573E+02  0.51189300415E+02  0.22718640132E+03  0.25044500242E+03  0.90674169868E+02 0.  0.
         23    2    1    2    0    0 -0.16336729573E+02 -0.51189300415E+02  0.17284723097E+03  0.20254722915E+03  0.90895443085E+02 0.  0.
          5    1    4    4  502    0 -0.65238127450E+01 -0.76310059541E+02  0.14119927470E+03  0.16070193059E+03  0.47000000000E+01 0. -1.
         -5    1    4    4    0  502 -0.98129168277E+01  0.25120759126E+02  0.31647956271E+02  0.41845298563E+02  0.47000000000E+01 0.  1.
          5    1    3    3  503    0  0.14155979319E+02  0.14549234182E+02  0.20747358011E+03  0.20851726166E+03  0.47000000000E+01 0. -1.
         -5    1    3    3    0  503  0.21807502533E+01  0.36640066233E+02  0.19712821213E+02  0.41927740762E+02  0.47000000000E+01 0.  1.
<mgrwt>
<rscale>  0 0.10554221E+03</rscale>
<asrwt>0</asrwt>
<pdfrwt beam="1">  1        1 0.65617369E-01 0.10558984E+03</pdfrwt>
<pdfrwt beam="2">  1       -1 0.40737387E-02 0.10558984E+03</pdfrwt>
<totfact> 0.12364283E+04</totfact>
</mgrwt>
</event>
<event>
 8    1  0.9456677E-004  0.1318011E+03  0.7546771E-02  0.1225000E+00
          1   -1    0    0  501    0  0.00000000000E+00  0.00000000000E+00  0.10385444884E+03  0.10385444884E+03  0.00000000000E+00 0. -1.
         -1   -1    0    0    0  501 -0.00000000000E+00 -0.00000000000E+00 -0.21606062452E+03  0.21606062452E+03  0.00000000000E+00 0.  1.
         23    2    1    2    0    0 -0.20194807583E+02  0.97279203136E+02  0.20344012084E+02  0.13336195838E+03  0.86605193252E+02 0.  0.
         23    2    1    2    0    0  0.20194807583E+02 -0.97279203136E+02 -0.13255018776E+03  0.18655311499E+03  0.85798827616E+02 0.  0.
          5    1    4    4  502    0 -0.32880291402E+02 -0.38480916828E+02 -0.63709639645E+02  0.81504004235E+02  0.47000000000E+01 0. -1.
         -5    1    3    3    0  503  0.21265297125E+02  0.81124665623E+02 -0.50636807907E+00  0.83998634768E+02  0.47000000000E+01 0.  1.
          5    1    3    3  503    0 -0.41460104709E+02  0.16154537513E+02  0.20850380163E+02  0.49363323608E+02  0.47000000000E+01 0. -1.
         -5    1    4    4    0  502  0.53075098986E+02 -0.58798286308E+02 -0.68840548112E+02  0.10504911075E+03  0.47000000000E+01 0.  1.
<mgrwt>
<rscale>  0 0.13166880E+03</rscale>
<asrwt>0</asrwt>
<pdfrwt beam="1">  1        1 0.15977608E-01 0.13180111E+03</pdfrwt>
<pdfrwt beam="2">  1       -1 0.33240095E-01 0.13180111E+03</pdfrwt>
<totfact> 0.28309073E+03</totfact>
</mgrwt>
</event>
<event>
 8    1  0.9456677E-004  0.2162979E+03  0.7546771E-02  0.1137271E+00
         -1   -1    0    0    0  501 -0.00000000000E+00  0.00000000000E+00  0.88923336137E+02  0.88923336137E+02  0.00000000000E+00 0.  1.
          1   -1    0    0  501    0  0.00000000000E+00 -0.00000000000E+00 -0.58730185999E+03  0.58730185999E+03  0.00000000000E+00 0. -1.
         23    2    1    2    0    0 -0.10566757785E+03  0.16108227450E+03 -0.13194235043E+03  0.25071344424E+03  0.91297925049E+02 0.  0.
         23    2    1    2    0    0  0.10566757785E+03 -0.16108227450E+03 -0.36643617342E+03  0.42551175189E+03  0.98344525171E+02 0.  0.
          5    1    3    3  502    0 -0.42542691339E+02  0.79089621447E+02 -0.11462553570E+03  0.14569197727E+03  0.47000000000E+01 0. -1.
         -5    1    3    3    0  502 -0.63124886514E+02  0.81992653055E+02 -0.17316814734E+02  0.10502146697E+03  0.47000000000E+01 0.  1.
          5    1    4    4  503    0  0.51077360781E+02 -0.27838495582E+02 -0.18408998691E+03  0.19311937216E+03  0.47000000000E+01 0. -1.
         -5    1    4    4    0  503  0.54590217072E+02 -0.13324377892E+03 -0.18234618651E+03  0.23239237973E+03  0.47000000000E+01 0.  1.
<mgrwt>
<rscale>  0 0.21551580E+03</rscale>
<asrwt>0</asrwt>
<pdfrwt beam="1">  1        1 0.90354134E-01 0.21629790E+03</pdfrwt>
<pdfrwt beam="2">  1       -1 0.13680513E-01 0.21629790E+03</pdfrwt>
<totfact> 0.13469504E+03</totfact>
</mgrwt>
</event>
<event>
 8    1  0.9456677E-004  0.2134269E+03  0.7546771E-02  0.1139510E+00
          1   -1    0    0  501    0  0.00000000000E+00  0.00000000000E+00  0.43088450663E+03  0.43088450663E+03  0.00000000000E+00 0. -1.
         -1   -1    0    0    0  501 -0.00000000000E+00 -0.00000000000E+00 -0.10647265197E+03  0.10647265197E+03  0.00000000000E+00 0.  1.
         23    2    1    2    0    0  0.42816875183E+02  0.18530716186E+03  0.20329655065E+03  0.29475500662E+03  0.96845223867E+02 0.  0.
         23    2    1    2    0    0 -0.42816875183E+02 -0.18530716186E+03  0.12111530401E+03  0.24260215197E+03  0.89525740630E+02 0.  0.
          5    1    4    4  502    0 -0.59105760952E+02 -0.62689894068E+02  0.54041542113E+02  0.10181400724E+03  0.47000000000E+01 0. -1.
         -5    1    4    4    0  502  0.16288885769E+02 -0.12261726780E+03  0.67073761899E+02  0.14078814473E+03  0.47000000000E+01 0.  1.
          5    1    3    3  503    0  0.34536568689E+02  0.12839247842E+03  0.71854285763E+02  0.15120360933E+03  0.47000000000E+01 0. -1.
         -5    1    3    3    0  503  0.82803064940E+01  0.56914683445E+02  0.13144226489E+03  0.14355139730E+03  0.47000000000E+01 0.  1.
<mgrwt>
<rscale>  0 0.21261725E+03</rscale>
<asrwt>0</asrwt>
<pdfrwt beam="1">  1        1 0.66289923E-01 0.21342686E+03</pdfrwt>
<pdfrwt beam="2">  1       -1 0.16380408E-01 0.21342686E+03</pdfrwt>
<totfact> 0.15277822E+03</totfact>
</mgrwt>
</event>
<event>
 8    1  0.9456677E-004  0.9341803E+02  0.7546771E-02  0.1297471E+00
         -1   -1    0    0    0  501 -0.00000000000E+00  0.00000000000E+00  0.69464987635E+02  0.69464987635E+02  0.00000000000E+00 0.  1.
          1   -1    0    0  501    0  0.00000000000E+00 -0.00000000000E+00 -0.23986111907E+03  0.23986111907E+03  0.00000000000E+00 0. -1.
         23    2    1    2    0    0  0.72527262314E+01 -0.18011338023E+02  0.23244682350E+02  0.96266521289E+02  0.91377883146E+02 0.  0.
         23    2    1    2    0    0 -0.72527262314E+01  0.18011338023E+02 -0.19364081379E+03  0.21305958542E+03  0.86721461240E+02 0.  0.
          5    1    3    3  502    0 -0.38672224065E+02  0.72010812088E+01  0.24110406569E+01  0.39690044114E+02  0.47000000000E+01 0. -1.
         -5    1    3    3    0  502  0.45924950297E+02 -0.25212419232E+02  0.20833641693E+02  0.56576477175E+02  0.47000000000E+01 0.  1.
          5    1    4    4  503    0 -0.13096671109E+02  0.41622081252E+02 -0.17896125425E+03  0.18426378094E+03  0.47000000000E+01 0. -1.
         -5    1    4    4    0  503  0.58439448778E+01 -0.23610743229E+02 -0.14679559533E+02  0.28795804479E+02  0.47000000000E+01 0.  1.
<mgrwt>
<rscale>  0 0.92259281E+02</rscale>
<asrwt>0</asrwt>
<pdfrwt beam="1">  1        1 0.36901710E-01 0.93418028E+02</pdfrwt>
<pdfrwt beam="2">  1       -1 0.10686921E-01 0.93418028E+02</pdfrwt>
<totfact> 0.59433951E+03</totfact>
</mgrwt>
</event>
<event>
 8    1  0.9456677E-004  0.9321176E+02  0.7546771E-02  0.1300581E+00
         -2   -1    0    0    0  501 -0.00000000000E+00  0.00000000000E+00  0.16355354822E+03  0.16355354822E+03  0.00000000000E+00 0.  1.
          2   -1    0    0  501    0  0.00000000000E+00 -0.00000000000E+00 -0.11407780476E+03  0.11407780476E+03  0.00000000000E+00 0. -1.
         23    2    1    2    0    0  0.11739167466E+02 -0.14503617188E+02  0.13064276016E+03  0.16048664513E+03  0.91325076075E+02 0.  0.
         23    2    1    2    0    0 -0.11739167466E+02  0.14503617188E+02 -0.81167016699E+02  0.11714470785E+03  0.82381035512E+02 0.  0.
          5    1    4    4  502    0 -0.39398010284E+02 -0.16188555310E+02 -0.39572804343E+02  0.58329832684E+02  0.47000000000E+01 0. -1.
         -5    1    4    4    0  502  0.27658842818E+02  0.30692172499E+02 -0.41594212356E+02  0.58814875161E+02  0.47000000000E+01 0.  1.
          5    1    3    3  503    0 -0.63275188180E+01 -0.47303913124E+02  0.40527225938E+02  0.62787289585E+02  0.47000000000E+01 0. -1.
         -5    1    3    3    0  503  0.18066686284E+02  0.32800295936E+02  0.90115534220E+02  0.97699355548E+02  0.47000000000E+01 0.  1.
<mgrwt>
<rscale>  0 0.90944355E+02</rscale>
<asrwt>0</asrwt>
<pdfrwt beam="1">  1        2 0.17550432E-01 0.93211762E+02</pdfrwt>
<pdfrwt beam="2">  1       -2 0.25162084E-01 0.93211762E+02</pdfrwt>
<totfact> 0.42374298E+03</totfact>
</mgrwt>
</event>
<event>
 8    1  0.9456677E-004  0.9477429E+02  0.7546771E-02  0.1293604E+00
          2   -1    0    0  501    0  0.00000000000E+00  0.00000000000E+00  0.33072893511E+03  0.33072893511E+03  0.00000000000E+00 0. -1.
         -2   -1    0    0    0  501 -0.00000000000E+00 -0.00000000000E+00 -0.28246087464E+02  0.28246087464E+02  0.00000000000E+00 0.  1.
         23    2    1    2    0    0  0.21213287441E+02 -0.52124729043E+01  0.19688575361E+03  0.21708453098E+03  0.88794820681E+02 0.  0.
         23    2    1    2    0    0 -0.21213287441E+02  0.52124729043E+01  0.10559709404E+03  0.14189049159E+03  0.92222512964E+02 0.  0.
          5    1    4    4  502    0 -0.69970992871E+01  0.47527054167E+02  0.41598128534E+02  0.63720283849E+02  0.47000000000E+01 0. -1.
         -5    1    4    4    0  502 -0.14216188154E+02 -0.42314581263E+02  0.63998965505E+02  0.78170207745E+02  0.47000000000E+01 0.  1.
          5    1    3    3  503    0  0.32190109299E+01  0.36318546992E+02  0.13714531332E+03  0.14198706227E+03  0.47000000000E+01 0. -1.
         -5    1    3    3    0  503  0.17994276511E+02 -0.41531019896E+02  0.59740440290E+02  0.75097468711E+02  0.47000000000E+01 0.  1.
<mgrwt>
<rscale>  0 0.93930076E+02</rscale>
<asrwt>0</asrwt>
<pdfrwt beam="1">  1        2 0.50881372E-01 0.94774286E+02</pdfrwt>
<pdfrwt beam="2">  1       -2 0.43455522E-02 0.94774286E+02</pdfrwt>
<totfact> 0.21478427E+04</totfact>
</mgrwt>
</event>
<event>
 8    1  0.9456677E-004  0.9766872E+02  0.7546771E-02  0.1287129E+00
         -2   -1    0    0    0  501 -0.00000000000E+00  0.00000000000E+00  0.34597202780E+03  0.34597202780E+03  0.00000000000E+00 0.  1.
          2   -1    0    0  501    0  0.00000000000E+00 -0.00000000000E+00 -0.44310522762E+02  0.44310522762E+02  0.00000000000E+00 0. -1.
         23    2    1    2    0    0 -0.24593793631E+02 -0.17777558488E+02  0.26009217836E+02  0.97838773624E+02  0.89303135112E+02 0.  0.
         23    2    1    2    0    0  0.24593793631E+02  0.17777558488E+02  0.27565228720E+03  0.29244377694E+03  0.92834707729E+02 0.  0.
          5    1    3    3  502    0 -0.16782350877E+02  0.31144821921E+02 -0.92265634948E+01  0.36862809271E+02  0.47000000000E+01 0. -1.
         -5    1    3    3    0  502 -0.78114427535E+01 -0.48922380409E+02  0.35235781331E+02  0.60975964353E+02  0.47000000000E+01 0.  1.
          5    1    4    4  503    0  0.27865053898E+02  0.53676021662E+02  0.15550969455E+03  0.16692193274E+03  0.47000000000E+01 0. -1.
         -5    1    4    4    0  503 -0.32712602668E+01 -0.35898463174E+02  0.12014259265E+03  0.12552184420E+03  0.47000000000E+01 0.  1.
<mgrwt>
<rscale>  0 0.96820127E+02</rscale>
<asrwt>0</asrwt>
<pdfrwt beam="1">  1        2 0.68170037E-02 0.97668722E+02</pdfrwt>
<pdfrwt beam="2">  1       -2 0.53226464E-01 0.97668722E+02</pdfrwt>
<totfact> 0.33035256E+03</totfact>
</mgrwt>
</event>
<event>
 8    1  0.9456677E-004  0.1063369E+03  0.7546771E-02  0.1268504E+00
         -2   -1    0    0    0  501 -0.00000000000E+00  0.00000000000E+00  0.84769882964E+02  0.84769882964E+02  0.00000000000E+00 0.  1.
          2   -1    0    0  501    0  0.00000000000E+00 -0.00000000000E+00 -0.14832431309E+03  0.14832431309E+03  0.00000000000E+00 0. -1.
         23    2    1    2    0    0 -0.33096152117E+02 -0.37464325939E+02  0.84972828024E+01  0.10464577829E+03  0.91540177499E+02 0.  0.
         23    2    1    2    0    0  0.33096152117E+02  0.37464325939E+02 -0.72051712932E+02  0.12844841776E+03  0.93854225726E+02 0.  0.
          5    1    3    3  502    0 -0.36253740349E+02 -0.61937373464E+02 -0.11117297114E+02  0.72775381937E+02  0.47000000000E+01 0. -1.
         -5    1    3    3    0  502  0.31575882317E+01  0.24473047526E+02  0.19614579917E+02  0.31870396357E+02  0.47000000000E+01 0.  1.
          5    1    4    4  503    0  0.35968597634E+02 -0.21275873045E+02 -0.50311587896E+02  0.65572468813E+02  0.47000000000E+01 0. -1.
         -5    1    4    4    0  503 -0.28724455168E+01  0.58740198984E+02 -0.21740125036E+02  0.62875948951E+02  0.47000000000E+01 0.  1.
<mgrwt>
<rscale>  0 0.10582407E+03</rscale>
<asrwt>0</asrwt>
<pdfrwt beam="1">  1        2 0.22819125E-01 0.10633695E+03</pdfrwt>
<pdfrwt beam="2">  1       -2 0.13041521E-01 0.10633695E+03</pdfrwt>
<totfact> 0.95051669E+03</totfact>
</mgrwt>
</event>
<event>
 8    1  0.9456677E-004  0.9661468E+02  0.7546771E-02  0.1288359E+00
         -1   -1    0    0    0  501 -0.00000000000E+00  0.00000000000E+00  0.85136553991E+02  0.85136553991E+02  0.00000000000E+00 0.  1.
          1   -1    0    0  501    0  0.00000000000E+00 -0.00000000000E+00 -0.12470202212E+03  0.12470202212E+03  0.00000000000E+00 0. -1.
         23    2    1    2    0    0  0.28525225026E+02 -0.10303170800E+02 -0.57992145862E+02  0.11148238785E+03  0.90251814533E+02 0.  0.
         23    2    1    2    0    0 -0.28525225026E+02  0.10303170800E+02  0.18426677731E+02  0.98356188268E+02  0.91730875538E+02 0.  0.
          5    1    4    4  502    0 -0.45658905443E+02  0.36619098683E+02 -0.49515151999E+01  0.58926238106E+02  0.47000000000E+01 0. -1.
         -5    1    3    3    0  503  0.50862072503E+02 -0.82106333577E+01 -0.29041763574E+01  0.51815916085E+02  0.47000000000E+01 0.  1.
          5    1    3    3  503    0 -0.22336847476E+02 -0.20925374419E+01 -0.55087969505E+02  0.59666471760E+02  0.47000000000E+01 0. -1.
         -5    1    4    4    0  502  0.17133680417E+02 -0.26315927883E+02  0.23378192931E+02  0.39429950161E+02  0.47000000000E+01 0.  1.
<mgrwt>
<rscale>  0 0.96261967E+02</rscale>
<asrwt>0</asrwt>
<pdfrwt beam="1">  1        1 0.19184926E-01 0.96614685E+02</pdfrwt>
<pdfrwt beam="2">  1       -1 0.13097931E-01 0.96614685E+02</pdfrwt>
<totfact> 0.98208041E+03</totfact>
</mgrwt>
</event>
<event>
 8    1  0.9456677E-004  0.2408160E+03  0.7546771E-02  0.1119420E+00
          1   -1    0    0  501    0  0.00000000000E+00  0.00000000000E+00  0.87778859081E+03  0.87778859081E+03  0.00000000000E+00 0. -1.
         -1   -1    0    0    0  501 -0.00000000000E+00 -0.00000000000E+00 -0.98034335799E+02  0.98034335799E+02  0.00000000000E+00 0.  1.
         23    2    1    2    0    0 -0.48031908252E+02  0.21829058754E+03  0.66915613485E+03  0.71082425047E+03  0.86852388708E+02 0.  0.
         23    2    1    2    0    0  0.48031908252E+02 -0.21829058754E+03  0.11059812016E+03  0.26499867614E+03  0.89635424667E+02 0.  0.
          5    1    4    4  502    0 -0.21842716596E+01 -0.22679189341E+02 -0.14480011549E+02  0.27402142367E+02  0.47000000000E+01 0. -1.
         -5    1    4    4    0  502  0.50216179912E+02 -0.19561139820E+03  0.12507813171E+03  0.23759653377E+03  0.47000000000E+01 0.  1.
          5    1    3    3  503    0 -0.38763237517E+02  0.20006814625E+03  0.65376262124E+03  0.68480472155E+03  0.47000000000E+01 0. -1.
         -5    1    3    3    0  503 -0.92686707356E+01  0.18222441288E+02  0.15393513609E+02  0.26019528915E+02  0.47000000000E+01 0.  1.
<mgrwt>
<rscale>  0 0.24056012E+03</rscale>
<asrwt>0</asrwt>
<pdfrwt beam="1">  1        1 0.13504439E+00 0.24081602E+03</pdfrwt>
<pdfrwt beam="2">  1       -1 0.15082206E-01 0.24081602E+03</pdfrwt>
<totfact> 0.63737966E+02</totfact>
</mgrwt>
</event>
<event>
 8    1  0.9456677E-004  0.1236159E+03  0.7546771E-02  0.1237694E+00
         -1   -1    0    0    0  501 -0.00000000000E+00  0.00000000000E+00  0.69804479854E+02  0.69804479854E+02  0.00000000000E+00 0.  1.
          1   -1    0    0  501    0  0.00000000000E+00 -0.00000000000E+00 -0.43354146432E+03  0.43354146432E+03  0.00000000000E+00 0. -1.
         23    2    1    2    0    0 -0.72429199174E+02  0.36910494029E+02 -0.35934713007E+03  0.37965213428E+03  0.91635199085E+02 0.  0.
         23    2    1    2    0    0  0.72429199174E+02 -0.36910494029E+02 -0.43898544051E+01  0.12369380990E+03  0.93126335287E+02 0.  0.
          5    1    3    3  502    0 -0.49575564144E+02  0.76761432153E+01 -0.32496197383E+03  0.32884500022E+03  0.47000000000E+01 0. -1.
         -5    1    3    3    0  502 -0.22853635029E+02  0.29234350813E+02 -0.34385156237E+02  0.50807134056E+02  0.47000000000E+01 0.  1.
          5    1    4    4  503    0 -0.20807543087E+02 -0.43315558216E+01  0.96778269103E+01  0.23821556600E+02  0.47000000000E+01 0. -1.
         -5    1    4    4    0  503  0.93236742260E+02 -0.32578938207E+02 -0.14067681315E+02  0.99872253302E+02  0.47000000000E+01 0.  1.
<mgrwt>
<rscale>  0 0.12333508E+03</rscale>
<asrwt>0</asrwt>
<pdfrwt beam="1">  1        1 0.66698687E-01 0.12361589E+03</pdfrwt>
<pdfrwt beam="2">  1       -1 0.10739151E-01 0.12361589E+03</pdfrwt>
<totfact> 0.28841762E+03</totfact>
</mgrwt>
</event>
<event>
 8    1  0.9456677E-004  0.1270739E+03  0.7546771E-02  0.1232235E+00
         -2   -1    0    0    0  501 -0.00000000000E+00  0.00000000000E+00  0.41211784675E+02  0.41211784675E+02  0.00000000000E+00 0.  1.
          2   -1    0    0  501    0  0.00000000000E+00 -0.00000000000E+00 -0.39317973796E+03  0.39317973796E+03  0.00000000000E+00 0. -1.
         23    2    1    2    0    0  0.71025810122E+02 -0.54732379582E+02 -0.15383348866E+03  0.19953074853E+03  0.90041536498E+02 0.  0.
         23    2    1    2    0    0 -0.71025810122E+02  0.54732379582E+02 -0.19813446462E+03  0.23486077411E+03  0.88668021666E+02 0.  0.
          5    1    3    3  502    0 -0.16240022781E+02 -0.14739726551E+02 -0.60268039253E+01  0.23225207088E+02  0.47000000000E+01 0. -1.
         -5    1    3    3    0  502  0.87265832903E+02 -0.39992653031E+02 -0.14780668474E+03  0.17630554144E+03  0.47000000000E+01 0.  1.
          5    1    4    4  503    0 -0.52248359254E+02  0.38533814755E+02 -0.19923317663E+03  0.20959650425E+03  0.47000000000E+01 0. -1.
         -5    1    4    4    0  503 -0.18777450869E+02  0.16198564827E+02  0.10987120048E+01  0.25264269862E+02  0.47000000000E+01 0.  1.
<mgrwt>
<rscale>  0 0.12683083E+03</rscale>
<asrwt>0</asrwt>
<pdfrwt beam="1">  1        2 0.60489192E-01 0.12707391E+03</pdfrwt>
<pdfrwt beam="2">  1       -2 0.63402744E-02 0.12707391E+03</pdfrwt>
<totfact> 0.10434020E+04</totfact>
</mgrwt>
</event>
<event>
 8    1  0.9456677E-004  0.1278880E+03  0.7546771E-02  0.1231137E+00
          1   -1    0    0  501    0  0.00000000000E+00  0.00000000000E+00  0.21683369720E+03  0.21683369720E+03  0.00000000000E+00 0. -1.
         -1   -1    0    0    0  501 -0.00000000000E+00 -0.00000000000E+00 -0.23494462472E+03  0.23494462472E+03  0.00000000000E+00 0.  1.
         23    2    1    2    0    0 -0.73804606887E+02  0.48980595660E+02 -0.19563023529E+03  0.23298972639E+03  0.90370376209E+02 0.  0.
         23    2    1    2    0    0  0.73804606887E+02 -0.48980595660E+02  0.17751930777E+03  0.21878859552E+03  0.92244924808E+02 0.  0.
          5    1    3    3  502    0 -0.70949396649E+02 -0.41666414222E+00 -0.79439394487E+02  0.10661471704E+03  0.47000000000E+01 0. -1.
         -5    1    4    4    0  503 -0.80708902162E+01 -0.38216212434E+02  0.29303784645E+02  0.49055274499E+02  0.47000000000E+01 0.  1.
          5    1    4    4  503    0  0.81875497104E+02 -0.10764383226E+02  0.14821552312E+03  0.16973332103E+03  0.47000000000E+01 0. -1.
         -5    1    3    3    0  502 -0.28552102381E+01  0.49397259802E+02 -0.11619084080E+03  0.12637500935E+03  0.47000000000E+01 0.  1.
<mgrwt>
<rscale>  0 0.12755032E+03</rscale>
<asrwt>0</asrwt>
<pdfrwt beam="1">  1        1 0.33359030E-01 0.12788802E+03</pdfrwt>
<pdfrwt beam="2">  1       -1 0.36145327E-01 0.12788802E+03</pdfrwt>
<totfact> 0.96905371E+02</totfact>
</mgrwt>
</event>
<event>
 8    1  0.9456677E-004  0.9245292E+02  0.7546771E-02  0.1306756E+00
         -3   -1    0    0    0  501 -0.00000000000E+00  0.00000000000E+00  0.12864411377E+03  0.12864411377E+03  0.00000000000E+00 0.  1.
          3   -1    0    0  501    0  0.00000000000E+00 -0.00000000000E+00 -0.59249484316E+02  0.59249484316E+02  0.00000000000E+00 0. -1.
         23    2    1    2    0    0 -0.12130124557E+01 -0.38042245233E+01  0.98510555692E+01  0.77925513328E+02  0.77197142487E+02 0.  0.
         23    2    1    2    0    0  0.12130124557E+01  0.38042245233E+01  0.59543573885E+02  0.10996808476E+03  0.92366654973E+02 0.  0.
          5    1    3    3  502    0 -0.22969281099E+02 -0.21779964107E+02 -0.19063534669E+02  0.37248665275E+02  0.47000000000E+01 0.  1.
         -5    1    3    3    0  502  0.21756268644E+02  0.17975739584E+02  0.28914590238E+02  0.40676848053E+02  0.47000000000E+01 0. -1.
          5    1    4    4  503    0 -0.39891361729E+02  0.33773653789E+00  0.55137438358E+02  0.68217753666E+02  0.47000000000E+01 0. -1.
         -5    1    4    4    0  503  0.41104374184E+02  0.34664879854E+01  0.44061355273E+01  0.41750331092E+02  0.47000000000E+01 0.  1.
<mgrwt>
<rscale>  0 0.88406831E+02</rscale>
<asrwt>0</asrwt>
<pdfrwt beam="1">  1        3 0.91153053E-02 0.92452920E+02</pdfrwt>
<pdfrwt beam="2">  1       -3 0.19791402E-01 0.92452920E+02</pdfrwt>
<totfact> 0.41415114E+03</totfact>
</mgrwt>
</event>
<event>
 8    1  0.9456677E-004  0.1539819E+03  0.7546771E-02  0.1196343E+00
         -1   -1    0    0    0  501 -0.00000000000E+00  0.00000000000E+00  0.69698845926E+02  0.69698845926E+02  0.00000000000E+00 0.  1.
          1   -1    0    0  501    0  0.00000000000E+00 -0.00000000000E+00 -0.55879378243E+03  0.55879378243E+03  0.00000000000E+00 0. -1.
         23    2    1    2    0    0  0.11322247894E+03 -0.45879916123E+02 -0.44442051785E+03  0.47034034032E+03  0.93734425933E+02 0.  0.
         23    2    1    2    0    0 -0.11322247894E+03  0.45879916123E+02 -0.44674418655E+02  0.15815228804E+03  0.89955800743E+02 0.  0.
          5    1    3    3  502    0  0.90196639045E+02 -0.70805557862E+02 -0.38511731630E+03  0.40185357786E+03  0.47000000000E+01 0. -1.
         -5    1    4    4    0  503 -0.68289420509E+02  0.72101648734E+02 -0.31317579983E+02  0.10423518369E+03  0.47000000000E+01 0.  1.
          5    1    4    4  503    0 -0.44933058435E+02 -0.26221732611E+02 -0.13356838672E+02  0.53917104343E+02  0.47000000000E+01 0. -1.
         -5    1    3    3    0  502  0.23025839899E+02  0.24925641739E+02 -0.59303201545E+02  0.68486762463E+02  0.47000000000E+01 0.  1.
<mgrwt>
<rscale>  0 0.15341114E+03</rscale>
<asrwt>0</asrwt>
<pdfrwt beam="1">  1        1 0.85968275E-01 0.15398194E+03</pdfrwt>
<pdfrwt beam="2">  1       -1 0.10722899E-01 0.15398194E+03</pdfrwt>
<totfact> 0.20925896E+03</totfact>
</mgrwt>
</event>
<event>
 8    1  0.9456677E-004  0.1016940E+03  0.7546771E-02  0.1279030E+00
         -1   -1    0    0    0  501 -0.00000000000E+00  0.00000000000E+00  0.90859428705E+02  0.90859428705E+02  0.00000000000E+00 0.  1.
          1   -1    0    0  501    0  0.00000000000E+00 -0.00000000000E+00 -0.15265987851E+03  0.15265987851E+03  0.00000000000E+00 0. -1.
         23    2    1    2    0    0 -0.11934953182E+02  0.33457747712E+02 -0.96427341205E+02  0.14014245259E+03  0.95288041729E+02 0.  0.
         23    2    1    2    0    0  0.11934953182E+02 -0.33457747712E+02  0.34626891401E+02  0.10337685462E+03  0.90696683921E+02 0.  0.
          5    1    3    3  502    0  0.37632319887E+02  0.21805015281E+02 -0.19796440656E+02  0.48017072528E+02  0.47000000000E+01 0. -1.
         -5    1    3    3    0  502 -0.49567273069E+02  0.11652732432E+02 -0.76630900548E+02  0.92125380062E+02  0.47000000000E+01 0.  1.
          5    1    4    4  503    0  0.49405296563E+02 -0.57565590595E+01  0.12095506175E+02  0.51404402246E+02  0.47000000000E+01 0. -1.
         -5    1    4    4    0  503 -0.37470343381E+02 -0.27701188653E+02  0.22531385227E+02  0.51972452377E+02  0.47000000000E+01 0.  1.
<mgrwt>
<rscale>  0 0.10060441E+03</rscale>
<asrwt>0</asrwt>
<pdfrwt beam="1">  1        1 0.23486135E-01 0.10169403E+03</pdfrwt>
<pdfrwt beam="2">  1       -1 0.13978374E-01 0.10169403E+03</pdfrwt>
<totfact> 0.69218985E+03</totfact>
</mgrwt>
</event>
<event>
 8    1  0.9456677E-004  0.1034458E+03  0.7546771E-02  0.1274411E+00
         -1   -1    0    0    0  501 -0.00000000000E+00  0.00000000000E+00  0.57734515960E+03  0.57734515960E+03  0.00000000000E+00 0.  1.
          1   -1    0    0  501    0  0.00000000000E+00 -0.00000000000E+00 -0.72631602596E+02  0.72631602596E+02  0.00000000000E+00 0. -1.
         23    2    1    2    0    0 -0.10237978438E+02 -0.45423889873E+02  0.53318574092E+03  0.54268415525E+03  0.89726874778E+02 0.  0.
         23    2    1    2    0    0  0.10237978438E+02  0.45423889873E+02 -0.28472183923E+02  0.10729260695E+03  0.92373655737E+02 0.  0.
          5    1    3    3  502    0  0.28321331588E+02  0.30176507074E+01  0.75936446902E+02  0.81238156102E+02  0.47000000000E+01 0. -1.
         -5    1    4    4    0  503 -0.38672953374E+02  0.59871339984E+01 -0.36836755170E+01  0.39586646252E+02  0.47000000000E+01 0.  1.
          5    1    4    4  503    0  0.48910931811E+02  0.39436755874E+02 -0.24788508406E+02  0.67705960694E+02  0.47000000000E+01 0. -1.
         -5    1    3    3    0  502 -0.38559310025E+02 -0.48441540580E+02  0.45724929402E+03  0.46144599914E+03  0.47000000000E+01 0.  1.
<mgrwt>
<rscale>  0 0.10285161E+03</rscale>
<asrwt>0</asrwt>
<pdfrwt beam="1">  1        1 0.11174093E-01 0.10344582E+03</pdfrwt>
<pdfrwt beam="2">  1       -1 0.88822329E-01 0.10344582E+03</pdfrwt>
<totfact> 0.71246220E+02</totfact>
</mgrwt>
</event>
<event>
 8    1  0.9456677E-004  0.3301901E+03  0.7546771E-02  0.1071102E+00
         -2   -1    0    0    0  501 -0.00000000000E+00  0.00000000000E+00  0.62965051438E+03  0.62965051438E+03  0.00000000000E+00 0.  1.
          2   -1    0    0  501    0  0.00000000000E+00 -0.00000000000E+00 -0.38352452760E+03  0.38352452760E+03  0.00000000000E+00 0. -1.
         23    2    1    2    0    0  0.59502559652E+02  0.31127236909E+03 -0.25237300712E+03  0.41523963151E+03  0.91108586256E+02 0.  0.
         23    2    1    2    0    0 -0.59502559652E+02 -0.31127236909E+03  0.49849899390E+03  0.59793541047E+03  0.92706341795E+02 0.  0.
          5    1    4    4  502    0 -0.66396821311E+02 -0.13041455768E+03  0.18523404716E+03  0.23611488086E+03  0.47000000000E+01 0. -1.
         -5    1    4    4    0  502  0.68942616591E+01 -0.18085781141E+03  0.31326494675E+03  0.36182052962E+03  0.47000000000E+01 0.  1.
          5    1    3    3  503    0  0.77670280031E+02  0.27030098706E+03 -0.19489101127E+03  0.34219861525E+03  0.47000000000E+01 0. -1.
         -5    1    3    3    0  503 -0.18167720379E+02  0.40971382029E+02 -0.57481995851E+02  0.73041016259E+02  0.47000000000E+01 0.  1.
<mgrwt>
<rscale>  0 0.33007880E+03</rscale>
<asrwt>0</asrwt>
<pdfrwt beam="1">  1        2 0.59003773E-01 0.33019011E+03</pdfrwt>
<pdfrwt beam="2">  1       -2 0.96869310E-01 0.33019011E+03</pdfrwt>
<totfact> 0.77457462E+01</totfact>
</mgrwt>
</event>
<event>
 8    1  0.9456677E-004  0.9686653E+02  0.7546771E-02  0.1287093E+00
          1   -1    0    0  501    0  0.00000000000E+00  0.00000000000E+00  0.17045338976E+03  0.17045338976E+03  0.00000000000E+00 0. -1.
         -1   -1    0    0    0  501 -0.00000000000E+00 -0.00000000000E+00 -0.96839548037E+02  0.96839548037E+02  0.00000000000E+00 0.  1.
         23    2    1    2    0    0  0.24555740398E+02  0.21781467246E+02 -0.51074355613E+02  0.10939970982E+03  0.91007087665E+02 0.  0.
         23    2    1    2    0    0 -0.24555740398E+02 -0.21781467246E+02  0.12468819734E+03  0.15789322798E+03  0.91135658139E+02 0.  0.
          5    1    4    4  502    0 -0.56855900816E+02 -0.27997381454E+02  0.85075536665E+02  0.10619031860E+03  0.47000000000E+01 0. -1.
         -5    1    4    4    0  502  0.32300160418E+02  0.62159142079E+01  0.39612660672E+02  0.51702909377E+02  0.47000000000E+01 0.  1.
          5    1    3    3  503    0  0.25833473018E+01 -0.34476117520E+02 -0.10309098528E+02  0.36381916868E+02  0.47000000000E+01 0. -1.
         -5    1    3    3    0  503  0.21972393096E+02  0.56257584766E+02 -0.40765257086E+02  0.73017792951E+02  0.47000000000E+01 0.  1.
<mgrwt>
<rscale>  0 0.96836279E+02</rscale>
<asrwt>0</asrwt>
<pdfrwt beam="1">  1        1 0.26223598E-01 0.96866531E+02</pdfrwt>
<pdfrwt beam="2">  1       -1 0.14898392E-01 0.96866531E+02</pdfrwt>
<totfact> 0.54475318E+03</totfact>
</mgrwt>
</event>
<event>
 8    1  0.9456677E-004  0.1965259E+03  0.7546771E-02  0.1152831E+00
          2   -1    0    0  501    0  0.00000000000E+00  0.00000000000E+00  0.54438163576E+03  0.54438163576E+03  0.00000000000E+00 0. -1.
         -2   -1    0    0    0  501 -0.00000000000E+00 -0.00000000000E+00 -0.72586675652E+02  0.72586675652E+02  0.00000000000E+00 0.  1.
         23    2    1    2    0    0 -0.50437828893E+02  0.16543506381E+03  0.18696627775E+03  0.27125416097E+03  0.93325751585E+02 0.  0.
         23    2    1    2    0    0  0.50437828893E+02 -0.16543506381E+03  0.28482868236E+03  0.34571415044E+03  0.92076927605E+02 0.  0.
          5    1    4    4  502    0 -0.43263966901E+01 -0.10012818275E+03  0.20772964063E+03  0.23069040787E+03  0.47000000000E+01 0. -1.
         -5    1    3    3    0  503 -0.71687343944E+02  0.13110815292E+03  0.11504259584E+03  0.18864069524E+03  0.47000000000E+01 0.  1.
          5    1    3    3  503    0  0.21249515050E+02  0.34326910894E+02  0.71923681906E+02  0.82613465732E+02  0.47000000000E+01 0. -1.
         -5    1    4    4    0  502  0.54764225583E+02 -0.65306881065E+02  0.77099041729E+02  0.11502374257E+03  0.47000000000E+01 0.  1.
<mgrwt>
<rscale>  0 0.19637825E+03</rscale>
<asrwt>0</asrwt>
<pdfrwt beam="1">  1        2 0.83751018E-01 0.19652590E+03</pdfrwt>
<pdfrwt beam="2">  1       -2 0.11167181E-01 0.19652590E+03</pdfrwt>
<totfact> 0.30986233E+03</totfact>
</mgrwt>
</event>
<event>
 8    1  0.9456677E-004  0.9665283E+02  0.7546771E-02  0.1288777E+00
          1   -1    0    0  501    0  0.00000000000E+00  0.00000000000E+00  0.11773461411E+03  0.11773461411E+03  0.00000000000E+00 0. -1.
         -1   -1    0    0    0  501 -0.00000000000E+00 -0.00000000000E+00 -0.79916615120E+02  0.79916615120E+02  0.00000000000E+00 0.  1.
         23    2    1    2    0    0 -0.66469217194E+01  0.10839575786E+02  0.35975999064E+02  0.10098084843E+03  0.93494284688E+02 0.  0.
         23    2    1    2    0    0  0.66469217194E+01 -0.10839575786E+02  0.18419999207E+01  0.96670380796E+02  0.95812794490E+02 0.  0.
          5    1    3    3  502    0 -0.48422698576E+02  0.52205995090E+00  0.30316636311E+02  0.57325550335E+02  0.47000000000E+01 0. -1.
         -5    1    3    3    0  502  0.41775776857E+02  0.10317515835E+02  0.56593627531E+01  0.43655298095E+02  0.47000000000E+01 0.  1.
          5    1    4    4  503    0 -0.29621355425E+02 -0.25256124629E+02 -0.27264561646E+02  0.47757123555E+02  0.47000000000E+01 0. -1.
         -5    1    4    4    0  503  0.36268277145E+02  0.14416548844E+02  0.29106561567E+02  0.48913257240E+02  0.47000000000E+01 0.  1.
<mgrwt>
<rscale>  0 0.96073170E+02</rscale>
<asrwt>0</asrwt>
<pdfrwt beam="1">  1        1 0.18113018E-01 0.96652830E+02</pdfrwt>
<pdfrwt beam="2">  1       -1 0.12294864E-01 0.96652830E+02</pdfrwt>
<totfact> 0.11638113E+04</totfact>
</mgrwt>
</event>
<event>
 8    1  0.9456677E-004  0.1391364E+03  0.7546771E-02  0.1214586E+00
          1   -1    0    0  501    0  0.00000000000E+00  0.00000000000E+00  0.97940524811E+02  0.97940524811E+02  0.00000000000E+00 0. -1.
         -1   -1    0    0    0  501 -0.00000000000E+00 -0.00000000000E+00 -0.21035487620E+03  0.21035487620E+03  0.00000000000E+00 0.  1.
         23    2    1    2    0    0  0.91484818777E+02  0.51000111944E+02 -0.17727264393E+02  0.13999627985E+03  0.91182339209E+02 0.  0.
         23    2    1    2    0    0 -0.91484818777E+02 -0.51000111944E+02 -0.94687086997E+02  0.16829912116E+03  0.91588570548E+02 0.  0.
          5    1    3    3  502    0  0.21282858662E+02  0.41128943027E+02  0.29108738708E+02  0.54899532753E+02  0.47000000000E+01 0. -1.
         -5    1    3    3    0  502  0.70201960115E+02  0.98711689174E+01 -0.46836003101E+02  0.85096747095E+02  0.47000000000E+01 0.  1.
          5    1    4    4  503    0 -0.88947367336E+02 -0.16883323486E+01 -0.54260815026E+02  0.10431112438E+03  0.47000000000E+01 0. -1.
         -5    1    4    4    0  503 -0.25374514403E+01 -0.49311779596E+02 -0.40426271971E+02  0.63987996782E+02  0.47000000000E+01 0.  1.
<mgrwt>
<rscale>  0 0.13906963E+03</rscale>
<asrwt>0</asrwt>
<pdfrwt beam="1">  1        1 0.15067773E-01 0.13913644E+03</pdfrwt>
<pdfrwt beam="2">  1       -1 0.32362288E-01 0.13913644E+03</pdfrwt>
<totfact> 0.32043753E+03</totfact>
</mgrwt>
</event>
<event>
 8    1  0.9456677E-004  0.9400792E+02  0.7546771E-02  0.1293969E+00
         -1   -1    0    0    0  501 -0.00000000000E+00  0.00000000000E+00  0.45362264679E+02  0.45362264679E+02  0.00000000000E+00 0.  1.
          1   -1    0    0  501    0  0.00000000000E+00 -0.00000000000E+00 -0.22084704721E+03  0.22084704721E+03  0.00000000000E+00 0. -1.
         23    2    1    2    0    0 -0.17340342278E+02 -0.12606637970E+02 -0.13550616774E+03  0.16492243555E+03  0.91530724128E+02 0.  0.
         23    2    1    2    0    0  0.17340342278E+02  0.12606637970E+02 -0.39978614785E+02  0.10128687634E+03  0.90560073359E+02 0.  0.
          5    1    3    3  502    0  0.18743258854E+02  0.28680591887E+02 -0.78012934149E+02  0.85334600239E+02  0.47000000000E+01 0. -1.
         -5    1    4    4    0  503  0.47198299339E+02 -0.13194295828E+02 -0.71669279672E+01  0.49751620671E+02  0.47000000000E+01 0.  1.
          5    1    4    4  503    0 -0.29857957061E+02  0.25800933798E+02 -0.32811686818E+02  0.51535255666E+02  0.47000000000E+01 0. -1.
         -5    1    3    3    0  502 -0.36083601132E+02 -0.41287229857E+02 -0.57493233593E+02  0.79587835307E+02  0.47000000000E+01 0.  1.
<mgrwt>
<rscale>  0 0.93770818E+02</rscale>
<asrwt>0</asrwt>
<pdfrwt beam="1">  1        1 0.33976469E-01 0.94007916E+02</pdfrwt>
<pdfrwt beam="2">  1       -1 0.69788100E-02 0.94007916E+02</pdfrwt>
<totfact> 0.12465055E+04</totfact>
</mgrwt>
</event>
<event>
 8    1  0.9456677E-004  0.9769355E+02  0.7546771E-02  0.1287458E+00
         -1   -1    0    0    0  501 -0.00000000000E+00  0.00000000000E+00  0.47471724901E+02  0.47471724901E+02  0.00000000000E+00 0.  1.
          1   -1    0    0  501    0  0.00000000000E+00 -0.00000000000E+00 -0.19323199047E+03  0.19323199047E+03  0.00000000000E+00 0. -1.
         23    2    1    2    0    0 -0.24873551393E+02 -0.12773872560E+02 -0.65932278506E+02  0.11454295564E+03  0.89393276917E+02 0.  0.
         23    2    1    2    0    0  0.24873551393E+02  0.12773872560E+02 -0.79827987065E+02  0.12616075974E+03  0.93606433535E+02 0.  0.
          5    1    4    4  502    0  0.44537067060E+02 -0.22940371778E+02 -0.65705123302E+02  0.82759073387E+02  0.47000000000E+01 0. -1.
         -5    1    4    4    0  502 -0.19663515667E+02  0.35714244338E+02 -0.14122863763E+02  0.43401686349E+02  0.47000000000E+01 0.  1.
          5    1    3    3  503    0  0.10807836486E+02  0.25584151772E+02 -0.53550220713E+02  0.60506811929E+02  0.47000000000E+01 0. -1.
         -5    1    3    3    0  503 -0.35681387879E+02 -0.38358024332E+02 -0.12382057793E+02  0.54036143708E+02  0.47000000000E+01 0.  1.
<mgrwt>
<rscale>  0 0.96670303E+02</rscale>
<asrwt>0</asrwt>
<pdfrwt beam="1">  1        1 0.29727999E-01 0.97693550E+02</pdfrwt>
<pdfrwt beam="2">  1       -1 0.73033423E-02 0.97693550E+02</pdfrwt>
<totfact> 0.13776990E+04</totfact>
</mgrwt>
</event>
<event>
 8    1  0.9456677E-004  0.1031511E+03  0.7546771E-02  0.1275285E+00
          1   -1    0    0  501    0  0.00000000000E+00  0.00000000000E+00  0.88741846050E+03  0.88741846050E+03  0.00000000000E+00 0. -1.
         -1   -1    0    0    0  501 -0.00000000000E+00 -0.00000000000E+00 -0.11846386342E+02  0.11846386342E+02  0.00000000000E+00 0.  1.
         23    2    1    2    0    0  0.36442922095E+02 -0.46991709958E+00  0.48855923524E+03  0.49874132470E+03  0.93404899409E+02 0.  0.
         23    2    1    2    0    0 -0.36442922095E+02  0.46991709958E+00  0.38701283892E+03  0.40052352214E+03  0.96497911412E+02 0.  0.
          5    1    4    4  502    0 -0.10171064681E+02 -0.34962606851E+02  0.30570822113E+03  0.30790492185E+03  0.47000000000E+01 0. -1.
         -5    1    4    4    0  502 -0.26271857414E+02  0.35432523951E+02  0.81304617788E+02  0.92618600287E+02  0.47000000000E+01 0.  1.
          5    1    3    3  503    0 -0.21820464510E+02 -0.97140661407E+00  0.35629189403E+02  0.42054790925E+02  0.47000000000E+01 0. -1.
         -5    1    3    3    0  503  0.58263386606E+02  0.50148951449E+00  0.45293004583E+03  0.45668653377E+03  0.47000000000E+01 0.  1.
<mgrwt>
<rscale>  0 0.10242153E+03</rscale>
<asrwt>0</asrwt>
<pdfrwt beam="1">  1        1 0.13652586E+00 0.10315112E+03</pdfrwt>
<pdfrwt beam="2">  1       -1 0.18225217E-02 0.10315112E+03</pdfrwt>
<totfact> 0.14384364E+04</totfact>
</mgrwt>
</event>
<event>
 8    1  0.9456677E-004  0.3211821E+03  0.7546771E-02  0.1075614E+00
          1   -1    0    0  501    0  0.00000000000E+00  0.00000000000E+00  0.20560947372E+04  0.20560947372E+04  0.00000000000E+00 0. -1.
         -1   -1    0    0    0  501 -0.00000000000E+00 -0.00000000000E+00 -0.53943628441E+02  0.53943628441E+02  0.00000000000E+00 0.  1.
         23    2    1    2    0    0  0.25239357926E+03 -0.16795917024E+03  0.70417886605E+03  0.77396759583E+03  0.10604320955E+03 0.  0.
         23    2    1    2    0    0 -0.25239357926E+03  0.16795917024E+03  0.12979722427E+04  0.13360707698E+04  0.91871417539E+02 0.  0.
          5    1    4    4  502    0 -0.21438154597E+03  0.11510903927E+03  0.11289231883E+04  0.11548589495E+04  0.47000000000E+01 0. -1.
         -5    1    4    4    0  502 -0.38012033290E+02  0.52850130968E+02  0.16904905438E+03  0.18121182027E+03  0.47000000000E+01 0.  1.
          5    1    3    3  503    0  0.14721773725E+03 -0.14539165938E+03  0.53264202334E+03  0.57143802097E+03  0.47000000000E+01 0. -1.
         -5    1    3    3    0  503  0.10517584202E+03 -0.22567510861E+02  0.17153684271E+03  0.20252957487E+03  0.47000000000E+01 0.  1.
<mgrwt>
<rscale>  0 0.32007733E+03</rscale>
<asrwt>0</asrwt>
<pdfrwt beam="1">  1        1 0.31632221E+00 0.32118214E+03</pdfrwt>
<pdfrwt beam="2">  1       -1 0.82990214E-02 0.32118214E+03</pdfrwt>
<totfact> 0.25028818E+02</totfact>
</mgrwt>
</event>
<event>
 8    1  0.9456677E-004  0.1704067E+03  0.7546771E-02  0.1177810E+00
          1   -1    0    0  501    0  0.00000000000E+00  0.00000000000E+00  0.66985966423E+03  0.66985966423E+03  0.00000000000E+00 0. -1.
         -1   -1    0    0    0  501 -0.00000000000E+00 -0.00000000000E+00 -0.86433276950E+02  0.86433276950E+02  0.00000000000E+00 0.  1.
         23    2    1    2    0    0  0.12955545445E+03 -0.59220204250E+02  0.24210445872E+02  0.17211790916E+03  0.93524224645E+02 0.  0.
         23    2    1    2    0    0 -0.12955545445E+03  0.59220204250E+02  0.55921594141E+03  0.58417503202E+03  0.90809418768E+02 0.  0.
          5    1    3    3  502    0  0.20262910163E+02 -0.52165248386E+02 -0.10500664377E+02  0.57132763103E+02  0.47000000000E+01 0. -1.
         -5    1    4    4    0  503 -0.59204896209E+02 -0.20059613391E+02  0.21961847432E+03  0.22838995618E+03  0.47000000000E+01 0.  1.
          5    1    4    4  503    0 -0.70350558244E+02  0.79279817641E+02  0.33959746709E+03  0.35578507583E+03  0.47000000000E+01 0. -1.
         -5    1    3    3    0  502  0.10929254429E+03 -0.70549558636E+01  0.34711110248E+02  0.11498514606E+03  0.47000000000E+01 0.  1.
<mgrwt>
<rscale>  0 0.17003677E+03</rscale>
<asrwt>0</asrwt>
<pdfrwt beam="1">  1        1 0.10305533E+00 0.17040666E+03</pdfrwt>
<pdfrwt beam="2">  1       -1 0.13297428E-01 0.17040666E+03</pdfrwt>
<totfact> 0.11696119E+03</totfact>
</mgrwt>
</event>
<event>
 8    1  0.9456677E-004  0.9580503E+02  0.7546771E-02  0.1290833E+00
          1   -1    0    0  501    0  0.00000000000E+00  0.00000000000E+00  0.26478558726E+03  0.26478558726E+03  0.00000000000E+00 0. -1.
         -1   -1    0    0    0  501 -0.00000000000E+00 -0.00000000000E+00 -0.33767666586E+02  0.33767666586E+02  0.00000000000E+00 0.  1.
         23    2    1    2    0    0 -0.16127298893E+02  0.15766477800E+02  0.11853335504E+03  0.15079879347E+03  0.90451358550E+02 0.  0.
         23    2    1    2    0    0  0.16127298893E+02 -0.15766477800E+02  0.11248456564E+03  0.14775446038E+03  0.93112466743E+02 0.  0.
          5    1    3    3  502    0  0.20987826934E+02  0.40022518136E+02  0.40206913139E+02  0.60671053242E+02  0.47000000000E+01 0. -1.
         -5    1    3    3    0  502 -0.37115125827E+02 -0.24256040336E+02  0.78326441897E+02  0.90127740226E+02  0.47000000000E+01 0.  1.
          5    1    4    4  503    0 -0.85939056859E+01 -0.47882362493E+02  0.34767814005E+02  0.59978885815E+02  0.47000000000E+01 0. -1.
         -5    1    4    4    0  503  0.24721204579E+02  0.32115884693E+02  0.77716751635E+02  0.87775574564E+02  0.47000000000E+01 0.  1.
<mgrwt>
<rscale>  0 0.95152333E+02</rscale>
<asrwt>0</asrwt>
<pdfrwt beam="1">  1        1 0.40736243E-01 0.95805026E+02</pdfrwt>
<pdfrwt beam="2">  1       -1 0.51950258E-02 0.95805026E+02</pdfrwt>
<totfact> 0.15462431E+04</totfact>
</mgrwt>
</event>
<event>
 8    1  0.9456677E-004  0.1045927E+03  0.7546771E-02  0.1271402E+00
         -2   -1    0    0    0  501 -0.00000000000E+00  0.00000000000E+00  0.21643645073E+02  0.21643645073E+02  0.00000000000E+00 0.  1.
          2   -1    0    0  501    0  0.00000000000E+00 -0.00000000000E+00 -0.64023384565E+03  0.64023384565E+03  0.00000000000E+00 0. -1.
         23    2    1    2    0    0  0.29528288839E+02 -0.39083947032E+02 -0.46484133799E+03  0.47646311824E+03  0.92412979494E+02 0.  0.
         23    2    1    2    0    0 -0.29528288839E+02  0.39083947032E+02 -0.15374886258E+03  0.18541437248E+03  0.91325254010E+02 0.  0.
          5    1    3    3  502    0  0.62339705100E+02 -0.28970521566E+02 -0.27618581555E+03  0.28465105772E+03  0.47000000000E+01 0. -1.
         -5    1    3    3    0  502 -0.32811416261E+02 -0.10113425465E+02 -0.18865552244E+03  0.19181206051E+03  0.47000000000E+01 0.  1.
          5    1    4    4  503    0  0.19772466564E+02  0.16806233021E+02 -0.11678007437E+03  0.11972082389E+03  0.47000000000E+01 0. -1.
         -5    1    4    4    0  503 -0.49300755403E+02  0.22277714011E+02 -0.36968788210E+02  0.65693548591E+02  0.47000000000E+01 0.  1.
<mgrwt>
<rscale>  0 0.10435192E+03</rscale>
<asrwt>0</asrwt>
<pdfrwt beam="1">  1        2 0.98497510E-01 0.10459270E+03</pdfrwt>
<pdfrwt beam="2">  1       -2 0.33297917E-02 0.10459270E+03</pdfrwt>
<totfact> 0.15718374E+04</totfact>
</mgrwt>
</event>
<event>
 8    1  0.9456677E-004  0.9725130E+02  0.7546771E-02  0.1286262E+00
          2   -1    0    0  501    0  0.00000000000E+00  0.00000000000E+00  0.59883690349E+03  0.59883690349E+03  0.00000000000E+00 0. -1.
         -2   -1    0    0    0  501 -0.00000000000E+00 -0.00000000000E+00 -0.16239065472E+02  0.16239065472E+02  0.00000000000E+00 0.  1.
         23    2    1    2    0    0 -0.21822777787E+02 -0.28427611116E+02  0.23927719759E+03  0.25828548566E+03  0.90407146352E+02 0.  0.
         23    2    1    2    0    0  0.21822777787E+02  0.28427611116E+02  0.34332064043E+03  0.35679048330E+03  0.90255327415E+02 0.  0.
          5    1    4    4  502    0  0.13330846850E+02  0.60786330781E+02  0.24517894836E+03  0.25299702806E+03  0.47000000000E+01 0. -1.
         -5    1    3    3    0  503 -0.38340095231E+02 -0.47294889018E+02  0.10382174764E+03  0.12044839024E+03  0.47000000000E+01 0.  1.
          5    1    3    3  503    0  0.16517317444E+02  0.18867277903E+02  0.13545544995E+03  0.13783709541E+03  0.47000000000E+01 0. -1.
         -5    1    4    4    0  502  0.84919309364E+01 -0.32358719665E+02  0.98141692067E+02  0.10379345524E+03  0.47000000000E+01 0.  1.
<mgrwt>
<rscale>  0 0.97215998E+02</rscale>
<asrwt>0</asrwt>
<pdfrwt beam="1">  1        2 0.92128738E-01 0.97251297E+02</pdfrwt>
<pdfrwt beam="2">  1       -2 0.24983182E-02 0.97251297E+02</pdfrwt>
<totfact> 0.25590535E+04</totfact>
</mgrwt>
</event>
<event>
 8    1  0.9456677E-004  0.1026900E+03  0.7546771E-02  0.1275368E+00
          1   -1    0    0  501    0  0.00000000000E+00  0.00000000000E+00  0.30142036965E+02  0.30142036965E+02  0.00000000000E+00 0. -1.
         -1   -1    0    0    0  501 -0.00000000000E+00 -0.00000000000E+00 -0.36655700014E+03  0.36655700014E+03  0.00000000000E+00 0.  1.
         23    2    1    2    0    0  0.22761964071E+02  0.52404883083E+01 -0.11990309382E+03  0.15706883393E+03  0.98733464230E+02 0.  0.
         23    2    1    2    0    0 -0.22761964071E+02 -0.52404883083E+01 -0.21651186936E+03  0.23963020318E+03  0.99998374866E+02 0.  0.
          5    1    4    4  502    0  0.20039577841E+02  0.80482212929E+01 -0.18076412777E+03  0.18211018213E+03  0.47000000000E+01 0. -1.
         -5    1    3    3    0  503 -0.32799382735E+02  0.40228628076E+01 -0.84890458359E+02  0.91216571156E+02  0.47000000000E+01 0.  1.
          5    1    3    3  503    0  0.55561346806E+02  0.12176255008E+01 -0.35012635460E+02  0.65852262775E+02  0.47000000000E+01 0. -1.
         -5    1    4    4    0  502 -0.42801541912E+02 -0.13288709601E+02 -0.35747741587E+02  0.57520021049E+02  0.47000000000E+01 0.  1.
<mgrwt>
<rscale>  0 0.10238081E+03</rscale>
<asrwt>0</asrwt>
<pdfrwt beam="1">  1        1 0.46372368E-02 0.10269004E+03</pdfrwt>
<pdfrwt beam="2">  1       -1 0.56393381E-01 0.10269004E+03</pdfrwt>
<totfact> 0.56391856E+03</totfact>
</mgrwt>
</event>
<event>
 8    1  0.9456677E-004  0.9954071E+02  0.7546771E-02  0.1282080E+00
          1   -1    0    0  501    0  0.00000000000E+00  0.00000000000E+00  0.10838227839E+03  0.10838227839E+03  0.00000000000E+00 0. -1.
         -1   -1    0    0    0  501 -0.00000000000E+00 -0.00000000000E+00 -0.90025781194E+02  0.90025781194E+02  0.00000000000E+00 0.  1.
         23    2    1    2    0    0 -0.15569848408E+02  0.31688556959E+02  0.86589046024E+01  0.99916609513E+02  0.93068616655E+02 0.  0.
         23    2    1    2    0    0  0.15569848408E+02 -0.31688556959E+02  0.96975925947E+01  0.98491450072E+02  0.91432694446E+02 0.  0.
          5    1    3    3  502    0 -0.40392093964E+02 -0.13792276483E+02 -0.10955821574E+02  0.44315552256E+02  0.47000000000E+01 0. -1.
         -5    1    3    3    0  502  0.24822245557E+02  0.45480833442E+02  0.19614726176E+02  0.55601057256E+02  0.47000000000E+01 0.  1.
          5    1    4    4  503    0 -0.19336234113E+02 -0.18743403837E+02  0.41235390606E+02  0.49473756433E+02  0.47000000000E+01 0. -1.
         -5    1    4    4    0  503  0.34906082521E+02 -0.12945153121E+02 -0.31537798011E+02  0.49017693640E+02  0.47000000000E+01 0.  1.
<mgrwt>
<rscale>  0 0.99156529E+02</rscale>
<asrwt>0</asrwt>
<pdfrwt beam="1">  1        1 0.16674197E-01 0.99540706E+02</pdfrwt>
<pdfrwt beam="2">  1       -1 0.13850120E-01 0.99540706E+02</pdfrwt>
<totfact> 0.10793406E+04</totfact>
</mgrwt>
</event>
<event>
 8    1  0.9456677E-004  0.1024185E+03  0.7546771E-02  0.1277400E+00
          1   -1    0    0  501    0  0.00000000000E+00  0.00000000000E+00  0.74520301369E+03  0.74520301369E+03  0.00000000000E+00 0. -1.
         -1   -1    0    0    0  501 -0.00000000000E+00 -0.00000000000E+00 -0.16510957721E+02  0.16510957721E+02  0.00000000000E+00 0.  1.
         23    2    1    2    0    0  0.29182955192E+02  0.26715557645E+02  0.53231477376E+03  0.54207800942E+03  0.94467899538E+02 0.  0.
         23    2    1    2    0    0 -0.29182955192E+02 -0.26715557645E+02  0.19637728221E+03  0.21963596199E+03  0.90058608344E+02 0.  0.
          5    1    4    4  502    0 -0.60044310388E+02 -0.52984491159E+01  0.11740274540E+03  0.13205637963E+03  0.47000000000E+01 0. -1.
         -5    1    3    3    0  503  0.60586720869E+02  0.26923769538E+02  0.28040556843E+03  0.28817531629E+03  0.47000000000E+01 0.  1.
          5    1    3    3  503    0 -0.31403765677E+02 -0.20821189314E+00  0.25190920533E+03  0.25390269313E+03  0.47000000000E+01 0. -1.
         -5    1    4    4    0  502  0.30861355196E+02 -0.21417108529E+02  0.78974536806E+02  0.87579582358E+02  0.47000000000E+01 0.  1.
<mgrwt>
<rscale>  0 0.10139005E+03</rscale>
<asrwt>0</asrwt>
<pdfrwt beam="1">  1        1 0.11464659E+00 0.10241850E+03</pdfrwt>
<pdfrwt beam="2">  1       -1 0.25401479E-02 0.10241850E+03</pdfrwt>
<totfact> 0.11609802E+04</totfact>
</mgrwt>
</event>
<event>
 8    1  0.9456677E-004  0.1190943E+03  0.7546771E-02  0.1245231E+00
          1   -1    0    0  501    0  0.00000000000E+00  0.00000000000E+00  0.66304127657E+02  0.66304127657E+02  0.00000000000E+00 0. -1.
         -1   -1    0    0    0  501 -0.00000000000E+00 -0.00000000000E+00 -0.29016396013E+03  0.29016396013E+03  0.00000000000E+00 0.  1.
         23    2    1    2    0    0 -0.23186947171E+01 -0.73375108819E+02 -0.20437863430E+03  0.23579098297E+03  0.91855748605E+02 0.  0.
         23    2    1    2    0    0  0.23186947171E+01  0.73375108819E+02 -0.19481198176E+02  0.12067710482E+03  0.93777201953E+02 0.  0.
          5    1    4    4  502    0  0.20359031884E+02  0.63148663979E+02  0.25251818904E+02  0.71147651398E+02  0.47000000000E+01 0. -1.
         -5    1    4    4    0  502 -0.18040337167E+02  0.10226444840E+02 -0.44733017080E+02  0.49529453422E+02  0.47000000000E+01 0.  1.
          5    1    3    3  503    0  0.31581642936E+02 -0.15161331785E+01 -0.28848609710E+02  0.43058461568E+02  0.47000000000E+01 0. -1.
         -5    1    3    3    0  503 -0.33900337654E+02 -0.71858975640E+02 -0.17553002459E+03  0.19273252140E+03  0.47000000000E+01 0.  1.
<mgrwt>
<rscale>  0 0.11871572E+03</rscale>
<asrwt>0</asrwt>
<pdfrwt beam="1">  1        1 0.10200635E-01 0.11909428E+03</pdfrwt>
<pdfrwt beam="2">  1       -1 0.44640608E-01 0.11909428E+03</pdfrwt>
<totfact> 0.30265995E+03</totfact>
</mgrwt>
</event>
<event>
 8    1  0.9456677E-004  0.1040321E+03  0.7546771E-02  0.1272906E+00
         -2   -1    0    0    0  501 -0.00000000000E+00  0.00000000000E+00  0.74411965704E+02  0.74411965704E+02  0.00000000000E+00 0.  1.
          2   -1    0    0  501    0  0.00000000000E+00 -0.00000000000E+00 -0.14338289096E+03  0.14338289096E+03  0.00000000000E+00 0. -1.
         23    2    1    2    0    0 -0.12276047248E+02 -0.44651774605E+02 -0.28884557444E+02  0.10630674560E+03  0.91226773427E+02 0.  0.
         23    2    1    2    0    0  0.12276047248E+02  0.44651774605E+02 -0.40086367814E+02  0.11148811107E+03  0.93156855428E+02 0.  0.
          5    1    3    3  502    0  0.26489688415E+02 -0.50321385826E+02 -0.34146704797E+02  0.66498367742E+02  0.47000000000E+01 0. -1.
         -5    1    3    3    0  502 -0.38765735664E+02  0.56696112210E+01  0.52621473531E+01  0.39808377858E+02  0.47000000000E+01 0.  1.
          5    1    4    4  503    0  0.86227826666E+01 -0.19899252164E+02 -0.41041124149E+02  0.46656151674E+02  0.47000000000E+01 0. -1.
         -5    1    4    4    0  503  0.36532645815E+01  0.64551026769E+02  0.95475633505E+00  0.64831959392E+02  0.47000000000E+01 0.  1.
<mgrwt>
<rscale>  0 0.10359824E+03</rscale>
<asrwt>0</asrwt>
<pdfrwt beam="1">  1        2 0.22058906E-01 0.10403212E+03</pdfrwt>
<pdfrwt beam="2">  1       -2 0.11447995E-01 0.10403212E+03</pdfrwt>
<totfact> 0.12115835E+04</totfact>
</mgrwt>
</event>
<event>
 8    1  0.9456677E-004  0.1135595E+03  0.7546771E-02  0.1254550E+00
         -2   -1    0    0    0  501 -0.00000000000E+00  0.00000000000E+00  0.52978833687E+02  0.52978833687E+02  0.00000000000E+00 0.  1.
          2   -1    0    0  501    0  0.00000000000E+00 -0.00000000000E+00 -0.25399177229E+03  0.25399177229E+03  0.00000000000E+00 0. -1.
         23    2    1    2    0    0  0.56419509597E+02  0.39205810370E+02 -0.66656149531E+02  0.13167688327E+03  0.90418486421E+02 0.  0.
         23    2    1    2    0    0 -0.56419509597E+02 -0.39205810370E+02 -0.13435678907E+03  0.17529372271E+03  0.89195772442E+02 0.  0.
          5    1    3    3  502    0  0.48594779028E+01 -0.27909965568E+02 -0.19008253755E+02  0.34438124431E+02  0.47000000000E+01 0. -1.
         -5    1    3    3    0  502  0.51560031695E+02  0.67115775938E+02 -0.47647895775E+02  0.97238758836E+02  0.47000000000E+01 0.  1.
          5    1    4    4  503    0  0.94443706597E+01 -0.32050708396E+02 -0.88140642779E+02  0.94378530161E+02  0.47000000000E+01 0. -1.
         -5    1    4    4    0  503 -0.65863880257E+02 -0.71551019745E+01 -0.46216146289E+02  0.80915192545E+02  0.47000000000E+01 0.  1.
<mgrwt>
<rscale>  0 0.11331593E+03</rscale>
<asrwt>0</asrwt>
<pdfrwt beam="1">  1        2 0.39075657E-01 0.11355950E+03</pdfrwt>
<pdfrwt beam="2">  1       -2 0.81505899E-02 0.11355950E+03</pdfrwt>
<totfact> 0.11180790E+04</totfact>
</mgrwt>
</event>
<event>
 8    1  0.9456677E-004  0.1254065E+03  0.7546771E-02  0.1234667E+00
         -4   -1    0    0    0  501 -0.00000000000E+00  0.00000000000E+00  0.30987014951E+03  0.30987014951E+03  0.00000000000E+00 0.  1.
          4   -1    0    0  501    0  0.00000000000E+00 -0.00000000000E+00 -0.82840132019E+02  0.82840132019E+02  0.00000000000E+00 0. -1.
         23    2    1    2    0    0  0.85171607986E+02  0.11900583846E+01  0.23634118773E+03  0.26755176360E+03  0.92038959898E+02 0.  0.
         23    2    1    2    0    0 -0.85171607986E+02 -0.11900583846E+01 -0.93111702369E+01  0.12515851794E+03  0.91226847338E+02 0.  0.
          5    1    3    3  502    0  0.87128511775E+01 -0.36618756156E+02  0.51867280940E+02  0.64258477341E+02  0.47000000000E+01 0. -1.
         -5    1    3    3    0  502  0.76458756809E+02  0.37808814540E+02  0.18447390679E+03  0.20329328626E+03  0.47000000000E+01 0.  1.
          5    1    4    4  503    0 -0.71889526527E+02  0.36502582494E+02 -0.20632131573E+02  0.83356567865E+02  0.47000000000E+01 0. -1.
         -5    1    4    4    0  503 -0.13282081459E+02 -0.37692640879E+02  0.11320961336E+02  0.41801950073E+02  0.47000000000E+01 0.  1.
<mgrwt>
<rscale>  0 0.12525753E+03</rscale>
<asrwt>0</asrwt>
<pdfrwt beam="1">  1        4 0.12744636E-01 0.12540650E+03</pdfrwt>
<pdfrwt beam="2">  1       -4 0.47672330E-01 0.12540650E+03</pdfrwt>
<totfact> 0.35078639E+02</totfact>
</mgrwt>
</event>
<event>
 8    1  0.9456677E-004  0.9222808E+02  0.7546771E-02  0.1297833E+00
          1   -1    0    0  501    0  0.00000000000E+00  0.00000000000E+00  0.55157563041E+02  0.55157563041E+02  0.00000000000E+00 0. -1.
         -1   -1    0    0    0  501 -0.00000000000E+00 -0.00000000000E+00 -0.22379699823E+03  0.22379699823E+03  0.00000000000E+00 0.  1.
         23    2    1    2    0    0 -0.98675185849E+01 -0.13663502486E+02 -0.62430193287E+01  0.92439138975E+02  0.90675023578E+02 0.  0.
         23    2    1    2    0    0  0.98675185849E+01  0.13663502486E+02 -0.16239641586E+03  0.18651542230E+03  0.90173985423E+02 0.  0.
          5    1    4    4  502    0  0.48312056654E+02  0.89706648303E+01 -0.65175616578E+02  0.81758660961E+02  0.47000000000E+01 0. -1.
         -5    1    3    3    0  503 -0.31876201207E+02  0.29335276599E+02 -0.58651359482E+00  0.43578488440E+02  0.47000000000E+01 0.  1.
          5    1    3    3  503    0  0.22008682622E+02 -0.42998779085E+02 -0.56565057339E+01  0.48860650534E+02  0.47000000000E+01 0. -1.
         -5    1    4    4    0  502 -0.38444538070E+02  0.46928376552E+01 -0.97220799283E+02  0.10475676134E+03  0.47000000000E+01 0.  1.
<mgrwt>
<rscale>  0 0.92104696E+02</rscale>
<asrwt>0</asrwt>
<pdfrwt beam="1">  1        1 0.84857788E-02 0.92228082E+02</pdfrwt>
<pdfrwt beam="2">  1       -1 0.34430308E-01 0.92228082E+02</pdfrwt>
<totfact> 0.59524082E+03</totfact>
</mgrwt>
</event>
<event>
 8    1  0.9456677E-004  0.1234673E+03  0.7546771E-02  0.1238232E+00
          2   -1    0    0  501    0  0.00000000000E+00  0.00000000000E+00  0.14292870081E+03  0.14292870081E+03  0.00000000000E+00 0.  1.
         -2   -1    0    0    0  501 -0.00000000000E+00 -0.00000000000E+00 -0.11524559937E+03  0.11524559937E+03  0.00000000000E+00 0. -1.
         23    2    1    2    0    0 -0.73124133462E+02  0.31898678691E+02  0.52143215143E+02  0.13230737868E+03  0.91769618991E+02 0.  0.
         23    2    1    2    0    0  0.73124133462E+02 -0.31898678691E+02 -0.24460113704E+02  0.12586692151E+03  0.94231205933E+02 0.  0.
          5    1    3    3  502    0 -0.40906076763E+02  0.12391045215E+02 -0.22528000193E+02  0.48543237535E+02  0.47000000000E+01 0. -1.
         -5    1    4    4    0  503 -0.73109665095E+01 -0.40079987413E+02  0.84097695009E+00  0.41020151932E+02  0.47000000000E+01 0.  1.
          5    1    4    4  503    0  0.80435099971E+02  0.81813087221E+01 -0.25301090654E+02  0.84846769580E+02  0.47000000000E+01 0. -1.
         -5    1    3    3    0  502 -0.32218056699E+02  0.19507633476E+02  0.74671215336E+02  0.83764141141E+02  0.47000000000E+01 0.  1.
<mgrwt>
<rscale>  0 0.12299759E+03</rscale>
<asrwt>0</asrwt>
<pdfrwt beam="1">  1        2 0.21989031E-01 0.12346734E+03</pdfrwt>
<pdfrwt beam="2">  1       -2 0.17730092E-01 0.12346734E+03</pdfrwt>
<totfact> 0.60732904E+03</totfact>
</mgrwt>
</event>
<event>
 8    1  0.9456677E-004  0.9105181E+02  0.7546771E-02  0.1300963E+00
          2   -1    0    0  501    0  0.00000000000E+00  0.00000000000E+00  0.12340861990E+03  0.12340861990E+03  0.00000000000E+00 0. -1.
         -2   -1    0    0    0  501 -0.00000000000E+00 -0.00000000000E+00 -0.17198802928E+03  0.17198802928E+03  0.00000000000E+00 0.  1.
         23    2    1    2    0    0  0.72094829135E+00 -0.11286210630E+02 -0.14007354410E+03  0.16706594702E+03  0.90346746373E+02 0.  0.
         23    2    1    2    0    0 -0.72094829135E+00  0.11286210630E+02  0.91494134720E+02  0.12833070216E+03  0.89273143284E+02 0.  0.
          5    1    4    4  502    0 -0.35278465807E+02  0.46000597757E+01  0.84954132098E+02  0.92222693846E+02  0.47000000000E+01 0. -1.
         -5    1    3    3    0  503 -0.18830554440E+02 -0.45021607612E+02 -0.57049994731E+02  0.75221850757E+02  0.47000000000E+01 0.  1.
          5    1    3    3  503    0  0.19551502732E+02  0.33735396981E+02 -0.83023549371E+02  0.91844096265E+02  0.47000000000E+01 0. -1.
         -5    1    4    4    0  502  0.34557517515E+02  0.66861508547E+01  0.65400026215E+01  0.36108008313E+02  0.47000000000E+01 0.  1.
<mgrwt>
<rscale>  0 0.90784340E+02</rscale>
<asrwt>0</asrwt>
<pdfrwt beam="1">  1        2 0.18985942E-01 0.91051814E+02</pdfrwt>
<pdfrwt beam="2">  1       -2 0.26459697E-01 0.91051814E+02</pdfrwt>
<totfact> 0.35469800E+03</totfact>
</mgrwt>
</event>
<event>
 8    1  0.9456677E-004  0.1059911E+03  0.7546771E-02  0.1271007E+00
          1   -1    0    0  501    0  0.00000000000E+00  0.00000000000E+00  0.27316267785E+03  0.27316267785E+03  0.00000000000E+00 0. -1.
         -1   -1    0    0    0  501 -0.00000000000E+00 -0.00000000000E+00 -0.39827380324E+02  0.39827380324E+02  0.00000000000E+00 0.  1.
         23    2    1    2    0    0  0.52467396085E+02  0.13958707972E+02  0.13656128682E+03  0.16946540186E+03  0.84391138083E+02 0.  0.
         23    2    1    2    0    0 -0.52467396085E+02 -0.13958707972E+02  0.96774010701E+02  0.14352465632E+03  0.91029910708E+02 0.  0.
          5    1    3    3  502    0  0.64800695379E+01 -0.32252982035E+02  0.61730571596E+02  0.70107058282E+02  0.47000000000E+01 0. -1.
         -5    1    4    4    0  503  0.21637222632E+02  0.63774951415E+00  0.19943433145E+01  0.22240583017E+02  0.47000000000E+01 0.  1.
          5    1    4    4  503    0 -0.74104618718E+02 -0.14596457486E+02  0.94779667386E+02  0.12128407330E+03  0.47000000000E+01 0. -1.
         -5    1    3    3    0  502  0.45987326547E+02  0.46211690007E+02  0.74830715227E+02  0.99358343574E+02  0.47000000000E+01 0.  1.
<mgrwt>
<rscale>  0 0.10455103E+03</rscale>
<asrwt>0</asrwt>
<pdfrwt beam="1">  1        1 0.42025026E-01 0.10599112E+03</pdfrwt>
<pdfrwt beam="2">  1       -1 0.61272895E-02 0.10599112E+03</pdfrwt>
<totfact> 0.11780243E+04</totfact>
</mgrwt>
</event>
<event>
 8    1  0.9456677E-004  0.8915112E+02  0.7546771E-02  0.1309106E+00
         -2   -1    0    0    0  501 -0.00000000000E+00  0.00000000000E+00  0.33423016064E+03  0.33423016064E+03  0.00000000000E+00 0.  1.
          2   -1    0    0  501    0  0.00000000000E+00 -0.00000000000E+00 -0.38943446717E+02  0.38943446717E+02  0.00000000000E+00 0. -1.
         23    2    1    2    0    0  0.96689360961E+01  0.81367511650E+00  0.26724086811E+03  0.27971510052E+03  0.82028686950E+02 0.  0.
         23    2    1    2    0    0 -0.96689360961E+01 -0.81367511650E+00  0.28045845819E+02  0.93458506835E+02  0.88621513413E+02 0.  0.
          5    1    3    3  502    0 -0.32928186524E+02 -0.12294288955E+02  0.15164320850E+03  0.15573428554E+03  0.47000000000E+01 0. -1.
         -5    1    4    4    0  503  0.28552700564E+02 -0.15565849848E+02 -0.12942582683E+02  0.35315051147E+02  0.47000000000E+01 0.  1.
          5    1    4    4  503    0 -0.38221636660E+02  0.14752174731E+02  0.40988428502E+02  0.58143455688E+02  0.47000000000E+01 0. -1.
         -5    1    3    3    0  502  0.42597122620E+02  0.13107964071E+02  0.11559765961E+03  0.12398081498E+03  0.47000000000E+01 0.  1.
<mgrwt>
<rscale>  0 0.87466328E+02</rscale>
<asrwt>0</asrwt>
<pdfrwt beam="1">  1        2 0.59912997E-02 0.89151125E+02</pdfrwt>
<pdfrwt beam="2">  1       -2 0.51420023E-01 0.89151125E+02</pdfrwt>
<totfact> 0.41356697E+03</totfact>
</mgrwt>
</event>
<event>
 8    1  0.9456677E-004  0.9612110E+02  0.7546771E-02  0.1289683E+00
          2   -1    0    0  501    0  0.00000000000E+00  0.00000000000E+00  0.23228563906E+03  0.23228563906E+03  0.00000000000E+00 0. -1.
         -2   -1    0    0    0  501 -0.00000000000E+00 -0.00000000000E+00 -0.39555495991E+02  0.39555495991E+02  0.00000000000E+00 0.  1.
         23    2    1    2    0    0  0.18533960871E+01  0.25965396677E+02  0.11110738135E+03  0.14573982339E+03  0.90651028845E+02 0.  0.
         23    2    1    2    0    0 -0.18533960871E+01 -0.25965396677E+02  0.81622761719E+02  0.12610131166E+03  0.92529069321E+02 0.  0.
          5    1    4    4  502    0 -0.31904334530E+02 -0.29084958888E+02  0.84888269309E+02  0.95351610692E+02  0.47000000000E+01 0. -1.
         -5    1    4    4    0  502  0.30050938442E+02  0.31195622104E+01 -0.32655075896E+01  0.30749700966E+02  0.47000000000E+01 0.  1.
          5    1    3    3  503    0  0.34000727328E+01 -0.27031616001E+02  0.78718747676E+02  0.83432607498E+02  0.47000000000E+01 0. -1.
         -5    1    3    3    0  503 -0.15466766457E+01  0.52997012678E+02  0.32388633676E+02  0.62307215897E+02  0.47000000000E+01 0.  1.
<mgrwt>
<rscale>  0 0.95666258E+02</rscale>
<asrwt>0</asrwt>
<pdfrwt beam="1">  1        2 0.35736251E-01 0.96121098E+02</pdfrwt>
<pdfrwt beam="2">  1       -2 0.60854611E-02 0.96121098E+02</pdfrwt>
<totfact> 0.18869840E+04</totfact>
</mgrwt>
</event>
<event>
 8    1  0.9456677E-004  0.1051830E+03  0.7546771E-02  0.1271271E+00
         -1   -1    0    0    0  501 -0.00000000000E+00  0.00000000000E+00  0.41317745582E+03  0.41317745582E+03  0.00000000000E+00 0.  1.
          1   -1    0    0  501    0  0.00000000000E+00 -0.00000000000E+00 -0.34387269400E+02  0.34387269400E+02  0.00000000000E+00 0. -1.
         23    2    1    2    0    0 -0.19595821136E+02  0.44855902344E+02  0.76867090929E+02  0.12784450155E+03  0.89663920987E+02 0.  0.
         23    2    1    2    0    0  0.19595821136E+02 -0.44855902344E+02  0.30192309549E+03  0.31972022368E+03  0.93098966989E+02 0.  0.
          5    1    3    3  502    0 -0.46297830072E+02  0.55685495583E+02  0.59738874412E+02  0.93995673324E+02  0.47000000000E+01 0. -1.
         -5    1    3    3    0  502  0.26702008936E+02 -0.10829593239E+02  0.17128216517E+02  0.33848828222E+02  0.47000000000E+01 0.  1.
          5    1    4    4  503    0  0.16387911672E+02  0.24406686680E+02  0.14609515431E+03  0.14909773344E+03  0.47000000000E+01 0. -1.
         -5    1    4    4    0  503  0.32079094632E+01 -0.69262589024E+02  0.15582794118E+03  0.17062249023E+03  0.47000000000E+01 0.  1.
<mgrwt>
<rscale>  0 0.10441772E+03</rscale>
<asrwt>0</asrwt>
<pdfrwt beam="1">  1        1 0.52903494E-02 0.10518301E+03</pdfrwt>
<pdfrwt beam="2">  1       -1 0.63565759E-01 0.10518301E+03</pdfrwt>
<totfact> 0.37697646E+03</totfact>
</mgrwt>
</event>
<event>
 8    1  0.9456677E-004  0.9656650E+02  0.7546771E-02  0.1289228E+00
          1   -1    0    0  501    0  0.00000000000E+00  0.00000000000E+00  0.78015355466E+03  0.78015355466E+03  0.00000000000E+00 0. -1.
         -1   -1    0    0    0  501 -0.00000000000E+00 -0.00000000000E+00 -0.12922651052E+02  0.12922651052E+02  0.00000000000E+00 0.  1.
         23    2    1    2    0    0 -0.33405813534E+02 -0.18193948889E+02  0.25246384409E+03  0.26932987851E+03  0.85753266588E+02 0.  0.
         23    2    1    2    0    0  0.33405813534E+02  0.18193948889E+02  0.51476705952E+03  0.52374632720E+03  0.88758782889E+02 0.  0.
          5    1    4    4  502    0  0.21374187292E+02  0.43066703453E+02  0.45692779625E+03  0.45947437123E+03  0.47000000000E+01 0. -1.
         -5    1    3    3    0  503 -0.58994752379E+02 -0.29730480853E+01  0.12476384367E+03  0.13812069544E+03  0.47000000000E+01 0.  1.
          5    1    3    3  503    0  0.25588938845E+02 -0.15220900804E+02  0.12770000042E+03  0.13120918307E+03  0.47000000000E+01 0. -1.
         -5    1    4    4    0  502  0.12031626242E+02 -0.24872754564E+02  0.57839263270E+02  0.64271955978E+02  0.47000000000E+01 0.  1.
<mgrwt>
<rscale>  0 0.95870250E+02</rscale>
<asrwt>0</asrwt>
<pdfrwt beam="1">  1        1 0.12002359E+00 0.96566504E+02</pdfrwt>
<pdfrwt beam="2">  1       -1 0.19881008E-02 0.96566504E+02</pdfrwt>
<totfact> 0.15359646E+04</totfact>
</mgrwt>
</event>
<event>
 8    1  0.9456677E-004  0.1035429E+03  0.7546771E-02  0.1273962E+00
         -1   -1    0    0    0  501 -0.00000000000E+00  0.00000000000E+00  0.53587772565E+02  0.53587772565E+02  0.00000000000E+00 0.  1.
          1   -1    0    0  501    0  0.00000000000E+00 -0.00000000000E+00 -0.22449586518E+03  0.22449586518E+03  0.00000000000E+00 0. -1.
         23    2    1    2    0    0 -0.19558220644E+02 -0.41486713920E+02 -0.37017216987E+02  0.10996088663E+03  0.92830225725E+02 0.  0.
         23    2    1    2    0    0  0.19558220644E+02  0.41486713920E+02 -0.13389087563E+03  0.16812275112E+03  0.90745916933E+02 0.  0.
          5    1    3    3  502    0 -0.11682615547E+02  0.20054478278E+02 -0.41284635958E+02  0.47593873253E+02  0.47000000000E+01 0. -1.
         -5    1    4    4    0  503 -0.25098159321E+02  0.21151165369E+02 -0.97612914322E+01  0.34563885896E+02  0.47000000000E+01 0.  1.
          5    1    4    4  503    0  0.44656379966E+02  0.20335548551E+02 -0.12412958420E+03  0.13355886522E+03  0.47000000000E+01 0. -1.
         -5    1    3    3    0  502 -0.78756050970E+01 -0.61541192198E+02  0.42674189717E+01  0.62367013376E+02  0.47000000000E+01 0.  1.
<mgrwt>
<rscale>  0 0.10307355E+03</rscale>
<asrwt>0</asrwt>
<pdfrwt beam="1">  1        1 0.34537824E-01 0.10354285E+03</pdfrwt>
<pdfrwt beam="2">  1       -1 0.82442730E-02 0.10354285E+03</pdfrwt>
<totfact> 0.96099454E+03</totfact>
</mgrwt>
</event>
<event>
 7    1  0.9456677E-004  0.1698352E+03  0.7546771E-02  0.1203464E+00
          2   -1    0    0  501    0  0.00000000000E+00  0.00000000000E+00  0.11732354412E+04  0.11732354412E+04  0.00000000000E+00 0. -1.
         -2   -1    0    0    0  501 -0.00000000000E+00 -0.00000000000E+00 -0.17473345316E+02  0.17473345316E+02  0.00000000000E+00 0.  1.
         23    2    1    2    0    0  0.44261264162E+02 -0.16632898957E+02  0.65036534021E+03  0.65753914137E+03  0.84539540171E+02 0.  0.
          5    1    3    3  502    0  0.60650546720E+02  0.13420294274E+02  0.42405777598E+03  0.42860900654E+03  0.47000000000E+01 0. -1.
         -5    1    3    3    0  502 -0.16389282558E+02 -0.30053193231E+02  0.22630756422E+03  0.22893013482E+03  0.47000000000E+01 0.  1.
          5    1    1    2  503    0 -0.22121139058E+02  0.72594144988E+02  0.42957772084E+03  0.43625492882E+03  0.47000000000E+01 0. -1.
         -5    1    1    2    0  503 -0.22140125104E+02 -0.55961246031E+02  0.75819034828E+02  0.96914716319E+02  0.47000000000E+01 0.  1.
<mgrwt>
<rscale>  0 0.14759153E+03</rscale>
<asrwt>0</asrwt>
<pdfrwt beam="1">  1        2 0.18049770E+00 0.16983518E+03</pdfrwt>
<pdfrwt beam="2">  1       -2 0.26882079E-02 0.16983518E+03</pdfrwt>
<totfact> 0.10109095E+04</totfact>
</mgrwt>
</event>
<event>
 8    1  0.9456677E-004  0.1171234E+03  0.7546771E-02  0.1251472E+00
         -1   -1    0    0    0  501 -0.00000000000E+00  0.00000000000E+00  0.14229366720E+03  0.14229366720E+03  0.00000000000E+00 0.  1.
          1   -1    0    0  501    0  0.00000000000E+00 -0.00000000000E+00 -0.98576131063E+02  0.98576131063E+02  0.00000000000E+00 0. -1.
         23    2    1    2    0    0  0.44185589697E+02 -0.37499320937E+02 -0.14535628960E+02  0.11005958600E+03  0.92429770922E+02 0.  0.
         23    2    1    2    0    0 -0.44185589697E+02  0.37499320937E+02  0.58253165102E+02  0.13081021227E+03  0.10178072009E+03 0.  0.
          5    1    3    3  502    0  0.40316209982E+02  0.23576473062E+02 -0.12812570608E+02  0.48656950531E+02  0.47000000000E+01 0. -1.
         -5    1    4    4    0  503 -0.43882097921E+02 -0.23762333092E+02  0.46259967532E+02  0.68208222290E+02  0.47000000000E+01 0.  1.
          5    1    4    4  503    0 -0.30349177608E+00  0.61261654029E+02  0.11993197570E+02  0.62601989981E+02  0.47000000000E+01 0. -1.
         -5    1    3    3    0  502  0.38693797154E+01 -0.61075793999E+02 -0.17230583520E+01  0.61402635466E+02  0.47000000000E+01 0.  1.
<mgrwt>
<rscale>  0 0.11506264E+03</rscale>
<asrwt>0</asrwt>
<pdfrwt beam="1">  1        1 0.15165559E-01 0.11712336E+03</pdfrwt>
<pdfrwt beam="2">  1       -1 0.21891333E-01 0.11712336E+03</pdfrwt>
<totfact> 0.59999573E+03</totfact>
</mgrwt>
</event>
<event>
 8    1  0.9456677E-004  0.1062425E+03  0.7546771E-02  0.1268485E+00
         -2   -1    0    0    0  501 -0.00000000000E+00  0.00000000000E+00  0.18397959181E+03  0.18397959181E+03  0.00000000000E+00 0.  1.
          2   -1    0    0  501    0  0.00000000000E+00 -0.00000000000E+00 -0.23425782590E+03  0.23425782590E+03  0.00000000000E+00 0. -1.
         23    2    1    2    0    0  0.49903078674E+02 -0.17205552090E+02  0.15495410837E+03  0.18787826947E+03  0.92201519274E+02 0.  0.
         23    2    1    2    0    0 -0.49903078674E+02  0.17205552090E+02 -0.20523234246E+03  0.23035914823E+03  0.90325381258E+02 0.  0.
          5    1    3    3  502    0  0.16276992844E+02  0.34725165126E+02  0.32047136771E+02  0.50198471733E+02  0.47000000000E+01 0. -1.
         -5    1    4    4    0  503  0.26134176880E+02  0.31871337469E+01 -0.44123116481E+02  0.51595469091E+02  0.47000000000E+01 0.  1.
          5    1    4    4  503    0 -0.76037255554E+02  0.14018418343E+02 -0.16110922598E+03  0.17876367914E+03  0.47000000000E+01 0. -1.
         -5    1    3    3    0  502  0.33626085829E+02 -0.51930717217E+02  0.12290697160E+03  0.13767979774E+03  0.47000000000E+01 0.  1.
<mgrwt>
<rscale>  0 0.10583414E+03</rscale>
<asrwt>0</asrwt>
<pdfrwt beam="1">  1        2 0.36039665E-01 0.10624250E+03</pdfrwt>
<pdfrwt beam="2">  1       -2 0.28304553E-01 0.10624250E+03</pdfrwt>
<totfact> 0.15809531E+03</totfact>
</mgrwt>
</event>
<event>
 8    1  0.9456677E-004  0.1376119E+03  0.7546771E-02  0.1216741E+00
          3   -1    0    0  501    0  0.00000000000E+00  0.00000000000E+00  0.56447540934E+02  0.56447540934E+02  0.00000000000E+00 0. -1.
         -3   -1    0    0    0  501 -0.00000000000E+00 -0.00000000000E+00 -0.71372182400E+03  0.71372182400E+03  0.00000000000E+00 0.  1.
         23    2    1    2    0    0 -0.16648118133E+02  0.10194327857E+03 -0.48142403854E+02  0.14579002347E+03  0.90925508040E+02 0.  0.
         23    2    1    2    0    0  0.16648118133E+02 -0.10194327857E+03 -0.60913187922E+03  0.62437934147E+03  0.90212659243E+02 0.  0.
          5    1    3    3  502    0  0.11494992703E+02  0.22367776804E+02  0.23681427214E+02  0.34861903151E+02  0.47000000000E+01 0. -1.
         -5    1    3    3    0  502 -0.28143110836E+02  0.79575501768E+02 -0.71823831068E+02  0.11092812032E+03  0.47000000000E+01 0.  1.
          5    1    4    4  503    0  0.50131383678E+02 -0.46053487719E+02 -0.23997692059E+03  0.24948966267E+03  0.47000000000E+01 0. -1.
         -5    1    4    4    0  503 -0.33483265545E+02 -0.55889790853E+02 -0.36915495862E+03  0.37488967880E+03  0.47000000000E+01 0.  1.
<mgrwt>
<rscale>  0 0.13749428E+03</rscale>
<asrwt>0</asrwt>
<pdfrwt beam="1">  1        3 0.86842372E-02 0.13761192E+03</pdfrwt>
<pdfrwt beam="2">  1       -3 0.10980336E+00 0.13761192E+03</pdfrwt>
<totfact> 0.15936443E+02</totfact>
</mgrwt>
</event>
<event>
 8    1  0.9456677E-004  0.9359936E+02  0.7546771E-02  0.1294933E+00
          3   -1    0    0  501    0  0.00000000000E+00  0.00000000000E+00  0.44203642211E+02  0.44203642211E+02  0.00000000000E+00 0. -1.
         -3   -1    0    0    0  501 -0.00000000000E+00 -0.00000000000E+00 -0.19747729811E+03  0.19747729811E+03  0.00000000000E+00 0.  1.
         23    2    1    2    0    0 -0.80264050770E+01  0.15399056852E+02 -0.66157840894E+02  0.11381379703E+03  0.90967941344E+02 0.  0.
         23    2    1    2    0    0  0.80264050770E+01 -0.15399056852E+02 -0.87115815008E+02  0.12786714329E+03  0.91974382188E+02 0.  0.
          5    1    4    4  502    0 -0.33561584462E+02 -0.18797322664E+02 -0.99401515255E+01  0.40007698050E+02  0.47000000000E+01 0. -1.
         -5    1    3    3    0  503  0.15817968549E+02 -0.28415057244E+02 -0.27128169507E+01  0.32970789845E+02  0.47000000000E+01 0.  1.
          5    1    3    3  503    0 -0.23844373626E+02  0.43814114096E+02 -0.63445023944E+02  0.80843007186E+02  0.47000000000E+01 0. -1.
         -5    1    4    4    0  502  0.41587989539E+02  0.33982658119E+01 -0.77175663482E+02  0.87859445242E+02  0.47000000000E+01 0.  1.
<mgrwt>
<rscale>  0 0.93351185E+02</rscale>
<asrwt>0</asrwt>
<pdfrwt beam="1">  1        3 0.68005603E-02 0.93599365E+02</pdfrwt>
<pdfrwt beam="2">  1       -3 0.30381123E-01 0.93599365E+02</pdfrwt>
<totfact> 0.30935201E+03</totfact>
</mgrwt>
</event>
<event>
 8    1  0.9456677E-004  0.9688772E+02  0.7546771E-02  0.1287682E+00
          1   -1    0    0  501    0  0.00000000000E+00  0.00000000000E+00  0.17410174697E+03  0.17410174697E+03  0.00000000000E+00 0. -1.
         -1   -1    0    0    0  501 -0.00000000000E+00 -0.00000000000E+00 -0.12532593453E+03  0.12532593453E+03  0.00000000000E+00 0.  1.
         23    2    1    2    0    0  0.14768113159E+00 -0.31490742751E+02  0.13788450392E+03  0.16779338148E+03  0.90281746548E+02 0.  0.
         23    2    1    2    0    0 -0.14768113159E+00  0.31490742751E+02 -0.89108691467E+02  0.13163430002E+03  0.91627186785E+02 0.  0.
          5    1    3    3  502    0  0.28484155358E+02 -0.33293406014E+02  0.13098334628E+03  0.13819741312E+03  0.47000000000E+01 0. -1.
         -5    1    4    4    0  503 -0.14975877689E+02  0.54043369511E+02 -0.87697347987E+02  0.10420113984E+03  0.47000000000E+01 0.  1.
          5    1    4    4  503    0  0.14828196558E+02 -0.22552626760E+02 -0.14113434802E+01  0.27433160178E+02  0.47000000000E+01 0. -1.
         -5    1    3    3    0  502 -0.28336474227E+02  0.18026632633E+01  0.69011576358E+01  0.29595968360E+02  0.47000000000E+01 0.  1.
<mgrwt>
<rscale>  0 0.96568295E+02</rscale>
<asrwt>0</asrwt>
<pdfrwt beam="1">  1        1 0.26784884E-01 0.96887719E+02</pdfrwt>
<pdfrwt beam="2">  1       -1 0.19280913E-01 0.96887719E+02</pdfrwt>
<totfact> 0.35414446E+03</totfact>
</mgrwt>
</event>
<event>
 8    1  0.9456677E-004  0.1171718E+03  0.7546771E-02  0.1254938E+00
          1   -1    0    0  501    0  0.00000000000E+00  0.00000000000E+00  0.89654086416E+03  0.89654086416E+03  0.00000000000E+00 0. -1.
         -1   -1    0    0    0  501 -0.00000000000E+00 -0.00000000000E+00 -0.13650140343E+02  0.13650140343E+02  0.00000000000E+00 0.  1.
         23    2    1    2    0    0  0.22216687167E+02 -0.48819716475E+02  0.47720110562E+03  0.48791941818E+03  0.86414799278E+02 0.  0.
         23    2    1    2    0    0 -0.22216687167E+02  0.48819716475E+02  0.40568961820E+03  0.42227158632E+03  0.10417427893E+03 0.  0.
          5    1    4    4  502    0 -0.37157079393E+02  0.10273297550E+02  0.35302392060E+03  0.35515372405E+03  0.47000000000E+01 0. -1.
         -5    1    3    3    0  503  0.19672304335E+01 -0.66445551137E+02  0.23744926587E+03  0.24662344804E+03  0.47000000000E+01 0.  1.
          5    1    3    3  503    0  0.20249456734E+02  0.17625834662E+02  0.23975183975E+03  0.24129597014E+03  0.47000000000E+01 0. -1.
         -5    1    4    4    0  502  0.14940392225E+02  0.38546418925E+02  0.52665697605E+02  0.67117862272E+02  0.47000000000E+01 0.  1.
<mgrwt>
<rscale>  0 0.11309822E+03</rscale>
<asrwt>0</asrwt>
<pdfrwt beam="1">  1        1 0.13792932E+00 0.11717178E+03</pdfrwt>
<pdfrwt beam="2">  1       -1 0.21000223E-02 0.11717178E+03</pdfrwt>
<totfact> 0.11659582E+04</totfact>
</mgrwt>
</event>
<event>
 8    1  0.9456677E-004  0.1075674E+03  0.7546771E-02  0.1267197E+00
          1   -1    0    0  501    0  0.00000000000E+00  0.00000000000E+00  0.28495647707E+02  0.28495647707E+02  0.00000000000E+00 0. -1.
         -1   -1    0    0    0  501 -0.00000000000E+00 -0.00000000000E+00 -0.39115757305E+03  0.39115757305E+03  0.00000000000E+00 0.  1.
         23    2    1    2    0    0 -0.49872563358E+02 -0.73090956327E+01 -0.19481294351E+03  0.22253723520E+03  0.95026536483E+02 0.  0.
         23    2    1    2    0    0  0.49872563358E+02  0.73090956327E+01 -0.16784898184E+03  0.19711598556E+03  0.90226025100E+02 0.  0.
          5    1    3    3  502    0  0.25884331691E+02 -0.15505768857E+02 -0.44836455402E+02  0.54247813117E+02  0.47000000000E+01 0. -1.
         -5    1    4    4    0  503  0.21108300283E+02 -0.40885164753E+02 -0.63802946614E+02  0.78803953164E+02  0.47000000000E+01 0.  1.
          5    1    4    4  503    0  0.28764263075E+02  0.48194260385E+02 -0.10404603522E+03  0.11831203240E+03  0.47000000000E+01 0. -1.
         -5    1    3    3    0  502 -0.75756895049E+02  0.81966732245E+01 -0.14997648810E+03  0.16828942208E+03  0.47000000000E+01 0.  1.
<mgrwt>
<rscale>  0 0.10649742E+03</rscale>
<asrwt>0</asrwt>
<pdfrwt beam="1">  1        1 0.43839455E-02 0.10756737E+03</pdfrwt>
<pdfrwt beam="2">  1       -1 0.60178093E-01 0.10756737E+03</pdfrwt>
<totfact> 0.54095871E+03</totfact>
</mgrwt>
</event>
<event>
 8    1  0.9456677E-004  0.1021749E+03  0.7546771E-02  0.1276700E+00
          1   -1    0    0  501    0  0.00000000000E+00  0.00000000000E+00  0.14954632983E+03  0.14954632983E+03  0.00000000000E+00 0. -1.
         -1   -1    0    0    0  501 -0.00000000000E+00 -0.00000000000E+00 -0.69912096632E+02  0.69912096632E+02  0.00000000000E+00 0.  1.
         23    2    1    2    0    0 -0.22586320902E+02 -0.37740556456E+02  0.25156942621E+02  0.10522629236E+03  0.92223691904E+02 0.  0.
         23    2    1    2    0    0  0.22586320902E+02  0.37740556456E+02  0.54477290576E+02  0.11423213410E+03  0.90259147898E+02 0.  0.
          5    1    3    3  502    0 -0.50340596373E+02 -0.46925434311E+02  0.45078257586E+01  0.69127292162E+02  0.47000000000E+01 0. -1.
         -5    1    4    4    0  503  0.30146062146E+02 -0.19956928145E+02  0.33184912346E+01  0.36608283598E+02  0.47000000000E+01 0.  1.
          5    1    4    4  503    0 -0.75597412437E+01  0.57697484600E+02  0.51158799342E+02  0.77623850503E+02  0.47000000000E+01 0. -1.
         -5    1    3    3    0  502  0.27754275471E+02  0.91848778556E+01  0.20649116863E+02  0.36099000199E+02  0.47000000000E+01 0.  1.
<mgrwt>
<rscale>  0 0.10172954E+03</rscale>
<asrwt>0</asrwt>
<pdfrwt beam="1">  1        1 0.23007128E-01 0.10217485E+03</pdfrwt>
<pdfrwt beam="2">  1       -1 0.10755707E-01 0.10217485E+03</pdfrwt>
<totfact> 0.10619990E+04</totfact>
</mgrwt>
</event>
<event>
 8    1  0.9456677E-004  0.2458609E+03  0.7546771E-02  0.1116115E+00
         -2   -1    0    0    0  501 -0.00000000000E+00  0.00000000000E+00  0.61134976165E+02  0.61134976165E+02  0.00000000000E+00 0.  1.
          2   -1    0    0  501    0  0.00000000000E+00 -0.00000000000E+00 -0.14487725658E+04  0.14487725658E+04  0.00000000000E+00 0. -1.
         23    2    1    2    0    0  0.10094705017E+03 -0.20385706117E+03 -0.11201425802E+04  0.11465879026E+04  0.90534026937E+02 0.  0.
         23    2    1    2    0    0 -0.10094705017E+03  0.20385706117E+03 -0.26749500947E+03  0.36331963942E+03  0.93271496022E+02 0.  0.
          5    1    3    3  502    0  0.25976284035E+02 -0.14987295949E+03 -0.71605286341E+03  0.73204539785E+03  0.47000000000E+01 0. -1.
         -5    1    4    4    0  503 -0.33313749656E+02  0.16269175808E+03 -0.19072634850E+03  0.25293683812E+03  0.47000000000E+01 0.  1.
          5    1    4    4  503    0 -0.67633300515E+02  0.41165303094E+02 -0.76768660965E+02  0.11038280130E+03  0.47000000000E+01 0. -1.
         -5    1    3    3    0  502  0.74970766136E+02 -0.53984101686E+02 -0.40408971679E+03  0.41454250473E+03  0.47000000000E+01 0.  1.
<mgrwt>
<rscale>  0 0.24560414E+03</rscale>
<asrwt>0</asrwt>
<pdfrwt beam="1">  1        2 0.22288807E+00 0.24586090E+03</pdfrwt>
<pdfrwt beam="2">  1       -2 0.94053818E-02 0.24586090E+03</pdfrwt>
<totfact> 0.10677541E+03</totfact>
</mgrwt>
</event>
<event>
 8    1  0.9456677E-004  0.1019946E+03  0.7546771E-02  0.1276660E+00
          1   -1    0    0  501    0  0.00000000000E+00  0.00000000000E+00  0.27678925613E+03  0.27678925613E+03  0.00000000000E+00 0. -1.
         -1   -1    0    0    0  501 -0.00000000000E+00 -0.00000000000E+00 -0.48240613250E+02  0.48240613250E+02  0.00000000000E+00 0.  1.
         23    2    1    2    0    0  0.10172097452E+02 -0.44912930050E+02  0.19150893741E+03  0.21651791579E+03  0.89909353795E+02 0.  0.
         23    2    1    2    0    0 -0.10172097452E+02  0.44912930050E+02  0.37039705471E+02  0.10851195359E+03  0.91006930712E+02 0.  0.
          5    1    4    4  502    0 -0.12329449168E+02  0.68667158300E+02  0.76047650725E+01  0.70335740542E+02  0.47000000000E+01 0. -1.
         -5    1    3    3    0  503 -0.19170404352E+02 -0.56636117026E+02  0.76805583862E+02  0.97449175816E+02  0.47000000000E+01 0. -1.
          5    1    3    3  503    0  0.29342501804E+02  0.11723186976E+02  0.11470335354E+03  0.11906873997E+03  0.47000000000E+01 0. -1.
         -5    1    4    4    0  502  0.21573517156E+01 -0.23754228250E+02  0.29434940399E+02  0.38176213045E+02  0.47000000000E+01 0.  1.
<mgrwt>
<rscale>  0 0.10174921E+03</rscale>
<asrwt>0</asrwt>
<pdfrwt beam="1">  1        1 0.42582961E-01 0.10199463E+03</pdfrwt>
<pdfrwt beam="2">  1       -1 0.74216330E-02 0.10199463E+03</pdfrwt>
<totfact> 0.86898575E+03</totfact>
</mgrwt>
</event>
<event>
 8    1  0.9456677E-004  0.9604576E+02  0.7546771E-02  0.1288882E+00
         -2   -1    0    0    0  501 -0.00000000000E+00  0.00000000000E+00  0.56956870615E+02  0.56956870615E+02  0.00000000000E+00 0.  1.
          2   -1    0    0  501    0  0.00000000000E+00 -0.00000000000E+00 -0.16182844829E+03  0.16182844829E+03  0.00000000000E+00 0. -1.
         23    2    1    2    0    0 -0.17391702665E+02  0.26392248005E+02 -0.52355097647E+02  0.10938849828E+03  0.90696004487E+02 0.  0.
         23    2    1    2    0    0  0.17391702665E+02 -0.26392248005E+02 -0.52516480025E+02  0.10939682062E+03  0.90612701163E+02 0.  0.
          5    1    4    4  502    0 -0.44396323472E+01  0.27765153902E+02  0.30293990423E+01  0.28668473366E+02  0.47000000000E+01 0. -1.
         -5    1    3    3    0  503 -0.42351007395E+02  0.10376604691E+02  0.55060415549E+01  0.44200545765E+02  0.47000000000E+01 0.  1.
          5    1    3    3  503    0  0.24959304729E+02  0.16015643313E+02 -0.57861139202E+02  0.65187952515E+02  0.47000000000E+01 0. -1.
         -5    1    4    4    0  502  0.21831335013E+02 -0.54157401906E+02 -0.55545879068E+02  0.80728347258E+02  0.47000000000E+01 0.  1.
<mgrwt>
<rscale>  0 0.96026085E+02</rscale>
<asrwt>0</asrwt>
<pdfrwt beam="1">  1        2 0.24896684E-01 0.96045756E+02</pdfrwt>
<pdfrwt beam="2">  1       -2 0.87625956E-02 0.96045756E+02</pdfrwt>
<totfact> 0.15967025E+04</totfact>
</mgrwt>
</event>
<event>
 8    1  0.9456677E-004  0.1006905E+03  0.7546771E-02  0.1281104E+00
          2   -1    0    0  501    0  0.00000000000E+00  0.00000000000E+00  0.74069785325E+03  0.74069785325E+03  0.00000000000E+00 0. -1.
         -2   -1    0    0    0  501 -0.00000000000E+00 -0.00000000000E+00 -0.13141351378E+02  0.13141351378E+02  0.00000000000E+00 0.  1.
         23    2    1    2    0    0  0.66125479328E+01  0.32510810563E+02  0.34055437006E+03  0.35395268780E+03  0.90578958049E+02 0.  0.
         23    2    1    2    0    0 -0.66125479328E+01 -0.32510810563E+02  0.38700213181E+03  0.39988651683E+03  0.95067858500E+02 0.  0.
          5    1    3    3  502    0  0.38112096522E+02 -0.10566788591E+02  0.19057956211E+03  0.19469681152E+03  0.47000000000E+01 0. -1.
         -5    1    3    3    0  502 -0.31499548589E+02  0.43077599154E+02  0.14997480795E+03  0.15925587628E+03  0.47000000000E+01 0.  1.
          5    1    4    4  503    0 -0.25914019504E+02 -0.41148560412E+02  0.36751794095E+03  0.37075095058E+03  0.47000000000E+01 0. -1.
         -5    1    4    4    0  503  0.19301471571E+02  0.86377498496E+01  0.19484190856E+02  0.29135566248E+02  0.47000000000E+01 0.  1.
<mgrwt>
<rscale>  0 0.99616719E+02</rscale>
<asrwt>0</asrwt>
<pdfrwt beam="1">  1        2 0.11395348E+00 0.10069050E+03</pdfrwt>
<pdfrwt beam="2">  1       -2 0.20217469E-02 0.10069050E+03</pdfrwt>
<totfact> 0.27269793E+04</totfact>
</mgrwt>
</event>
<event>
 8    1  0.9456677E-004  0.1261290E+03  0.7546771E-02  0.1245179E+00
          2   -1    0    0  501    0  0.00000000000E+00  0.00000000000E+00  0.23227612333E+03  0.23227612333E+03  0.00000000000E+00 0. -1.
         -2   -1    0    0    0  501 -0.00000000000E+00 -0.00000000000E+00 -0.84457875177E+02  0.84457875177E+02  0.00000000000E+00 0.  1.
         23    2    1    2    0    0 -0.37334791263E+02 -0.23618734542E+02 -0.14085333096E+02  0.12691299787E+03  0.11813882156E+03 0.  0.
         23    2    1    2    0    0  0.37334791263E+02  0.23618734542E+02  0.16190358125E+03  0.18982100064E+03  0.88698993248E+02 0.  0.
          5    1    3    3  502    0 -0.64479500798E+02  0.25717782942E+02 -0.61025393342E+01  0.69845124160E+02  0.47000000000E+01 0. -1.
         -5    1    4    4    0  503  0.26084631555E+02 -0.15715733938E+02  0.99412056388E+01  0.32377613657E+02  0.47000000000E+01 0.  1.
          5    1    4    4  503    0  0.11250159708E+02  0.39334468479E+02  0.15196237561E+03  0.15744338699E+03  0.47000000000E+01 0. -1.
         -5    1    3    3    0  502  0.27144709535E+02 -0.49336517484E+02 -0.79827937620E+01  0.57067873707E+02  0.47000000000E+01 0.  1.
<mgrwt>
<rscale>  0 0.11874651E+03</rscale>
<asrwt>0</asrwt>
<pdfrwt beam="1">  1        2 0.35734788E-01 0.12612895E+03</pdfrwt>
<pdfrwt beam="2">  1       -2 0.12993519E-01 0.12612895E+03</pdfrwt>
<totfact> 0.59560366E+03</totfact>
</mgrwt>
</event>
<event>
 8    1  0.9456677E-004  0.9327336E+02  0.7546771E-02  0.1295920E+00
         -4   -1    0    0    0  501 -0.00000000000E+00  0.00000000000E+00  0.11231837393E+03  0.11231837393E+03  0.00000000000E+00 0.  1.
          4   -1    0    0  501    0  0.00000000000E+00 -0.00000000000E+00 -0.77203312158E+02  0.77203312158E+02  0.00000000000E+00 0. -1.
         23    2    1    2    0    0 -0.40564342702E+01 -0.15988983949E+01  0.27618044598E+02  0.95947521573E+02  0.91783219455E+02 0.  0.
         23    2    1    2    0    0  0.40564342702E+01  0.15988983949E+01  0.74970171726E+01  0.93574164514E+02  0.93171389723E+02 0.  0.
          5    1    3    3  502    0 -0.41735546729E+02  0.16368750371E+02 -0.10521501666E+01  0.45088677841E+02  0.47000000000E+01 0.  1.
         -5    1    4    4    0  503 -0.22643697815E+02  0.76803915391E+01  0.42435695382E+02  0.48934688182E+02  0.47000000000E+01 0.  1.
          5    1    4    4  503    0  0.26700132085E+02 -0.60814931442E+01 -0.34938678209E+02  0.44639476332E+02  0.47000000000E+01 0. -1.
         -5    1    3    3    0  502  0.37679112459E+02 -0.17967648766E+02  0.28670194765E+02  0.50858843732E+02  0.47000000000E+01 0. -1.
<mgrwt>
<rscale>  0 0.92924749E+02</rscale>
<asrwt>0</asrwt>
<pdfrwt beam="1">  1        4 0.11877433E-01 0.93273356E+02</pdfrwt>
<pdfrwt beam="2">  1       -4 0.17279750E-01 0.93273356E+02</pdfrwt>
<totfact> 0.24799541E+03</totfact>
</mgrwt>
</event>
<event>
 8    1  0.9456677E-004  0.9220483E+02  0.7546771E-02  0.1298429E+00
          3   -1    0    0  501    0  0.00000000000E+00  0.00000000000E+00  0.22559201187E+03  0.22559201187E+03  0.00000000000E+00 0. -1.
         -3   -1    0    0    0  501 -0.00000000000E+00 -0.00000000000E+00 -0.45869154173E+02  0.45869154173E+02  0.00000000000E+00 0.  1.
         23    2    1    2    0    0 -0.19894749934E+02  0.78815139327E+01  0.14860129467E+03  0.17414578799E+03  0.88241097905E+02 0.  0.
         23    2    1    2    0    0  0.19894749934E+02 -0.78815139327E+01  0.31121563022E+02  0.97315378051E+02  0.89687300012E+02 0.  0.
          5    1    3    3  502    0 -0.82531557112E+01  0.27875856536E+02  0.14760662548E+03  0.15051572623E+03  0.47000000000E+01 0. -1.
         -5    1    3    3    0  502 -0.11641594223E+02 -0.19994342603E+02  0.99466919646E+00  0.23630061764E+02  0.47000000000E+01 0.  1.
          5    1    4    4  503    0  0.42025316878E+02 -0.33911715538E+02  0.57690822020E+01  0.54511503546E+02  0.47000000000E+01 0. -1.
         -5    1    4    4    0  503 -0.22130566944E+02  0.26030201605E+02  0.25352480820E+02  0.42803874505E+02  0.47000000000E+01 0.  1.
<mgrwt>
<rscale>  0 0.91851280E+02</rscale>
<asrwt>0</asrwt>
<pdfrwt beam="1">  1        3 0.34706463E-01 0.92204832E+02</pdfrwt>
<pdfrwt beam="2">  1       -3 0.70567931E-02 0.92204832E+02</pdfrwt>
<totfact> 0.22721253E+03</totfact>
</mgrwt>
</event>
<event>
 7    1  0.9456677E-004  0.2220396E+03  0.7546771E-02  0.1162093E+00
          2   -1    0    0  501    0  0.00000000000E+00  0.00000000000E+00  0.15537879472E+04  0.15537879472E+04  0.00000000000E+00 0. -1.
         -2   -1    0    0    0  501 -0.00000000000E+00 -0.00000000000E+00 -0.18677743544E+02  0.18677743544E+02  0.00000000000E+00 0.  1.
         23    2    1    2    0    0  0.37763791136E+02 -0.46388234888E+02  0.69262539347E+03  0.70121243169E+03  0.91602218490E+02 0.  0.
          5    1    3    3  502    0  0.15799658218E+02 -0.71944399620E+02  0.52557599384E+03  0.53073330509E+03  0.47000000000E+01 0. -1.
         -5    1    3    3    0  502  0.21964132918E+02  0.25556164732E+02  0.16704939963E+03  0.17047912660E+03  0.47000000000E+01 0.  1.
          5    1    1    2  503    0  0.87608224514E+02  0.11829984956E+02  0.41787960599E+03  0.42715407601E+03  0.47000000000E+01 0. -1.
         -5    1    1    2    0  503 -0.12537201565E+03  0.34558249932E+02  0.42460520421E+03  0.44409918306E+03  0.47000000000E+01 0.  1.
<mgrwt>
<rscale>  0 0.18602863E+03</rscale>
<asrwt>0</asrwt>
<pdfrwt beam="1">  1        2 0.23904420E+00 0.22203960E+03</pdfrwt>
<pdfrwt beam="2">  1       -2 0.28735002E-02 0.22203960E+03</pdfrwt>
<totfact> 0.57441275E+03</totfact>
</mgrwt>
</event>
<event>
 8    1  0.9456677E-004  0.9201447E+02  0.7546771E-02  0.1299502E+00
         -1   -1    0    0    0  501 -0.00000000000E+00  0.00000000000E+00  0.21025129766E+02  0.21025129766E+02  0.00000000000E+00 0.  1.
          1   -1    0    0  501    0  0.00000000000E+00 -0.00000000000E+00 -0.39651787442E+03  0.39651787442E+03  0.00000000000E+00 0. -1.
         23    2    1    2    0    0  0.17250260094E+02 -0.34889682583E+01 -0.21234930577E+03  0.23142793665E+03  0.90315656614E+02 0.  0.
         23    2    1    2    0    0 -0.17250260094E+02  0.34889682583E+01 -0.16314343889E+03  0.18611506754E+03  0.87825351349E+02 0.  0.
          5    1    4    4  502    0 -0.12960786843E+02  0.43610653459E+02 -0.11071292502E+03  0.11978861740E+03  0.47000000000E+01 0. -1.
         -5    1    3    3    0  503 -0.37083997762E+02 -0.25767667118E+01 -0.86774012464E+02  0.94518156223E+02  0.47000000000E+01 0.  1.
          5    1    3    3  503    0  0.54334257856E+02 -0.91220154644E+00 -0.12557529330E+03  0.13690978043E+03  0.47000000000E+01 0. -1.
         -5    1    4    4    0  502 -0.42894732507E+01 -0.40121685201E+02 -0.52430513862E+02  0.66326450138E+02  0.47000000000E+01 0.  1.
<mgrwt>
<rscale>  0 0.91397525E+02</rscale>
<asrwt>0</asrwt>
<pdfrwt beam="1">  1        1 0.61002745E-01 0.92014467E+02</pdfrwt>
<pdfrwt beam="2">  1       -1 0.32346356E-02 0.92014467E+02</pdfrwt>
<totfact> 0.18689581E+04</totfact>
</mgrwt>
</event>
<event>
 8    1  0.9456677E-004  0.9142659E+02  0.7546771E-02  0.1303989E+00
          2   -1    0    0  501    0  0.00000000000E+00  0.00000000000E+00  0.19644613683E+03  0.19644613683E+03  0.00000000000E+00 0. -1.
         -2   -1    0    0    0  501 -0.00000000000E+00 -0.00000000000E+00 -0.11287307439E+03  0.11287307439E+03  0.00000000000E+00 0.  1.
         23    2    1    2    0    0 -0.45741261140E+01  0.36505125069E+00 -0.83733049200E+02  0.11866204210E+03  0.83954754568E+02 0.  0.
         23    2    1    2    0    0  0.45741261140E+01 -0.36505125069E+00  0.16730611163E+03  0.19065716912E+03  0.91311364321E+02 0.  0.
          5    1    3    3  502    0 -0.80429741249E+00 -0.30428144864E+02 -0.17152430424E+01  0.30847219533E+02  0.47000000000E+01 0. -1.
         -5    1    3    3    0  502 -0.37698287015E+01  0.30793196115E+02 -0.82017806157E+02  0.87814822566E+02  0.47000000000E+01 0.  1.
          5    1    4    4  503    0 -0.41221764628E+02 -0.71564087042E+01  0.56376157558E+02  0.70361986937E+02  0.47000000000E+01 0.  1.
         -5    1    4    4    0  503  0.45795890742E+02  0.67913574535E+01  0.11092995408E+03  0.12029518218E+03  0.47000000000E+01 0. -1.
<mgrwt>
<rscale>  0 0.89531867E+02</rscale>
<asrwt>0</asrwt>
<pdfrwt beam="1">  1        2 0.30222482E-01 0.91426589E+02</pdfrwt>
<pdfrwt beam="2">  1       -2 0.17365088E-01 0.91426589E+02</pdfrwt>
<totfact> 0.43514518E+03</totfact>
</mgrwt>
</event>
<event>
 8    1  0.9456677E-004  0.1021264E+03  0.7546771E-02  0.1276978E+00
         -3   -1    0    0    0  501 -0.00000000000E+00  0.00000000000E+00  0.52104886054E+02  0.52104886054E+02  0.00000000000E+00 0.  1.
          3   -1    0    0  501    0  0.00000000000E+00 -0.00000000000E+00 -0.44674982335E+03  0.44674982335E+03  0.00000000000E+00 0. -1.
         23    2    1    2    0    0  0.40451007177E+02 -0.18119822849E+02 -0.38326064904E+03  0.39609570196E+03  0.89657504147E+02 0.  0.
         23    2    1    2    0    0 -0.40451007177E+02  0.18119822849E+02 -0.11384288256E+02  0.10275900744E+03  0.92006519494E+02 0.  0.
          5    1    3    3  502    0  0.45625044343E+02  0.26981989700E+02 -0.17597375883E+03  0.18384375496E+03  0.47000000000E+01 0. -1.
         -5    1    4    4    0  503 -0.58796937138E+02  0.52261312246E+01  0.21226100407E+02  0.62904925108E+02  0.47000000000E+01 0.  1.
          5    1    4    4  503    0  0.18345929960E+02  0.12893691624E+02 -0.32610388663E+02  0.39854082332E+02  0.47000000000E+01 0. -1.
         -5    1    3    3    0  502 -0.51740371656E+01 -0.45101812549E+02 -0.20728689020E+03  0.21225194700E+03  0.47000000000E+01 0.  1.
<mgrwt>
<rscale>  0 0.10159455E+03</rscale>
<asrwt>0</asrwt>
<pdfrwt beam="1">  1        3 0.68730746E-01 0.10212645E+03</pdfrwt>
<pdfrwt beam="2">  1       -3 0.80161358E-02 0.10212645E+03</pdfrwt>
<totfact> 0.48903758E+02</totfact>
</mgrwt>
</event>
<event>
 8    1  0.9456677E-004  0.1262679E+03  0.7546771E-02  0.1245729E+00
          4   -1    0    0  501    0  0.00000000000E+00  0.00000000000E+00  0.24261100363E+03  0.24261100363E+03  0.00000000000E+00 0. -1.
         -4   -1    0    0    0  501 -0.00000000000E+00 -0.00000000000E+00 -0.52499827811E+02  0.52499827811E+02  0.00000000000E+00 0.  1.
         23    2    1    2    0    0 -0.23676466564E+02  0.15099104667E+02  0.64813886160E+02  0.11722603803E+03  0.93555043271E+02 0.  0.
         23    2    1    2    0    0  0.23676466564E+02 -0.15099104667E+02  0.12529728966E+03  0.17788479342E+03  0.12310577120E+03 0.  0.
          5    1    3    3  502    0  0.34946790127E+02  0.70854608094E+01  0.12407253276E+02  0.38046180214E+02  0.47000000000E+01 0. -1.
         -5    1    3    3    0  502 -0.58623256690E+02  0.80136438571E+01  0.52406632884E+02  0.79179857812E+02  0.47000000000E+01 0.  1.
          5    1    4    4  503    0  0.42465020458E+02  0.42608636398E+02  0.37475931813E+02  0.71030340865E+02  0.47000000000E+01 0. -1.
         -5    1    4    4    0  503 -0.18788553894E+02 -0.57707741064E+02  0.87821357850E+02  0.10685445255E+03  0.47000000000E+01 0.  1.
<mgrwt>
<rscale>  0 0.11841852E+03</rscale>
<asrwt>0</asrwt>
<pdfrwt beam="1">  1        4 0.37324769E-01 0.12626793E+03</pdfrwt>
<pdfrwt beam="2">  1       -4 0.80768968E-02 0.12626793E+03</pdfrwt>
<totfact> 0.12298877E+03</totfact>
</mgrwt>
</event>
<event>
 8    1  0.9456677E-004  0.1061683E+03  0.7546771E-02  0.1268431E+00
          1   -1    0    0  501    0  0.00000000000E+00  0.00000000000E+00  0.27273704675E+03  0.27273704675E+03  0.00000000000E+00 0. -1.
         -1   -1    0    0    0  501 -0.00000000000E+00 -0.00000000000E+00 -0.50264853161E+02  0.50264853161E+02  0.00000000000E+00 0.  1.
         23    2    1    2    0    0  0.39388059916E+02  0.37345587984E+02  0.41879936640E+02  0.11412990221E+03  0.91244689046E+02 0.  0.
         23    2    1    2    0    0 -0.39388059916E+02 -0.37345587984E+02  0.18059225695E+03  0.20887199771E+03  0.89821133089E+02 0.  0.
          5    1    3    3  502    0 -0.24796319739E+02  0.33027100342E+02  0.13987674078E+02  0.43856491603E+02  0.47000000000E+01 0. -1.
         -5    1    4    4    0  503 -0.31121015915E+01 -0.52773015591E+02  0.52041984816E+02  0.74331248708E+02  0.47000000000E+01 0.  1.
          5    1    4    4  503    0 -0.36275958324E+02  0.15427427608E+02  0.12855027214E+03  0.13454074900E+03  0.47000000000E+01 0. -1.
         -5    1    3    3    0  502  0.64184379655E+02  0.43184876418E+01  0.27892262562E+02  0.70273410605E+02  0.47000000000E+01 0.  1.
<mgrwt>
<rscale>  0 0.10586173E+03</rscale>
<asrwt>0</asrwt>
<pdfrwt beam="1">  1        1 0.41959545E-01 0.10616829E+03</pdfrwt>
<pdfrwt beam="2">  1       -1 0.77330545E-02 0.10616829E+03</pdfrwt>
<totfact> 0.83479599E+03</totfact>
</mgrwt>
</event>
<event>
 8    1  0.9456677E-004  0.1060326E+03  0.7546771E-02  0.1275243E+00
         -4   -1    0    0    0  501 -0.00000000000E+00  0.00000000000E+00  0.14835138910E+03  0.14835138910E+03  0.00000000000E+00 0.  1.
          4   -1    0    0  501    0  0.00000000000E+00 -0.00000000000E+00 -0.88875647946E+02  0.88875647946E+02  0.00000000000E+00 0. -1.
         23    2    1    2    0    0  0.75156669767E+01 -0.63860293089E+01  0.90881969119E+02  0.13965112228E+03  0.10557289909E+03 0.  0.
         23    2    1    2    0    0 -0.75156669767E+01  0.63860293089E+01 -0.31406227963E+02  0.97575914769E+02  0.91855546200E+02 0.  0.
          5    1    3    3  502    0 -0.31856665631E+02  0.33880620556E+02  0.25553127052E+02  0.53270966732E+02  0.47000000000E+01 0. -1.
         -5    1    3    3    0  502  0.39372332608E+02 -0.40266649865E+02  0.65328842067E+02  0.86380155546E+02  0.47000000000E+01 0.  1.
          5    1    4    4  503    0 -0.37501091267E+02  0.28872460097E+02 -0.35826031118E+02  0.59544481725E+02  0.47000000000E+01 0. -1.
         -5    1    4    4    0  503  0.29985424290E+02 -0.22486430788E+02  0.44198031553E+01  0.38031433044E+02  0.47000000000E+01 0.  1.
<mgrwt>
<rscale>  0 0.10244199E+03</rscale>
<asrwt>0</asrwt>
<pdfrwt beam="1">  1        4 0.13673177E-01 0.10603256E+03</pdfrwt>
<pdfrwt beam="2">  1       -4 0.22823291E-01 0.10603256E+03</pdfrwt>
<totfact> 0.12249831E+03</totfact>
</mgrwt>
</event>
<event>
 8    1  0.9456677E-004  0.1041316E+03  0.7546771E-02  0.1273276E+00
         -1   -1    0    0    0  501 -0.00000000000E+00  0.00000000000E+00  0.48303914136E+02  0.48303914136E+02  0.00000000000E+00 0.  1.
          1   -1    0    0  501    0  0.00000000000E+00 -0.00000000000E+00 -0.22070777229E+03  0.22070777229E+03  0.00000000000E+00 0. -1.
         23    2    1    2    0    0  0.42441755990E+02  0.74216980222E+01 -0.73633234905E+02  0.12753529662E+03  0.94799864711E+02 0.  0.
         23    2    1    2    0    0 -0.42441755990E+02 -0.74216980222E+01 -0.98770623246E+02  0.14147638980E+03  0.91670871061E+02 0.  0.
          5    1    4    4  502    0  0.25836109835E+02  0.13743691808E+02 -0.30004871022E+02  0.42175536997E+02  0.47000000000E+01 0. -1.
         -5    1    3    3    0  503 -0.19969719093E+02  0.17028324093E+02  0.44217666277E+01  0.27025830648E+02  0.47000000000E+01 0.  1.
          5    1    3    3  503    0  0.62411475083E+02 -0.96066260712E+01 -0.78055001533E+02  0.10050946598E+03  0.47000000000E+01 0. -1.
         -5    1    4    4    0  502 -0.68277865825E+02 -0.21165389830E+02 -0.68765752224E+02  0.99300852802E+02  0.47000000000E+01 0.  1.
<mgrwt>
<rscale>  0 0.10341418E+03</rscale>
<asrwt>0</asrwt>
<pdfrwt beam="1">  1        1 0.33955042E-01 0.10413164E+03</pdfrwt>
<pdfrwt beam="2">  1       -1 0.74313714E-02 0.10413164E+03</pdfrwt>
<totfact> 0.11467574E+04</totfact>
</mgrwt>
</event>
<event>
 8    1  0.9456677E-004  0.9237095E+02  0.7546771E-02  0.1297847E+00
         -1   -1    0    0    0  501 -0.00000000000E+00  0.00000000000E+00  0.16700511256E+03  0.16700511256E+03  0.00000000000E+00 0.  1.
          1   -1    0    0  501    0  0.00000000000E+00 -0.00000000000E+00 -0.15207830348E+03  0.15207830348E+03  0.00000000000E+00 0. -1.
         23    2    1    2    0    0 -0.11206109945E+02  0.38705582699E+01  0.13784149796E+03  0.16532902625E+03  0.90514364831E+02 0.  0.
         23    2    1    2    0    0  0.11206109945E+02 -0.38705582699E+01 -0.12291468887E+03  0.15375438980E+03  0.91606951263E+02 0.  0.
          5    1    3    3  502    0 -0.47733323916E+01  0.26464044329E+02  0.19788486670E+01  0.27370352326E+02  0.47000000000E+01 0. -1.
         -5    1    4    4    0  503 -0.21414042437E+02  0.30495142864E+02 -0.25711901072E+02  0.45516006069E+02  0.47000000000E+01 0.  1.
          5    1    4    4  503    0  0.32620152381E+02 -0.34365701134E+02 -0.97202787799E+02  0.10823838373E+03  0.47000000000E+01 0. -1.
         -5    1    3    3    0  502 -0.64327775533E+01 -0.22593486059E+02  0.13586264929E+03  0.13795867392E+03  0.47000000000E+01 0.  1.
<mgrwt>
<rscale>  0 0.92098886E+02</rscale>
<asrwt>0</asrwt>
<pdfrwt beam="1">  1        1 0.23396662E-01 0.92370946E+02</pdfrwt>
<pdfrwt beam="2">  1       -1 0.25693094E-01 0.92370946E+02</pdfrwt>
<totfact> 0.26332080E+03</totfact>
</mgrwt>
</event>
<event>
 8    1  0.9456677E-004  0.9357407E+02  0.7546771E-02  0.1294773E+00
          1   -1    0    0  501    0  0.00000000000E+00  0.00000000000E+00  0.47667230679E+02  0.47667230679E+02  0.00000000000E+00 0. -1.
         -1   -1    0    0    0  501 -0.00000000000E+00 -0.00000000000E+00 -0.18411072666E+03  0.18411072666E+03  0.00000000000E+00 0.  1.
         23    2    1    2    0    0  0.12155964787E+02 -0.38238803178E+01 -0.78860741287E+02  0.12190584713E+03  0.92084903803E+02 0.  0.
         23    2    1    2    0    0 -0.12155964787E+02  0.38238803178E+01 -0.57582754699E+02  0.10987211021E+03  0.92702305379E+02 0.  0.
          5    1    3    3  502    0  0.47531553693E+02 -0.19194475405E+02 -0.58896325063E+02  0.78221119837E+02  0.47000000000E+01 0. -1.
         -5    1    4    4    0  503 -0.30204028164E+02 -0.70341662214E+01 -0.75542699847E+02  0.81795796420E+02  0.47000000000E+01 0.  1.
          5    1    4    4  503    0  0.18048063377E+02  0.10858046539E+02  0.17959945148E+02  0.28076313790E+02  0.47000000000E+01 0. -1.
         -5    1    3    3    0  502 -0.35375588906E+02  0.15370595087E+02 -0.19964416224E+02  0.43684727296E+02  0.47000000000E+01 0.  1.
<mgrwt>
<rscale>  0 0.93420793E+02</rscale>
<asrwt>0</asrwt>
<pdfrwt beam="1">  1        1 0.73334199E-02 0.93574072E+02</pdfrwt>
<pdfrwt beam="2">  1       -1 0.28324728E-01 0.93574072E+02</pdfrwt>
<totfact> 0.10025222E+04</totfact>
</mgrwt>
</event>
<event>
 8    1  0.9456677E-004  0.1346052E+03  0.7546771E-02  0.1228854E+00
          1   -1    0    0  501    0  0.00000000000E+00  0.00000000000E+00  0.12193914016E+04  0.12193914016E+04  0.00000000000E+00 0. -1.
         -1   -1    0    0    0  501 -0.00000000000E+00 -0.00000000000E+00 -0.15809513512E+02  0.15809513512E+02  0.00000000000E+00 0.  1.
         23    2    1    2    0    0  0.63236630294E+02 -0.26911149361E+02  0.36675144539E+03  0.39067273463E+03  0.11573885049E+03 0.  0.
         23    2    1    2    0    0 -0.63236630294E+02  0.26911149361E+02  0.83683044272E+03  0.84452818051E+03  0.90661879750E+02 0.  0.
          5    1    4    4  502    0 -0.25656605245E+02  0.57541825785E+02  0.54655660796E+03  0.55019590948E+03  0.47000000000E+01 0. -1.
         -5    1    3    3    0  503  0.94028189865E+02 -0.18955785365E+02  0.31873143607E+03  0.33288502613E+03  0.47000000000E+01 0.  1.
          5    1    3    3  503    0 -0.30791559571E+02 -0.79553639957E+01  0.48020009327E+02  0.57787708493E+02  0.47000000000E+01 0. -1.
         -5    1    4    4    0  502 -0.37580025048E+02 -0.30630676424E+02  0.29027383476E+03  0.29433227103E+03  0.47000000000E+01 0.  1.
<mgrwt>
<rscale>  0 0.12906228E+03</rscale>
<asrwt>0</asrwt>
<pdfrwt beam="1">  1        1 0.18759860E+00 0.13460521E+03</pdfrwt>
<pdfrwt beam="2">  1       -1 0.24322338E-02 0.13460521E+03</pdfrwt>
<totfact> 0.55792351E+03</totfact>
</mgrwt>
</event>
<event>
 8    1  0.9456677E-004  0.1124715E+03  0.7546771E-02  0.1258151E+00
          3   -1    0    0  501    0  0.00000000000E+00  0.00000000000E+00  0.62708898831E+02  0.62708898831E+02  0.00000000000E+00 0. -1.
         -3   -1    0    0    0  501 -0.00000000000E+00 -0.00000000000E+00 -0.20450328187E+03  0.20450328187E+03  0.00000000000E+00 0.  1.
         23    2    1    2    0    0 -0.59344498725E+02 -0.26807218402E+02 -0.10028906004E+03  0.14732673951E+03  0.86063210055E+02 0.  0.
         23    2    1    2    0    0  0.59344498725E+02  0.26807218402E+02 -0.41505323003E+02  0.11988544119E+03  0.91702948067E+02 0.  0.
          5    1    4    4  502    0  0.10689928573E+02  0.41548312703E+02  0.13126766407E+02  0.45110296581E+02  0.47000000000E+01 0. -1.
         -5    1    4    4    0  502  0.48654570152E+02 -0.14741094301E+02 -0.54632089410E+02  0.74775144608E+02  0.47000000000E+01 0.  1.
          5    1    3    3  503    0  0.42084078121E+00  0.21163557292E+02 -0.52720462635E+02  0.57005354527E+02  0.47000000000E+01 0. -1.
         -5    1    3    3    0  503 -0.59765339506E+02 -0.47970775695E+02 -0.47568597403E+02  0.90321384987E+02  0.47000000000E+01 0.  1.
<mgrwt>
<rscale>  0 0.11131655E+03</rscale>
<asrwt>0</asrwt>
<pdfrwt beam="1">  1        3 0.96475227E-02 0.11247145E+03</pdfrwt>
<pdfrwt beam="2">  1       -3 0.31462044E-01 0.11247145E+03</pdfrwt>
<totfact> 0.17077624E+03</totfact>
</mgrwt>
</event>
<event>
 8    1  0.9456677E-004  0.9622044E+02  0.7546771E-02  0.1288684E+00
         -3   -1    0    0    0  501 -0.00000000000E+00  0.00000000000E+00  0.39184265768E+02  0.39184265768E+02  0.00000000000E+00 0.  1.
          3   -1    0    0  501    0  0.00000000000E+00 -0.00000000000E+00 -0.23569378358E+03  0.23569378358E+03  0.00000000000E+00 0. -1.
         23    2    1    2    0    0 -0.72668174976E+01  0.30057060030E+02 -0.92476270499E+02  0.13345498597E+03  0.91116075318E+02 0.  0.
         23    2    1    2    0    0  0.72668174976E+01 -0.30057060030E+02 -0.10403324731E+03  0.14142306338E+03  0.90671565630E+02 0.  0.
          5    1    4    4  502    0  0.36063698949E+02  0.14387050129E+02 -0.63458880503E+02  0.74543256623E+02  0.47000000000E+01 0. -1.
         -5    1    3    3    0  503 -0.32678849869E+02  0.14025135842E+02  0.24728300696E+00  0.35871476315E+02  0.47000000000E+01 0.  1.
          5    1    3    3  503    0  0.25412032371E+02  0.16031924188E+02 -0.92723553506E+02  0.97583509658E+02  0.47000000000E+01 0. -1.
         -5    1    4    4    0  502 -0.28796881452E+02 -0.44444110159E+02 -0.40574366812E+02  0.66879806754E+02  0.47000000000E+01 0.  1.
<mgrwt>
<rscale>  0 0.96115059E+02</rscale>
<asrwt>0</asrwt>
<pdfrwt beam="1">  1        3 0.36260582E-01 0.96220438E+02</pdfrwt>
<pdfrwt beam="2">  1       -3 0.60283486E-02 0.96220438E+02</pdfrwt>
<totfact> 0.27126237E+03</totfact>
</mgrwt>
</event>
<event>
 8    1  0.9456677E-004  0.9842103E+02  0.7546771E-02  0.1285051E+00
          3   -1    0    0  501    0  0.00000000000E+00  0.00000000000E+00  0.17935781855E+02  0.17935781855E+02  0.00000000000E+00 0. -1.
         -3   -1    0    0    0  501 -0.00000000000E+00 -0.00000000000E+00 -0.60246645911E+03  0.60246645911E+03  0.00000000000E+00 0.  1.
         23    2    1    2    0    0  0.24495027245E+02 -0.26335073653E+02 -0.18519053633E+03  0.20971941540E+03  0.91614169130E+02 0.  0.
         23    2    1    2    0    0 -0.24495027245E+02  0.26335073653E+02 -0.39934014093E+03  0.41068282557E+03  0.88849831718E+02 0.  0.
          5    1    3    3  502    0  0.17042055739E+01  0.33671375236E+02 -0.62067937568E+02  0.70789721718E+02  0.47000000000E+01 0. -1.
         -5    1    4    4    0  503  0.28570134852E+02  0.48556506541E+01 -0.63402242667E+02  0.69869623757E+02  0.47000000000E+01 0.  1.
          5    1    4    4  503    0 -0.53065162097E+02  0.21479422999E+02 -0.33593789827E+03  0.34081320182E+03  0.47000000000E+01 0. -1.
         -5    1    3    3    0  502  0.22790821671E+02 -0.60006448889E+02 -0.12312259876E+03  0.13892969368E+03  0.47000000000E+01 0.  1.
<mgrwt>
<rscale>  0 0.97772691E+02</rscale>
<asrwt>0</asrwt>
<pdfrwt beam="1">  1        3 0.27593515E-02 0.98421026E+02</pdfrwt>
<pdfrwt beam="2">  1       -3 0.92687132E-01 0.98421026E+02</pdfrwt>
<totfact> 0.13569481E+03</totfact>
</mgrwt>
</event>
<event>
 8    1  0.9456677E-004  0.9695836E+02  0.7546771E-02  0.1287201E+00
         -2   -1    0    0    0  501 -0.00000000000E+00  0.00000000000E+00  0.15896212510E+02  0.15896212510E+02  0.00000000000E+00 0. -1.
          2   -1    0    0  501    0  0.00000000000E+00 -0.00000000000E+00 -0.86804844157E+03  0.86804844157E+03  0.00000000000E+00 0.  1.
         23    2    1    2    0    0 -0.27005409268E+01 -0.36354444708E+02 -0.67643797565E+03  0.68325478875E+03  0.89105739876E+02 0.  0.
         23    2    1    2    0    0  0.27005409268E+01  0.36354444708E+02 -0.17571425341E+03  0.20068986533E+03  0.89844224205E+02 0.  0.
          5    1    3    3  502    0 -0.15121434075E+02  0.24939012187E+02 -0.13486375165E+03  0.13806134001E+03  0.47000000000E+01 0. -1.
         -5    1    4    4    0  503 -0.62780453621E+00  0.60724301875E+02 -0.73523740277E+02  0.95475993637E+02  0.47000000000E+01 0. -1.
          5    1    4    4  503    0  0.33283454630E+01 -0.24369857167E+02 -0.10219051314E+03  0.10521387170E+03  0.47000000000E+01 0.  1.
         -5    1    3    3    0  502  0.12420893148E+02 -0.61293456895E+02 -0.54157422400E+03  0.54519344874E+03  0.47000000000E+01 0.  1.
<mgrwt>
<rscale>  0 0.96786929E+02</rscale>
<asrwt>0</asrwt>
<pdfrwt beam="1">  1        2 0.13354593E+00 0.96958358E+02</pdfrwt>
<pdfrwt beam="2">  1       -2 0.24455708E-02 0.96958358E+02</pdfrwt>
<totfact> 0.16991822E+04</totfact>
</mgrwt>
</event>
<event>
 8    1  0.9456677E-004  0.1626600E+03  0.7546771E-02  0.1186196E+00
          1   -1    0    0  501    0  0.00000000000E+00  0.00000000000E+00  0.45368003734E+03  0.45368003734E+03  0.00000000000E+00 0. -1.
         -1   -1    0    0    0  501 -0.00000000000E+00 -0.00000000000E+00 -0.12999070800E+03  0.12999070800E+03  0.00000000000E+00 0.  1.
         23    2    1    2    0    0  0.75593754878E+02 -0.11014828808E+03 -0.56139781940E+02  0.17047779385E+03  0.89799453989E+02 0.  0.
         23    2    1    2    0    0 -0.75593754878E+02  0.11014828808E+03  0.37982911128E+03  0.41319295150E+03  0.92796553000E+02 0.  0.
          5    1    4    4  502    0 -0.83413129209E+02  0.90920993877E+02  0.36940496834E+03  0.38949518339E+03  0.47000000000E+01 0. -1.
         -5    1    4    4    0  502  0.78193743306E+01  0.19227294201E+02  0.10424142943E+02  0.23697768108E+02  0.47000000000E+01 0.  1.
          5    1    3    3  503    0  0.34435623418E+02 -0.12949730402E+02  0.18174347659E+02  0.41302597866E+02  0.47000000000E+01 0. -1.
         -5    1    3    3    0  503  0.41158131460E+02 -0.97198557676E+02 -0.74314129599E+02  0.12917519598E+03  0.47000000000E+01 0.  1.
<mgrwt>
<rscale>  0 0.16223555E+03</rscale>
<asrwt>0</asrwt>
<pdfrwt beam="1">  1        1 0.69796928E-01 0.16265996E+03</pdfrwt>
<pdfrwt beam="2">  1       -1 0.19998571E-01 0.16265996E+03</pdfrwt>
<totfact> 0.10341396E+03</totfact>
</mgrwt>
</event>
<event>
 8    1  0.9456677E-004  0.1325391E+03  0.7546771E-02  0.1223796E+00
         -2   -1    0    0    0  501 -0.00000000000E+00  0.00000000000E+00  0.95187677859E+02  0.95187677859E+02  0.00000000000E+00 0.  1.
          2   -1    0    0  501    0  0.00000000000E+00 -0.00000000000E+00 -0.89970511630E+03  0.89970511630E+03  0.00000000000E+00 0. -1.
         23    2    1    2    0    0  0.81710368826E+02 -0.51388625491E+02  0.41368816160E+02  0.13868594313E+03  0.90581657452E+02 0.  0.
         23    2    1    2    0    0 -0.81710368826E+02  0.51388625491E+02 -0.84588625460E+03  0.85620685103E+03  0.90825331430E+02 0.  0.
          5    1    4    4  502    0 -0.35477872250E+02 -0.21883358982E+02 -0.18796187893E+03  0.19258587371E+03  0.47000000000E+01 0. -1.
         -5    1    3    3    0  503  0.80338469809E+02 -0.40518283324E+01  0.42467689005E+02  0.91083926428E+02  0.47000000000E+01 0.  1.
          5    1    3    3  503    0  0.13718990163E+01 -0.47336797159E+02 -0.10988728452E+01  0.47602016698E+02  0.47000000000E+01 0. -1.
         -5    1    4    4    0  502 -0.46232496576E+02  0.73271984473E+02 -0.65792437566E+03  0.66362097732E+03  0.47000000000E+01 0.  1.
<mgrwt>
<rscale>  0 0.13249738E+03</rscale>
<asrwt>0</asrwt>
<pdfrwt beam="1">  1        2 0.13841617E+00 0.13253911E+03</pdfrwt>
<pdfrwt beam="2">  1       -2 0.14644258E-01 0.13253911E+03</pdfrwt>
<totfact> 0.10855555E+03</totfact>
</mgrwt>
</event>
<event>
 8    1  0.9456677E-004  0.1356852E+03  0.7546771E-02  0.1219579E+00
          2   -1    0    0  501    0  0.00000000000E+00  0.00000000000E+00  0.52212239446E+02  0.52212239446E+02  0.00000000000E+00 0. -1.
         -2   -1    0    0    0  501 -0.00000000000E+00 -0.00000000000E+00 -0.42873784746E+03  0.42873784746E+03  0.00000000000E+00 0.  1.
         23    2    1    2    0    0 -0.56760585606E+02 -0.81801018650E+02 -0.29064868620E+03  0.32037198290E+03  0.90820580865E+02 0.  0.
         23    2    1    2    0    0  0.56760585606E+02  0.81801018650E+02 -0.85876921809E+02  0.16057810400E+03  0.92180860561E+02 0.  0.
          5    1    3    3  502    0 -0.72355093172E+02 -0.38968766985E+02 -0.23049216122E+03  0.24474997587E+03  0.47000000000E+01 0. -1.
         -5    1    4    4    0  503  0.41107396262E+02  0.35741641979E+00 -0.61288509037E+02  0.73948070387E+02  0.47000000000E+01 0.  1.
          5    1    4    4  503    0  0.15653189344E+02  0.81443602230E+02 -0.24588412772E+02  0.86630033612E+02  0.47000000000E+01 0. -1.
         -5    1    3    3    0  502  0.15594507566E+02 -0.42832251665E+02 -0.60156524985E+02  0.75622007030E+02  0.47000000000E+01 0.  1.
<mgrwt>
<rscale>  0 0.13545453E+03</rscale>
<asrwt>0</asrwt>
<pdfrwt beam="1">  1        2 0.80326518E-02 0.13568523E+03</pdfrwt>
<pdfrwt beam="2">  1       -2 0.65959673E-01 0.13568523E+03</pdfrwt>
<totfact> 0.17708908E+03</totfact>
</mgrwt>
</event>
<event>
 8    1  0.9456677E-004  0.1211618E+03  0.7546771E-02  0.1241423E+00
         -1   -1    0    0    0  501 -0.00000000000E+00  0.00000000000E+00  0.22039032470E+03  0.22039032470E+03  0.00000000000E+00 0.  1.
          1   -1    0    0  501    0  0.00000000000E+00 -0.00000000000E+00 -0.10585638037E+03  0.10585638037E+03  0.00000000000E+00 0. -1.
         23    2    1    2    0    0 -0.47719680599E+02 -0.62128168769E+02 -0.42533358134E+02  0.12787757030E+03  0.91687017404E+02 0.  0.
         23    2    1    2    0    0  0.47719680599E+02  0.62128168769E+02  0.15706730246E+03  0.19836913477E+03  0.92428885407E+02 0.  0.
          5    1    4    4  502    0  0.42795158380E+02  0.86076565742E+02  0.12324963307E+03  0.15637507091E+03  0.47000000000E+01 0. -1.
         -5    1    4    4    0  502  0.49245222192E+01 -0.23948396973E+02  0.33817669387E+02  0.41994063859E+02  0.47000000000E+01 0.  1.
          5    1    3    3  503    0 -0.17258986014E+02  0.21688310102E+02 -0.23329744606E+02  0.36532483856E+02  0.47000000000E+01 0. -1.
         -5    1    3    3    0  503 -0.30460694585E+02 -0.83816478871E+02 -0.19203613528E+02  0.91345086444E+02  0.47000000000E+01 0.  1.
<mgrwt>
<rscale>  0 0.12102028E+03</rscale>
<asrwt>0</asrwt>
<pdfrwt beam="1">  1        1 0.16285597E-01 0.12116178E+03</pdfrwt>
<pdfrwt beam="2">  1       -1 0.33906204E-01 0.12116178E+03</pdfrwt>
<totfact> 0.26591326E+03</totfact>
</mgrwt>
</event>
<event>
 8    1  0.9456677E-004  0.9443413E+02  0.7546771E-02  0.1292635E+00
         -1   -1    0    0    0  501 -0.00000000000E+00  0.00000000000E+00  0.23122298018E+02  0.23122298018E+02  0.00000000000E+00 0.  1.
          1   -1    0    0  501    0  0.00000000000E+00 -0.00000000000E+00 -0.48323680003E+03  0.48323680003E+03  0.00000000000E+00 0. -1.
         23    2    1    2    0    0  0.18206454718E+02 -0.20742552496E+02 -0.34425457596E+03  0.35688894560E+03  0.89982097917E+02 0.  0.
         23    2    1    2    0    0 -0.18206454718E+02  0.20742552496E+02 -0.11585992606E+03  0.14947015245E+03  0.90310993410E+02 0.  0.
          5    1    4    4  502    0 -0.52255778382E+02 -0.49093048316E+00 -0.78641155009E+02  0.94537974635E+02  0.47000000000E+01 0. -1.
         -5    1    3    3    0  503  0.21267131927E+02  0.31785259829E+02 -0.10434020402E+03  0.11122752275E+03  0.47000000000E+01 0.  1.
          5    1    3    3  503    0 -0.30606772085E+01 -0.52527812325E+02 -0.23991437194E+03  0.24566142285E+03  0.47000000000E+01 0. -1.
         -5    1    4    4    0  502  0.34049323663E+02  0.21233482979E+02 -0.37218771047E+02  0.54932177816E+02  0.47000000000E+01 0.  1.
<mgrwt>
<rscale>  0 0.94355405E+02</rscale>
<asrwt>0</asrwt>
<pdfrwt beam="1">  1        1 0.74344120E-01 0.94434125E+02</pdfrwt>
<pdfrwt beam="2">  1       -1 0.35572768E-02 0.94434125E+02</pdfrwt>
<totfact> 0.12729852E+04</totfact>
</mgrwt>
</event>
<event>
 8    1  0.9456677E-004  0.1013296E+03  0.7546771E-02  0.1280006E+00
         -2   -1    0    0    0  501 -0.00000000000E+00  0.00000000000E+00  0.10069260061E+02  0.10069260061E+02  0.00000000000E+00 0. -1.
          2   -1    0    0  501    0  0.00000000000E+00 -0.00000000000E+00 -0.10335542404E+04  0.10335542404E+04  0.00000000000E+00 0.  1.
         23    2    1    2    0    0  0.40906245141E+02 -0.34421435714E+01 -0.39700371238E+03  0.40973117241E+03  0.92641873702E+02 0.  0.
         23    2    1    2    0    0 -0.40906245141E+02  0.34421435714E+01 -0.62648126797E+03  0.63389232805E+03  0.87495915360E+02 0.  0.
          5    1    3    3  502    0  0.64192647076E+02  0.89023814119E+01 -0.18573146484E+03  0.19676944724E+03  0.47000000000E+01 0. -1.
         -5    1    3    3    0  502 -0.23286401935E+02 -0.12344524983E+02 -0.21127224753E+03  0.21296172517E+03  0.47000000000E+01 0.  1.
          5    1    4    4  503    0 -0.58144805971E+02  0.28137825695E+02 -0.37250215925E+03  0.37809060335E+03  0.47000000000E+01 0. -1.
         -5    1    4    4    0  503  0.17238560829E+02 -0.24695682124E+02 -0.25397910872E+03  0.25580172471E+03  0.47000000000E+01 0.  1.
<mgrwt>
<rscale>  0 0.10013817E+03</rscale>
<asrwt>0</asrwt>
<pdfrwt beam="1">  1        2 0.15900825E+00 0.10132959E+03</pdfrwt>
<pdfrwt beam="2">  1       -2 0.15491178E-02 0.10132959E+03</pdfrwt>
<totfact> 0.26128785E+04</totfact>
</mgrwt>
</event>
<event>
 8    1  0.9456677E-004  0.1190946E+03  0.7546771E-02  0.1245931E+00
          1   -1    0    0  501    0  0.00000000000E+00  0.00000000000E+00  0.22755851805E+03  0.22755851805E+03  0.00000000000E+00 0. -1.
         -1   -1    0    0    0  501 -0.00000000000E+00 -0.00000000000E+00 -0.65534361107E+02  0.65534361107E+02  0.00000000000E+00 0.  1.
         23    2    1    2    0    0  0.43010097959E+02 -0.57471209798E+02  0.40162437305E+02  0.12269980169E+03  0.91046205209E+02 0.  0.
         23    2    1    2    0    0 -0.43010097959E+02  0.57471209798E+02  0.12186171964E+03  0.17039307746E+03  0.95030067097E+02 0.  0.
          5    1    4    4  502    0 -0.31338582217E+02  0.14635736854E+02  0.12079286057E+03  0.12573510525E+03  0.47000000000E+01 0. -1.
         -5    1    4    4    0  502 -0.11671515742E+02  0.42835472944E+02  0.10688590653E+01  0.44657972208E+02  0.47000000000E+01 0.  1.
          5    1    3    3  503    0  0.87027443254E+01  0.24176544622E+02  0.21512039888E+01  0.26209936041E+02  0.47000000000E+01 0. -1.
         -5    1    3    3    0  503  0.34307353634E+02 -0.81647754420E+02  0.38011233316E+02  0.96489865651E+02  0.47000000000E+01 0.  1.
<mgrwt>
<rscale>  0 0.11829814E+03</rscale>
<asrwt>0</asrwt>
<pdfrwt beam="1">  1        1 0.35009002E-01 0.11909459E+03</pdfrwt>
<pdfrwt beam="2">  1       -1 0.10082210E-01 0.11909459E+03</pdfrwt>
<totfact> 0.70497525E+03</totfact>
</mgrwt>
</event>
<event>
 8    1  0.9456677E-004  0.1227319E+03  0.7546771E-02  0.1238885E+00
          3   -1    0    0  501    0  0.00000000000E+00  0.00000000000E+00  0.33573633202E+03  0.33573633202E+03  0.00000000000E+00 0. -1.
         -3   -1    0    0    0  501 -0.00000000000E+00 -0.00000000000E+00 -0.57982913685E+02  0.57982913685E+02  0.00000000000E+00 0.  1.
         23    2    1    2    0    0  0.81024118511E+02 -0.11043034611E+02  0.44260157613E+02  0.12993483938E+03  0.90759266959E+02 0.  0.
         23    2    1    2    0    0 -0.81024118511E+02  0.11043034611E+02  0.23349326072E+03  0.26378440632E+03  0.91521876200E+02 0.  0.
          5    1    3    3  502    0  0.98402922910E+02  0.11203571195E+00  0.25794083786E+02  0.10183600811E+03  0.47000000000E+01 0. -1.
         -5    1    3    3    0  502 -0.17378804399E+02 -0.11155070323E+02  0.18466073827E+02  0.28098831272E+02  0.47000000000E+01 0.  1.
          5    1    4    4  503    0 -0.39832587544E+02  0.51116825937E+02  0.11846389250E+03  0.13511235603E+03  0.47000000000E+01 0. -1.
         -5    1    4    4    0  503 -0.41191530967E+02 -0.40073791326E+02  0.11502936822E+03  0.12867205030E+03  0.47000000000E+01 0.  1.
<mgrwt>
<rscale>  0 0.12258971E+03</rscale>
<asrwt>0</asrwt>
<pdfrwt beam="1">  1        3 0.51651742E-01 0.12273186E+03</pdfrwt>
<pdfrwt beam="2">  1       -3 0.89204484E-02 0.12273186E+03</pdfrwt>
<totfact> 0.75955537E+02</totfact>
</mgrwt>
</event>
<event>
 8    1  0.9456677E-004  0.1138457E+03  0.7546771E-02  0.1260303E+00
          2   -1    0    0  501    0  0.00000000000E+00  0.00000000000E+00  0.17698830871E+03  0.17698830871E+03  0.00000000000E+00 0. -1.
         -2   -1    0    0    0  501 -0.00000000000E+00 -0.00000000000E+00 -0.79198798337E+02  0.79198798337E+02  0.00000000000E+00 0.  1.
         23    2    1    2    0    0  0.42096006461E+02  0.75964832141E+01 -0.36733876229E+01  0.11390493704E+03  0.10550384158E+03 0.  0.
         23    2    1    2    0    0 -0.42096006461E+02 -0.75964832141E+01  0.10146289799E+03  0.14228217001E+03  0.90109466291E+02 0.  0.
          5    1    3    3  502    0  0.25368205957E+02 -0.95214431851E+01  0.48813605998E+02  0.56027331583E+02  0.47000000000E+01 0. -1.
         -5    1    4    4    0  503 -0.33009179783E+02  0.27227760185E+02  0.10447776718E+02  0.44296759622E+02  0.47000000000E+01 0.  1.
          5    1    4    4  503    0 -0.90868266779E+01 -0.34824243399E+02  0.91015121277E+02  0.97985410386E+02  0.47000000000E+01 0. -1.
         -5    1    3    3    0  502  0.16727800504E+02  0.17117926399E+02 -0.52486993621E+02  0.57877605456E+02  0.47000000000E+01 0.  1.
<mgrwt>
<rscale>  0 0.11014444E+03</rscale>
<asrwt>0</asrwt>
<pdfrwt beam="1">  1        2 0.27228971E-01 0.11384569E+03</pdfrwt>
<pdfrwt beam="2">  1       -2 0.12184431E-01 0.11384569E+03</pdfrwt>
<totfact> 0.87779419E+03</totfact>
</mgrwt>
</event>
<event>
 8    1  0.9456677E-004  0.1053549E+03  0.7546771E-02  0.1270583E+00
          3   -1    0    0  501    0  0.00000000000E+00  0.00000000000E+00  0.24123852998E+03  0.24123852998E+03  0.00000000000E+00 0. -1.
         -3   -1    0    0    0  501 -0.00000000000E+00 -0.00000000000E+00 -0.45307221826E+02  0.45307221826E+02  0.00000000000E+00 0.  1.
         23    2    1    2    0    0 -0.19735679898E+02 -0.44915819102E+02  0.11095091826E+03  0.15300245473E+03  0.93234741507E+02 0.  0.
         23    2    1    2    0    0  0.19735679898E+02  0.44915819102E+02  0.84980389896E+02  0.13354329708E+03  0.90582656516E+02 0.  0.
          5    1    4    4  502    0  0.44488530292E+02  0.28723941155E+02  0.11780235024E+02  0.54453264918E+02  0.47000000000E+01 0. -1.
         -5    1    4    4    0  502 -0.24752850395E+02  0.16191877947E+02  0.73200154872E+02  0.79090032162E+02  0.47000000000E+01 0.  1.
          5    1    3    3  503    0  0.33114593842E+02 -0.39890261287E+02  0.55274826996E+02  0.75928952122E+02  0.47000000000E+01 0. -1.
         -5    1    3    3    0  503 -0.52850273740E+02 -0.50255578147E+01  0.55676091266E+02  0.77073502609E+02  0.47000000000E+01 0.  1.
<mgrwt>
<rscale>  0 0.10476502E+03</rscale>
<asrwt>0</asrwt>
<pdfrwt beam="1">  1        3 0.37113619E-01 0.10535485E+03</pdfrwt>
<pdfrwt beam="2">  1       -3 0.69703419E-02 0.10535485E+03</pdfrwt>
<totfact> 0.20972341E+03</totfact>
</mgrwt>
</event>
<event>
 8    1  0.9456677E-004  0.9929656E+02  0.7546771E-02  0.1282874E+00
         -1   -1    0    0    0  501 -0.00000000000E+00  0.00000000000E+00  0.16553366199E+02  0.16553366199E+02  0.00000000000E+00 0.  1.
          1   -1    0    0  501    0  0.00000000000E+00 -0.00000000000E+00 -0.58352734448E+03  0.58352734448E+03  0.00000000000E+00 0. -1.
         23    2    1    2    0    0 -0.11589558136E+02  0.29908009028E+02 -0.28438111045E+03  0.30121823016E+03  0.93973396970E+02 0.  0.
         23    2    1    2    0    0  0.11589558136E+02 -0.29908009028E+02 -0.28259286783E+03  0.29886248052E+03  0.91821819037E+02 0.  0.
          5    1    3    3  502    0  0.21717709196E+02 -0.18447041577E+02 -0.17127830160E+03  0.17369599545E+03  0.47000000000E+01 0. -1.
         -5    1    4    4    0  503  0.11055706633E+02  0.30788076447E+02 -0.65084354322E+02  0.72994503067E+02  0.47000000000E+01 0.  1.
          5    1    4    4  503    0  0.53385150363E+00 -0.60696085475E+02 -0.21750851351E+03  0.22586797745E+03  0.47000000000E+01 0. -1.
         -5    1    3    3    0  502 -0.33307267333E+02  0.48355050604E+02 -0.11310280885E+03  0.12752223471E+03  0.47000000000E+01 0.  1.
<mgrwt>
<rscale>  0 0.98784167E+02</rscale>
<asrwt>0</asrwt>
<pdfrwt beam="1">  1        1 0.89773443E-01 0.99296557E+02</pdfrwt>
<pdfrwt beam="2">  1       -1 0.25466716E-02 0.99296557E+02</pdfrwt>
<totfact> 0.16194190E+04</totfact>
</mgrwt>
</event>
<event>
 8    1  0.9456677E-004  0.1603291E+03  0.7546771E-02  0.1188612E+00
          1   -1    0    0  501    0  0.00000000000E+00  0.00000000000E+00  0.11484604046E+03  0.11484604046E+03  0.00000000000E+00 0. -1.
         -1   -1    0    0    0  501 -0.00000000000E+00 -0.00000000000E+00 -0.24392502356E+03  0.24392502356E+03  0.00000000000E+00 0.  1.
         23    2    1    2    0    0  0.91741555656E+02  0.92560316989E+02 -0.11454223175E+02  0.16073769849E+03  0.93388881417E+02 0.  0.
         23    2    1    2    0    0 -0.91741555656E+02 -0.92560316989E+02 -0.11762475992E+03  0.19803336553E+03  0.91638989532E+02 0.  0.
          5    1    4    4  502    0 -0.30595888520E+02  0.81599699248E+01 -0.77245411527E+00  0.32021558190E+02  0.47000000000E+01 0. -1.
         -5    1    3    3    0  503  0.71668018161E+02  0.11127075469E+03 -0.79249275430E+01  0.13267396185E+03  0.47000000000E+01 0.  1.
          5    1    3    3  503    0  0.20073537495E+02 -0.18710437702E+02 -0.35292956317E+01  0.28063736640E+02  0.47000000000E+01 0. -1.
         -5    1    4    4    0  502 -0.61145667135E+02 -0.10072028691E+03 -0.11685230580E+03  0.16601180734E+03  0.47000000000E+01 0.  1.
<mgrwt>
<rscale>  0 0.16007523E+03</rscale>
<asrwt>0</asrwt>
<pdfrwt beam="1">  1        1 0.17668622E-01 0.16032906E+03</pdfrwt>
<pdfrwt beam="2">  1       -1 0.37526926E-01 0.16032906E+03</pdfrwt>
<totfact> 0.20354563E+03</totfact>
</mgrwt>
</event>
<event>
 8    1  0.9456677E-004  0.9123994E+02  0.7546771E-02  0.1300384E+00
          3   -1    0    0  501    0  0.00000000000E+00  0.00000000000E+00  0.25406405339E+02  0.25406405339E+02  0.00000000000E+00 0. -1.
         -3   -1    0    0    0  501 -0.00000000000E+00 -0.00000000000E+00 -0.38328649266E+03  0.38328649266E+03  0.00000000000E+00 0.  1.
         23    2    1    2    0    0  0.15349551839E+02  0.10659001369E+02 -0.25817811403E+03  0.27354405221E+03  0.88437474434E+02 0.  0.
         23    2    1    2    0    0 -0.15349551839E+02 -0.10659001369E+02 -0.99701973288E+02  0.13514884578E+03  0.89305677240E+02 0.  0.
          5    1    4    4  502    0 -0.36171980876E+02  0.10689336808E+02 -0.83211355313E+01  0.38910222544E+02  0.47000000000E+01 0. -1.
         -5    1    3    3    0  503  0.48613780235E+02  0.23204240326E+02 -0.16842518892E+03  0.17689225721E+03  0.47000000000E+01 0. -1.
          5    1    3    3  503    0 -0.33264228396E+02 -0.12545238958E+02 -0.89752925109E+02  0.96651795001E+02  0.47000000000E+01 0.  1.
         -5    1    4    4    0  502  0.20822429037E+02 -0.21348338177E+02 -0.91380837757E+02  0.96238623239E+02  0.47000000000E+01 0.  1.
<mgrwt>
<rscale>  0 0.91026791E+02</rscale>
<asrwt>0</asrwt>
<pdfrwt beam="1">  1        3 0.39086778E-02 0.91239942E+02</pdfrwt>
<pdfrwt beam="2">  1       -3 0.58967152E-01 0.91239942E+02</pdfrwt>
<totfact> 0.20436484E+03</totfact>
</mgrwt>
</event>
<event>
 8    1  0.9456677E-004  0.1162404E+03  0.7546771E-02  0.1252695E+00
         -1   -1    0    0    0  501 -0.00000000000E+00  0.00000000000E+00  0.58456345385E+03  0.58456345385E+03  0.00000000000E+00 0.  1.
          1   -1    0    0  501    0  0.00000000000E+00 -0.00000000000E+00 -0.21687569842E+02  0.21687569842E+02  0.00000000000E+00 0. -1.
         23    2    1    2    0    0 -0.95717573297E+01 -0.59401547484E+02  0.26685355457E+03  0.28822421090E+03  0.90786638783E+02 0.  0.
         23    2    1    2    0    0  0.95717573297E+01  0.59401547484E+02  0.29602232944E+03  0.31802681279E+03  0.99456883854E+02 0.  0.
          5    1    3    3  502    0  0.10912768649E+02 -0.74497821171E+02  0.14281693419E+03  0.16151712160E+03  0.47000000000E+01 0. -1.
         -5    1    4    4    0  503  0.39289670581E+02  0.26699859813E+01  0.50313765634E+02  0.64065373266E+02  0.47000000000E+01 0.  1.
          5    1    4    4  503    0 -0.29717913251E+02  0.56731561503E+02  0.24570856380E+03  0.25396143952E+03  0.47000000000E+01 0. -1.
         -5    1    3    3    0  502 -0.20484525979E+02  0.15096273687E+02  0.12403662038E+03  0.12670708930E+03  0.47000000000E+01 0.  1.
<mgrwt>
<rscale>  0 0.11436400E+03</rscale>
<asrwt>0</asrwt>
<pdfrwt beam="1">  1        1 0.33365497E-02 0.11624042E+03</pdfrwt>
<pdfrwt beam="2">  1       -1 0.89932827E-01 0.11624042E+03</pdfrwt>
<totfact> 0.35498614E+03</totfact>
</mgrwt>
</event>
<event>
 8    1  0.9456677E-004  0.1554880E+03  0.7546771E-02  0.1195018E+00
          2   -1    0    0  501    0  0.00000000000E+00  0.00000000000E+00  0.17980407508E+03  0.17980407508E+03  0.00000000000E+00 0. -1.
         -2   -1    0    0    0  501 -0.00000000000E+00 -0.00000000000E+00 -0.18642630386E+03  0.18642630386E+03  0.00000000000E+00 0.  1.
         23    2    1    2    0    0 -0.66891459405E+02 -0.96542897613E+02  0.96388138504E+02  0.17971588471E+03  0.95979828873E+02 0.  0.
         23    2    1    2    0    0  0.66891459405E+02  0.96542897613E+02 -0.10301036728E+03  0.18651449424E+03  0.10188975598E+03 0.  0.
          5    1    3    3  502    0  0.18902999998E+02 -0.46328925256E+02  0.46161215582E+02  0.68239581976E+02  0.47000000000E+01 0. -1.
         -5    1    3    3    0  502 -0.85794459403E+02 -0.50213972357E+02  0.50226922922E+02  0.11147630273E+03  0.47000000000E+01 0.  1.
          5    1    4    4  503    0  0.75242679140E+02  0.19538916789E+02 -0.50548028086E+02  0.92846234048E+02  0.47000000000E+01 0. -1.
         -5    1    4    4    0  503 -0.83512197341E+01  0.77003980824E+02 -0.52462339194E+02  0.93668260192E+02  0.47000000000E+01 0.  1.
<mgrwt>
<rscale>  0 0.15452739E+03</rscale>
<asrwt>0</asrwt>
<pdfrwt beam="1">  1        2 0.27662166E-01 0.15548801E+03</pdfrwt>
<pdfrwt beam="2">  1       -2 0.28680970E-01 0.15548801E+03</pdfrwt>
<totfact> 0.20839986E+03</totfact>
</mgrwt>
</event>
<event>
 8    1  0.9456677E-004  0.1403107E+03  0.7546771E-02  0.1213078E+00
         -2   -1    0    0    0  501 -0.00000000000E+00  0.00000000000E+00  0.24018946667E+02  0.24018946667E+02  0.00000000000E+00 0.  1.
          2   -1    0    0  501    0  0.00000000000E+00 -0.00000000000E+00 -0.10556214184E+04  0.10556214184E+04  0.00000000000E+00 0. -1.
         23    2    1    2    0    0 -0.47987863518E+02  0.95817860806E+02 -0.77328693069E+03  0.78591332619E+03  0.90571417164E+02 0.  0.
         23    2    1    2    0    0  0.47987863518E+02 -0.95817860806E+02 -0.25831554102E+03  0.29372703886E+03  0.89803992835E+02 0.  0.
          5    1    3    3  502    0  0.21847005599E+02  0.31280321882E+02 -0.34707549949E+03  0.34919799904E+03  0.47000000000E+01 0. -1.
         -5    1    3    3    0  502 -0.69834869117E+02  0.64537538924E+02 -0.42621143120E+03  0.43671532714E+03  0.47000000000E+01 0.  1.
          5    1    4    4  503    0  0.44038945948E+02 -0.20958076126E+01 -0.10428598834E+03  0.11332024768E+03  0.47000000000E+01 0. -1.
         -5    1    4    4    0  503  0.39489175703E+01 -0.93722053194E+02 -0.15402955268E+03  0.18040679118E+03  0.47000000000E+01 0.  1.
<mgrwt>
<rscale>  0 0.14018695E+03</rscale>
<asrwt>0</asrwt>
<pdfrwt beam="1">  1        2 0.16240329E+00 0.14031065E+03</pdfrwt>
<pdfrwt beam="2">  1       -2 0.36952226E-02 0.14031065E+03</pdfrwt>
<totfact> 0.73148264E+03</totfact>
</mgrwt>
</event>
<event>
 8    1  0.9456677E-004  0.1050649E+03  0.7546771E-02  0.1270215E+00
          2   -1    0    0  501    0  0.00000000000E+00  0.00000000000E+00  0.59919355460E+02  0.59919355460E+02  0.00000000000E+00 0. -1.
         -2   -1    0    0    0  501 -0.00000000000E+00 -0.00000000000E+00 -0.19106409387E+03  0.19106409387E+03  0.00000000000E+00 0.  1.
         23    2    1    2    0    0 -0.48756026920E+02  0.10419910115E+02 -0.40353330546E+02  0.11212483482E+03  0.91966638566E+02 0.  0.
         23    2    1    2    0    0  0.48756026920E+02 -0.10419910115E+02 -0.90791407867E+02  0.13885861452E+03  0.92481946318E+02 0.  0.
          5    1    3    3  502    0 -0.51721969564E+01  0.46289241232E+02 -0.26578031664E+02  0.53832399560E+02  0.47000000000E+01 0. -1.
         -5    1    3    3    0  502 -0.43583829964E+02 -0.35869331117E+02 -0.13775298882E+02  0.58292435259E+02  0.47000000000E+01 0.  1.
          5    1    4    4  503    0 -0.15034179624E+02  0.21698611287E+02 -0.52489532145E+01  0.27322111898E+02  0.47000000000E+01 0. -1.
         -5    1    4    4    0  503  0.63790206544E+02 -0.32118521402E+02 -0.85542454652E+02  0.11153650262E+03  0.47000000000E+01 0.  1.
<mgrwt>
<rscale>  0 0.10495140E+03</rscale>
<asrwt>0</asrwt>
<pdfrwt beam="1">  1        2 0.92183623E-02 0.10506491E+03</pdfrwt>
<pdfrwt beam="2">  1       -2 0.29394476E-01 0.10506491E+03</pdfrwt>
<totfact> 0.69685350E+03</totfact>
</mgrwt>
</event>
<event>
 8    1  0.9456677E-004  0.9531210E+02  0.7546771E-02  0.1291566E+00
          2   -1    0    0  501    0  0.00000000000E+00  0.00000000000E+00  0.22382051592E+03  0.22382051592E+03  0.00000000000E+00 0. -1.
         -2   -1    0    0    0  501 -0.00000000000E+00 -0.00000000000E+00 -0.43117882697E+02  0.43117882697E+02  0.00000000000E+00 0.  1.
         23    2    1    2    0    0 -0.22036519715E+02 -0.18443712330E+02  0.12838021853E+03  0.15989332805E+03  0.90876933927E+02 0.  0.
         23    2    1    2    0    0  0.22036519715E+02  0.18443712330E+02  0.52322414702E+02  0.10704507057E+03  0.88855125503E+02 0.  0.
          5    1    4    4  502    0 -0.12575919903E+02 -0.21438568280E+02  0.47493195554E+02  0.53809474958E+02  0.47000000000E+01 0. -1.
         -5    1    4    4    0  502  0.34612439618E+02  0.39882280610E+02  0.48292191480E+01  0.53235595616E+02  0.47000000000E+01 0.  1.
          5    1    3    3  503    0 -0.17085911431E+02  0.26563276565E+02  0.10637003941E+02  0.33656676665E+02  0.47000000000E+01 0. -1.
         -5    1    3    3    0  503 -0.49506082845E+01 -0.45006988895E+02  0.11774321458E+03  0.12623665138E+03  0.47000000000E+01 0.  1.
<mgrwt>
<rscale>  0 0.94826971E+02</rscale>
<asrwt>0</asrwt>
<pdfrwt beam="1">  1        2 0.34433925E-01 0.95312097E+02</pdfrwt>
<pdfrwt beam="2">  1       -2 0.66335206E-02 0.95312097E+02</pdfrwt>
<totfact> 0.17218862E+04</totfact>
</mgrwt>
</event>
<event>
 8    1  0.9456677E-004  0.9719840E+02  0.7546771E-02  0.1287822E+00
          2   -1    0    0  501    0  0.00000000000E+00  0.00000000000E+00  0.67371646444E+02  0.67371646444E+02  0.00000000000E+00 0. -1.
         -2   -1    0    0    0  501 -0.00000000000E+00 -0.00000000000E+00 -0.16989602699E+03  0.16989602699E+03  0.00000000000E+00 0.  1.
         23    2    1    2    0    0 -0.22316390508E+02 -0.19816762846E+02 -0.10460195920E+03  0.14279040461E+03  0.92502996737E+02 0.  0.
         23    2    1    2    0    0  0.22316390508E+02  0.19816762846E+02  0.20775786544E+01  0.94477268824E+02  0.89615359266E+02 0.  0.
          5    1    4    4  502    0  0.10944496145E+02  0.54406925227E+02  0.10820881672E+02  0.56736910285E+02  0.47000000000E+01 0. -1.
         -5    1    3    3    0  503 -0.42267611347E+02 -0.42655579401E+02 -0.91217901965E+02  0.10931077285E+03  0.47000000000E+01 0.  1.
          5    1    3    3  503    0  0.19951220838E+02  0.22838816555E+02 -0.13384057238E+02  0.33479631759E+02  0.47000000000E+01 0. -1.
         -5    1    4    4    0  502  0.11371894364E+02 -0.34590162381E+02 -0.87433030178E+01  0.37740358539E+02  0.47000000000E+01 0.  1.
<mgrwt>
<rscale>  0 0.96505025E+02</rscale>
<asrwt>0</asrwt>
<pdfrwt beam="1">  1        2 0.10364869E-01 0.97198404E+02</pdfrwt>
<pdfrwt beam="2">  1       -2 0.26137850E-01 0.97198404E+02</pdfrwt>
<totfact> 0.73801755E+03</totfact>
</mgrwt>
</event>
<event>
 8    1  0.9456677E-004  0.9417410E+02  0.7546771E-02  0.1293700E+00
         -2   -1    0    0    0  501 -0.00000000000E+00  0.00000000000E+00  0.77567804705E+02  0.77567804705E+02  0.00000000000E+00 0.  1.
          2   -1    0    0  501    0  0.00000000000E+00 -0.00000000000E+00 -0.11335390698E+03  0.11335390698E+03  0.00000000000E+00 0. -1.
         23    2    1    2    0    0 -0.21971475358E+02  0.54319846604E+01 -0.23435039163E+02  0.95941136369E+02  0.90239949027E+02 0.  0.
         23    2    1    2    0    0  0.21971475358E+02 -0.54319846604E+01 -0.12351063107E+02  0.94980575311E+02  0.91413941714E+02 0.  0.
          5    1    4    4  502    0  0.33524085926E+02  0.10970877873E+02 -0.44386609053E+02  0.56890118313E+02  0.47000000000E+01 0. -1.
         -5    1    4    4    0  502 -0.11552610568E+02 -0.16402862534E+02  0.32035545945E+02  0.38090456997E+02  0.47000000000E+01 0.  1.
          5    1    3    3  503    0  0.19450543223E+02  0.34286834479E+02  0.88778256712E+00  0.39708800135E+02  0.47000000000E+01 0. -1.
         -5    1    3    3    0  503 -0.41422018581E+02 -0.28854849819E+02 -0.24322821731E+02  0.56232336234E+02  0.47000000000E+01 0.  1.
<mgrwt>
<rscale>  0 0.93888009E+02</rscale>
<asrwt>0</asrwt>
<pdfrwt beam="1">  1        2 0.17439063E-01 0.94174099E+02</pdfrwt>
<pdfrwt beam="2">  1       -2 0.11933508E-01 0.94174099E+02</pdfrwt>
<totfact> 0.14629379E+04</totfact>
</mgrwt>
</event>
<event>
 8    1  0.9456677E-004  0.1394899E+03  0.7546771E-02  0.1225014E+00
          2   -1    0    0  501    0  0.00000000000E+00  0.00000000000E+00  0.64489471139E+03  0.64489471139E+03  0.00000000000E+00 0. -1.
         -2   -1    0    0    0  501 -0.00000000000E+00 -0.00000000000E+00 -0.24623288066E+02  0.24623288066E+02  0.00000000000E+00 0.  1.
         23    2    1    2    0    0  0.47525430806E+02  0.36716465057E+02  0.31497660802E+03  0.33386586101E+03  0.93002065410E+02 0.  0.
         23    2    1    2    0    0 -0.47525430806E+02 -0.36716465057E+02  0.30529481531E+03  0.33565213845E+03  0.12589943769E+03 0.  0.
          5    1    3    3  502    0  0.41045088010E+02  0.67363171802E+02  0.22684550853E+03  0.24021546766E+03  0.47000000000E+01 0. -1.
         -5    1    4    4    0  503 -0.32662250761E+01 -0.24006353833E+02 -0.21218882621E+01  0.24770257577E+02  0.47000000000E+01 0.  1.
          5    1    4    4  503    0 -0.44259205729E+02 -0.12710111224E+02  0.30741670357E+03  0.31088188087E+03  0.47000000000E+01 0. -1.
         -5    1    3    3    0  502  0.64803427956E+01 -0.30646706745E+02  0.88131099490E+02  0.93650393349E+02  0.47000000000E+01 0.  1.
<mgrwt>
<rscale>  0 0.13165924E+03</rscale>
<asrwt>0</asrwt>
<pdfrwt beam="1">  1        2 0.99214558E-01 0.13948991E+03</pdfrwt>
<pdfrwt beam="2">  1       -2 0.37881987E-02 0.13948991E+03</pdfrwt>
<totfact> 0.13178465E+04</totfact>
</mgrwt>
</event>
<event>
 8    1  0.9456677E-004  0.1019215E+03  0.7546771E-02  0.1276664E+00
         -1   -1    0    0    0  501 -0.00000000000E+00  0.00000000000E+00  0.35317401708E+03  0.35317401708E+03  0.00000000000E+00 0.  1.
          1   -1    0    0  501    0  0.00000000000E+00 -0.00000000000E+00 -0.29539383106E+02  0.29539383106E+02  0.00000000000E+00 0. -1.
         23    2    1    2    0    0  0.40038482434E+02 -0.17251193168E+02  0.18247796035E+03  0.20901241675E+03  0.92126546665E+02 0.  0.
         23    2    1    2    0    0 -0.40038482434E+02  0.17251193168E+02  0.14115667362E+03  0.17370098343E+03  0.91357218635E+02 0.  0.
          5    1    4    4  502    0  0.79082464072E+01 -0.23204434904E+02  0.76379054356E+01  0.26103903154E+02  0.47000000000E+01 0. -1.
         -5    1    3    3    0  503 -0.26114396419E+02  0.96241709349E+01  0.33989774151E+02  0.44181230329E+02  0.47000000000E+01 0.  1.
          5    1    3    3  503    0  0.66152878853E+02 -0.26875364103E+02  0.14848818620E+03  0.16483118642E+03  0.47000000000E+01 0. -1.
         -5    1    4    4    0  502 -0.47946728841E+02  0.40455628072E+02  0.13351876818E+03  0.14759708028E+03  0.47000000000E+01 0.  1.
<mgrwt>
<rscale>  0 0.10174730E+03</rscale>
<asrwt>0</asrwt>
<pdfrwt beam="1">  1        1 0.45445207E-02 0.10192146E+03</pdfrwt>
<pdfrwt beam="2">  1       -1 0.54334461E-01 0.10192146E+03</pdfrwt>
<totfact> 0.62052711E+03</totfact>
</mgrwt>
</event>
<event>
 8    1  0.9456677E-004  0.1177681E+03  0.7546771E-02  0.1247361E+00
          1   -1    0    0  501    0  0.00000000000E+00  0.00000000000E+00  0.21428283051E+03  0.21428283051E+03  0.00000000000E+00 0. -1.
         -1   -1    0    0    0  501 -0.00000000000E+00 -0.00000000000E+00 -0.76981580054E+02  0.76981580054E+02  0.00000000000E+00 0.  1.
         23    2    1    2    0    0 -0.80092202022E+01  0.70329003906E+02  0.86194164838E+01  0.11682722905E+03  0.92541832210E+02 0.  0.
         23    2    1    2    0    0  0.80092202022E+01 -0.70329003906E+02  0.12868183397E+03  0.17443718151E+03  0.94122258261E+02 0.  0.
          5    1    3    3  502    0  0.14196036685E+02 -0.19092399430E+02  0.16853885893E+01  0.24310033078E+02  0.47000000000E+01 0. -1.
         -5    1    3    3    0  502 -0.22205256887E+02  0.89421403336E+02  0.69340278945E+01  0.92517195974E+02  0.47000000000E+01 0.  1.
          5    1    4    4  503    0  0.35961884147E+02 -0.79978371355E+02  0.95059486382E+02  0.12941480961E+03  0.47000000000E+01 0. -1.
         -5    1    4    4    0  503 -0.27952663944E+02  0.96493674493E+01  0.33622347587E+02  0.45022371895E+02  0.47000000000E+01 0.  1.
<mgrwt>
<rscale>  0 0.11745198E+03</rscale>
<asrwt>0</asrwt>
<pdfrwt beam="1">  1        1 0.32966589E-01 0.11776806E+03</pdfrwt>
<pdfrwt beam="2">  1       -1 0.11843320E-01 0.11776806E+03</pdfrwt>
<totfact> 0.59315711E+03</totfact>
</mgrwt>
</event>
<event>
 7    1  0.9456677E-004  0.2759849E+03  0.7546771E-02  0.1134318E+00
          2   -1    0    0  501    0  0.00000000000E+00  0.00000000000E+00  0.15084303180E+04  0.15084303180E+04  0.00000000000E+00 0. -1.
         -2   -1    0    0    0  501 -0.00000000000E+00 -0.00000000000E+00 -0.11030086672E+03  0.11030086672E+03  0.00000000000E+00 0.  1.
         23    2    1    2    0    0  0.50699342433E+02 -0.28376040221E+02 -0.66207003537E+02  0.12861410031E+03  0.93715508324E+02 0.  0.
          5    1    1    2  502    0  0.83399519324E+02 -0.48135450479E+02  0.89575716051E+03  0.90093034249E+03  0.47000000000E+01 0. -1.
         -5    1    1    2    0  502 -0.13409886176E+03  0.76511490700E+02  0.56857929429E+03  0.58918674190E+03  0.47000000000E+01 0.  1.
          5    1    3    3  503    0 -0.13842417722E+02 -0.17318439085E+02  0.12690702956E+02  0.25974695422E+02  0.47000000000E+01 0. -1.
         -5    1    3    3    0  503  0.64541760156E+02 -0.11057601136E+02 -0.78897706492E+02  0.10263940489E+03  0.47000000000E+01 0.  1.
<mgrwt>
<rscale>  0 0.21941825E+03</rscale>
<asrwt>0</asrwt>
<pdfrwt beam="1">  1        2 0.23206619E+00 0.27598491E+03</pdfrwt>
<pdfrwt beam="2">  1       -2 0.16969365E-01 0.27598491E+03</pdfrwt>
<totfact> 0.37759287E+02</totfact>
</mgrwt>
</event>
<event>
 8    1  0.9456677E-004  0.1010110E+03  0.7546771E-02  0.1278693E+00
         -1   -1    0    0    0  501 -0.00000000000E+00  0.00000000000E+00  0.46687367200E+02  0.46687367200E+02  0.00000000000E+00 0.  1.
          1   -1    0    0  501    0  0.00000000000E+00 -0.00000000000E+00 -0.22449692069E+03  0.22449692069E+03  0.00000000000E+00 0. -1.
         23    2    1    2    0    0  0.31271666852E+02 -0.24870590096E+02 -0.62796153174E+02  0.11811142611E+03  0.91708716737E+02 0.  0.
         23    2    1    2    0    0 -0.31271666852E+02  0.24870590096E+02 -0.11501340032E+03  0.15307286178E+03  0.92772600272E+02 0.  0.
          5    1    4    4  502    0 -0.17433884020E+02  0.57889004708E+02 -0.49541155016E+02  0.78303851875E+02  0.47000000000E+01 0. -1.
         -5    1    4    4    0  502 -0.13837782832E+02 -0.33018414612E+02 -0.65472245303E+02  0.74769009905E+02  0.47000000000E+01 0.  1.
          5    1    3    3  503    0  0.44781142227E+01 -0.46844391878E+02 -0.67926520644E+02  0.82768066090E+02  0.47000000000E+01 0. -1.
         -5    1    3    3    0  503  0.26793552630E+02  0.21973801783E+02  0.51303674703E+01  0.35343360023E+02  0.47000000000E+01 0.  1.
<mgrwt>
<rscale>  0 0.10076604E+03</rscale>
<asrwt>0</asrwt>
<pdfrwt beam="1">  1        1 0.34537988E-01 0.10101098E+03</pdfrwt>
<pdfrwt beam="2">  1       -1 0.71826719E-02 0.10101098E+03</pdfrwt>
<totfact> 0.11782637E+04</totfact>
</mgrwt>
</event>
<event>
 8    1  0.9456677E-004  0.1192300E+03  0.7546771E-02  0.1245229E+00
         -1   -1    0    0    0  501 -0.00000000000E+00  0.00000000000E+00  0.80881190293E+02  0.80881190293E+02  0.00000000000E+00 0.  1.
          1   -1    0    0  501    0  0.00000000000E+00 -0.00000000000E+00 -0.18931050252E+03  0.18931050252E+03  0.00000000000E+00 0. -1.
         23    2    1    2    0    0  0.24282145163E+02 -0.69893916171E+02 -0.14708514203E+02  0.12013376959E+03  0.93493315880E+02 0.  0.
         23    2    1    2    0    0 -0.24282145163E+02  0.69893916171E+02 -0.93720798026E+02  0.15005792322E+03  0.90879096873E+02 0.  0.
          5    1    3    3  502    0 -0.24637366060E+02  0.69512058037E+00 -0.22589409531E+02  0.33761730138E+02  0.47000000000E+01 0. -1.
         -5    1    4    4    0  503 -0.48616583906E+02  0.22641932172E+02 -0.77359090957E+02  0.94248333019E+02  0.47000000000E+01 0. -1.
          5    1    4    4  503    0  0.24334438742E+02  0.47251983999E+02 -0.16361707070E+02  0.55809590206E+02  0.47000000000E+01 0.  1.
         -5    1    3    3    0  502  0.48919511223E+02 -0.70589036752E+02  0.78808953274E+01  0.86372039451E+02  0.47000000000E+01 0.  1.
<mgrwt>
<rscale>  0 0.11871698E+03</rscale>
<asrwt>0</asrwt>
<pdfrwt beam="1">  1        1 0.29124692E-01 0.11922996E+03</pdfrwt>
<pdfrwt beam="2">  1       -1 0.12443260E-01 0.11922996E+03</pdfrwt>
<totfact> 0.64135396E+03</totfact>
</mgrwt>
</event>
<event>
 8    1  0.9456677E-004  0.9530153E+02  0.7546771E-02  0.1291450E+00
         -1   -1    0    0    0  501 -0.00000000000E+00  0.00000000000E+00  0.57366096887E+02  0.57366096887E+02  0.00000000000E+00 0.  1.
          1   -1    0    0  501    0  0.00000000000E+00 -0.00000000000E+00 -0.33954950746E+03  0.33954950746E+03  0.00000000000E+00 0. -1.
         23    2    1    2    0    0  0.23794113057E+02 -0.34400754230E+01  0.55755069347E+01  0.93785966858E+02  0.90480535845E+02 0.  0.
         23    2    1    2    0    0 -0.23794113057E+02  0.34400754230E+01 -0.28775891751E+03  0.30312963749E+03  0.92219241941E+02 0.  0.
          5    1    3    3  502    0  0.36397397701E+01 -0.36039124215E+02 -0.25227722755E+02  0.44391375008E+02  0.47000000000E+01 0. -1.
         -5    1    3    3    0  502  0.20154373287E+02  0.32599048792E+02  0.30803229689E+02  0.49394591850E+02  0.47000000000E+01 0.  1.
          5    1    4    4  503    0 -0.42241852576E+02  0.30107739798E+02 -0.23742190981E+03  0.24306810437E+03  0.47000000000E+01 0. -1.
         -5    1    4    4    0  503  0.18447739518E+02 -0.26667664375E+02 -0.50337007698E+02  0.60061533119E+02  0.47000000000E+01 0.  1.
<mgrwt>
<rscale>  0 0.94878363E+02</rscale>
<asrwt>0</asrwt>
<pdfrwt beam="1">  1        1 0.52238386E-01 0.95301535E+02</pdfrwt>
<pdfrwt beam="2">  1       -1 0.88255533E-02 0.95301535E+02</pdfrwt>
<totfact> 0.51933576E+03</totfact>
</mgrwt>
</event>
<event>
 8    1  0.9456677E-004  0.1207088E+03  0.7546771E-02  0.1242627E+00
          1   -1    0    0  501    0  0.00000000000E+00  0.00000000000E+00  0.21206800710E+03  0.21206800710E+03  0.00000000000E+00 0. -1.
         -1   -1    0    0    0  501 -0.00000000000E+00 -0.00000000000E+00 -0.19470284075E+03  0.19470284075E+03  0.00000000000E+00 0.  1.
         23    2    1    2    0    0 -0.72954773633E+02  0.25686101526E+02  0.17293215324E+03  0.21089366962E+03  0.92673812137E+02 0.  0.
         23    2    1    2    0    0  0.72954773633E+02 -0.25686101526E+02 -0.15556698689E+03  0.19587717823E+03  0.90468816355E+02 0.  0.
          5    1    4    4  502    0  0.33485544156E+02  0.32436650498E+02 -0.79034422694E+02  0.91880073648E+02  0.47000000000E+01 0. -1.
         -5    1    4    4    0  502  0.39469229477E+02 -0.58122752025E+02 -0.76532564199E+02  0.10399710458E+03  0.47000000000E+01 0.  1.
          5    1    3    3  503    0 -0.40702168267E+02  0.40012821915E+02  0.16467011339E+03  0.17434456878E+03  0.47000000000E+01 0. -1.
         -5    1    3    3    0  503 -0.32252605366E+02 -0.14326720388E+02  0.82620398481E+01  0.36549100843E+02  0.47000000000E+01 0.  1.
<mgrwt>
<rscale>  0 0.12028544E+03</rscale>
<asrwt>0</asrwt>
<pdfrwt beam="1">  1        1 0.32625847E-01 0.12070878E+03</pdfrwt>
<pdfrwt beam="2">  1       -1 0.29954283E-01 0.12070878E+03</pdfrwt>
<totfact> 0.13682493E+03</totfact>
</mgrwt>
</event>
<event>
 8    1  0.9456677E-004  0.1062427E+03  0.7546771E-02  0.1274076E+00
          2   -1    0    0  501    0  0.00000000000E+00  0.00000000000E+00  0.53560370094E+03  0.53560370094E+03  0.00000000000E+00 0.  1.
         -2   -1    0    0    0  501 -0.00000000000E+00 -0.00000000000E+00 -0.20674370299E+02  0.20674370299E+02  0.00000000000E+00 0. -1.
         23    2    1    2    0    0  0.25672022791E+01 -0.13460363927E+02  0.18600658543E+03  0.21421006599E+03  0.10535525912E+03 0.  0.
         23    2    1    2    0    0 -0.25672022791E+01  0.13460363927E+02  0.32892274521E+03  0.34206800525E+03  0.92911656820E+02 0.  0.
          5    1    3    3  502    0 -0.30351412138E+02 -0.20762998700E+02  0.15240445765E+02  0.40083307260E+02  0.47000000000E+01 0. -1.
         -5    1    3    3    0  502  0.32918614417E+02  0.73026347733E+01  0.17076613966E+03  0.17412675873E+03  0.47000000000E+01 0.  1.
          5    1    4    4  503    0 -0.40854824625E+02  0.26789677532E+02  0.12898751176E+03  0.13800967976E+03  0.47000000000E+01 0. -1.
         -5    1    4    4    0  503  0.38287622346E+02 -0.13329313605E+02  0.19993523345E+03  0.20405832549E+03  0.47000000000E+01 0.  1.
<mgrwt>
<rscale>  0 0.10301724E+03</rscale>
<asrwt>0</asrwt>
<pdfrwt beam="1">  1        2 0.82400559E-01 0.10624266E+03</pdfrwt>
<pdfrwt beam="2">  1       -2 0.31806728E-02 0.10624266E+03</pdfrwt>
<totfact> 0.20558305E+04</totfact>
</mgrwt>
</event>
<event>
 8    1  0.9456677E-004  0.1098719E+03  0.7546771E-02  0.1261143E+00
          1   -1    0    0  501    0  0.00000000000E+00  0.00000000000E+00  0.40829239736E+03  0.40829239736E+03  0.00000000000E+00 0. -1.
         -1   -1    0    0    0  501 -0.00000000000E+00 -0.00000000000E+00 -0.29573150024E+02  0.29573150024E+02  0.00000000000E+00 0.  1.
         23    2    1    2    0    0 -0.60249857900E+02 -0.21008875481E+01  0.17073264817E+03  0.20264167806E+03  0.90992051464E+02 0.  0.
         23    2    1    2    0    0  0.60249857900E+02  0.21008875481E+01  0.20798659917E+03  0.23522386933E+03  0.91855234814E+02 0.  0.
          5    1    3    3  502    0  0.17448245298E+02  0.20845301660E+02  0.51297826105E+02  0.58245384610E+02  0.47000000000E+01 0. -1.
         -5    1    4    4    0  503  0.83622458844E+02 -0.41815130362E+01  0.14380312850E+03  0.16646810638E+03  0.47000000000E+01 0.  1.
          5    1    4    4  503    0 -0.23372600944E+02  0.62824005843E+01  0.64183470669E+02  0.68755762952E+02  0.47000000000E+01 0. -1.
         -5    1    3    3    0  502 -0.77698103198E+02 -0.22946189208E+02  0.11943482206E+03  0.14439629345E+03  0.47000000000E+01 0.  1.
<mgrwt>
<rscale>  0 0.10969134E+03</rscale>
<asrwt>0</asrwt>
<pdfrwt beam="1">  1        1 0.62814211E-01 0.10987194E+03</pdfrwt>
<pdfrwt beam="2">  1       -1 0.45497157E-02 0.10987194E+03</pdfrwt>
<totfact> 0.11149483E+04</totfact>
</mgrwt>
</event>
<event>
 8    1  0.9456677E-004  0.1013324E+03  0.7546771E-02  0.1282565E+00
          2   -1    0    0  501    0  0.00000000000E+00  0.00000000000E+00  0.67316316119E+03  0.67316316119E+03  0.00000000000E+00 0. -1.
         -2   -1    0    0    0  501 -0.00000000000E+00 -0.00000000000E+00 -0.21145797525E+02  0.21145797525E+02  0.00000000000E+00 0.  1.
         23    2    1    2    0    0  0.10982926160E+02  0.40145943755E+02  0.11252301338E+03  0.14538054028E+03  0.82108169424E+02 0.  0.
         23    2    1    2    0    0 -0.10982926160E+02 -0.40145943755E+02  0.53949435028E+03  0.54892841843E+03  0.92390113671E+02 0.  0.
          5    1    3    3  502    0 -0.14300177682E+02 -0.17660050565E+02  0.10818057791E+02  0.25602594440E+02  0.47000000000E+01 0. -1.
         -5    1    3    3    0  502  0.25283103842E+02  0.57805994320E+02  0.10170495559E+03  0.11977794584E+03  0.47000000000E+01 0.  1.
          5    1    4    4  503    0  0.26617885661E+02 -0.40019509554E+02  0.43687785000E+03  0.43953887064E+03  0.47000000000E+01 0. -1.
         -5    1    4    4    0  503 -0.37600811821E+02 -0.12643420087E+00  0.10261650028E+03  0.10938954779E+03  0.47000000000E+01 0.  1.
<mgrwt>
<rscale>  0 0.98928804E+02</rscale>
<asrwt>0</asrwt>
<pdfrwt beam="1">  1        2 0.10356355E+00 0.10133240E+03</pdfrwt>
<pdfrwt beam="2">  1       -2 0.32532001E-02 0.10133240E+03</pdfrwt>
<totfact> 0.15309717E+04</totfact>
</mgrwt>
</event>
<event>
 8    1  0.9456677E-004  0.9725835E+02  0.7546771E-02  0.1287138E+00
          1   -1    0    0  501    0  0.00000000000E+00  0.00000000000E+00  0.31508792215E+03  0.31508792215E+03  0.00000000000E+00 0. -1.
         -1   -1    0    0    0  501 -0.00000000000E+00 -0.00000000000E+00 -0.33982742796E+02  0.33982742796E+02  0.00000000000E+00 0.  1.
         23    2    1    2    0    0 -0.22450434900E+02  0.15282639346E+02  0.78138562922E+02  0.12475905676E+03  0.93389539757E+02 0.  0.
         23    2    1    2    0    0  0.22450434900E+02 -0.15282639346E+02  0.20296661643E+03  0.22431160818E+03  0.91556917203E+02 0.  0.
          5    1    3    3  502    0  0.35548539829E+02  0.44459824271E+01  0.17959189699E+02  0.40349571725E+02  0.47000000000E+01 0. -1.
         -5    1    3    3    0  502 -0.57998974729E+02  0.10836656919E+02  0.60179373223E+02  0.84409485038E+02  0.47000000000E+01 0.  1.
          5    1    4    4  503    0  0.18307041276E+02  0.28581674582E+02  0.15609332998E+03  0.15981012967E+03  0.47000000000E+01 0. -1.
         -5    1    4    4    0  503  0.41433936241E+01 -0.43864313928E+02  0.46873286449E+02  0.64501478507E+02  0.47000000000E+01 0.  1.
<mgrwt>
<rscale>  0 0.96815753E+02</rscale>
<asrwt>0</asrwt>
<pdfrwt beam="1">  1        1 0.48475063E-01 0.97258353E+02</pdfrwt>
<pdfrwt beam="2">  1       -1 0.52281145E-02 0.97258353E+02</pdfrwt>
<totfact> 0.12401377E+04</totfact>
</mgrwt>
</event>
<event>
 8    1  0.9456677E-004  0.9158709E+02  0.7546771E-02  0.1299552E+00
          2   -1    0    0  501    0  0.00000000000E+00  0.00000000000E+00  0.45980742868E+02  0.45980742868E+02  0.00000000000E+00 0. -1.
         -2   -1    0    0    0  501 -0.00000000000E+00 -0.00000000000E+00 -0.28426069411E+03  0.28426069411E+03  0.00000000000E+00 0.  1.
         23    2    1    2    0    0 -0.58922636146E+00 -0.89466423273E+01 -0.19854183567E+02  0.93714373205E+02  0.91147164210E+02 0.  0.
         23    2    1    2    0    0  0.58922636146E+00  0.89466423273E+01 -0.21842576767E+03  0.23652706377E+03  0.90304187696E+02 0.  0.
          5    1    4    4  502    0  0.34083856708E+02 -0.13864274053E+01 -0.32778026330E+02  0.47540724428E+02  0.47000000000E+01 0. -1.
         -5    1    3    3    0  503 -0.34913774548E+02  0.13104870022E+02 -0.33591545224E+02  0.50410228942E+02  0.47000000000E+01 0.  1.
          5    1    3    3  503    0  0.34324548186E+02 -0.22051512350E+02  0.13737361657E+02  0.43304144264E+02  0.47000000000E+01 0. -1.
         -5    1    4    4    0  502 -0.33494630346E+02  0.10333069733E+02 -0.18564774134E+03  0.18898633934E+03  0.47000000000E+01 0.  1.
<mgrwt>
<rscale>  0 0.91376644E+02</rscale>
<asrwt>0</asrwt>
<pdfrwt beam="1">  1        2 0.70739604E-02 0.91587090E+02</pdfrwt>
<pdfrwt beam="2">  1       -2 0.43732415E-01 0.91587090E+02</pdfrwt>
<totfact> 0.46015922E+03</totfact>
</mgrwt>
</event>
<event>
 8    1  0.9456677E-004  0.9356402E+02  0.7546771E-02  0.1294996E+00
         -1   -1    0    0    0  501 -0.00000000000E+00  0.00000000000E+00  0.65240093116E+02  0.65240093116E+02  0.00000000000E+00 0.  1.
          1   -1    0    0  501    0  0.00000000000E+00 -0.00000000000E+00 -0.17538742950E+03  0.17538742950E+03  0.00000000000E+00 0. -1.
         23    2    1    2    0    0 -0.35390697399E+01 -0.21662954764E+02 -0.11456119673E+03  0.14791380593E+03  0.90952831546E+02 0.  0.
         23    2    1    2    0    0  0.35390697399E+01  0.21662954764E+02  0.44138603445E+01  0.92713716682E+02  0.89969675303E+02 0.  0.
          5    1    4    4  502    0 -0.21706841755E+02 -0.92129781387E+01 -0.30957342388E+02  0.39198379978E+02  0.47000000000E+01 0. -1.
         -5    1    4    4    0  502  0.25245911495E+02  0.30875932903E+02  0.35371202732E+02  0.53515336704E+02  0.47000000000E+01 0.  1.
          5    1    3    3  503    0 -0.39876718536E+02 -0.95763649433E+01 -0.20172977801E+02  0.45944515234E+02  0.47000000000E+01 0. -1.
         -5    1    3    3    0  503  0.36337648796E+02 -0.12086589821E+02 -0.94388218928E+02  0.10196929070E+03  0.47000000000E+01 0.  1.
<mgrwt>
<rscale>  0 0.93324244E+02</rscale>
<asrwt>0</asrwt>
<pdfrwt beam="1">  1        1 0.26982682E-01 0.93564022E+02</pdfrwt>
<pdfrwt beam="2">  1       -1 0.10036937E-01 0.93564022E+02</pdfrwt>
<totfact> 0.95995027E+03</totfact>
</mgrwt>
</event>
<event>
 8    1  0.9456677E-004  0.1665552E+03  0.7546771E-02  0.1181644E+00
         -1   -1    0    0    0  501 -0.00000000000E+00  0.00000000000E+00  0.31010843609E+02  0.31010843609E+02  0.00000000000E+00 0.  1.
          1   -1    0    0  501    0  0.00000000000E+00 -0.00000000000E+00 -0.90877170065E+03  0.90877170065E+03  0.00000000000E+00 0. -1.
         23    2    1    2    0    0  0.92543267188E+02  0.10404205482E+03 -0.37471871625E+03  0.41006675885E+03  0.91387225208E+02 0.  0.
         23    2    1    2    0    0 -0.92543267188E+02 -0.10404205482E+03 -0.50304214079E+03  0.52971578541E+03  0.90323930537E+02 0.  0.
          5    1    3    3  502    0  0.72614400223E+02  0.20755755714E+02 -0.22670466086E+03  0.23899946814E+03  0.47000000000E+01 0. -1.
         -5    1    4    4    0  503 -0.10756168781E+03 -0.75997679039E+02 -0.43369150007E+03  0.45327207187E+03  0.47000000000E+01 0.  1.
          5    1    4    4  503    0  0.15018420627E+02 -0.28044375785E+02 -0.69350640712E+02  0.76443713532E+02  0.47000000000E+01 0. -1.
         -5    1    3    3    0  502  0.19928866965E+02  0.83286299110E+02 -0.14801405539E+03  0.17106729071E+03  0.47000000000E+01 0.  1.
<mgrwt>
<rscale>  0 0.16640974E+03</rscale>
<asrwt>0</asrwt>
<pdfrwt beam="1">  1        1 0.13981103E+00 0.16655519E+03</pdfrwt>
<pdfrwt beam="2">  1       -1 0.47708991E-02 0.16655519E+03</pdfrwt>
<totfact> 0.35018446E+03</totfact>
</mgrwt>
</event>
<event>
 8    1  0.9456677E-004  0.1229237E+03  0.7546771E-02  0.1239349E+00
         -2   -1    0    0    0  501 -0.00000000000E+00  0.00000000000E+00  0.14782438924E+02  0.14782438924E+02  0.00000000000E+00 0.  1.
          2   -1    0    0  501    0  0.00000000000E+00 -0.00000000000E+00 -0.10527303008E+04  0.10527303008E+04  0.00000000000E+00 0. -1.
         23    2    1    2    0    0 -0.72026088512E+00 -0.79868522020E+02 -0.40649728544E+03  0.42467667957E+03  0.93438426322E+02 0.  0.
         23    2    1    2    0    0  0.72026088512E+00  0.79868522020E+02 -0.63145057647E+03  0.64283606019E+03  0.90160247180E+02 0.  0.
          5    1    3    3  502    0 -0.69601806010E+01 -0.37368471245E+02 -0.35667549421E+03  0.35872600258E+03  0.47000000000E+01 0. -1.
         -5    1    4    4    0  503  0.45145716400E+02  0.41100590610E+02 -0.31037373396E+03  0.31635634812E+03  0.47000000000E+01 0.  1.
          5    1    4    4  503    0 -0.44425455515E+02  0.38767931410E+02 -0.32107684250E+03  0.32647971207E+03  0.47000000000E+01 0. -1.
         -5    1    3    3    0  502  0.62399197159E+01 -0.42500050775E+02 -0.49821791234E+02  0.65950676992E+02  0.47000000000E+01 0.  1.
<mgrwt>
<rscale>  0 0.12230074E+03</rscale>
<asrwt>0</asrwt>
<pdfrwt beam="1">  1        2 0.16195856E+00 0.12292371E+03</pdfrwt>
<pdfrwt beam="2">  1       -2 0.22742206E-02 0.12292371E+03</pdfrwt>
<totfact> 0.14858102E+04</totfact>
</mgrwt>
</event>
<event>
 8    1  0.9456677E-004  0.9929972E+02  0.7546771E-02  0.1281989E+00
          3   -1    0    0  501    0  0.00000000000E+00  0.00000000000E+00  0.24236138999E+03  0.24236138999E+03  0.00000000000E+00 0. -1.
         -3   -1    0    0    0  501 -0.00000000000E+00 -0.00000000000E+00 -0.47944120480E+02  0.47944120480E+02  0.00000000000E+00 0.  1.
         23    2    1    2    0    0 -0.36815681474E+02 -0.91148869252E+01  0.39925886739E+02  0.10665360854E+03  0.91336959753E+02 0.  0.
         23    2    1    2    0    0  0.36815681474E+02  0.91148869252E+01  0.15449138277E+03  0.18365190193E+03  0.91771227329E+02 0.  0.
          5    1    3    3  502    0  0.16268942984E+02 -0.30334802622E+02  0.34621815425E+02  0.49047312457E+02  0.47000000000E+01 0. -1.
         -5    1    3    3    0  502 -0.53084624458E+02  0.21219915697E+02  0.53040713137E+01  0.57606296084E+02  0.47000000000E+01 0.  1.
          5    1    4    4  503    0  0.64464100339E+02  0.14789225151E+02  0.80318254298E+02  0.10415110843E+03  0.47000000000E+01 0. -1.
         -5    1    4    4    0  503 -0.27648418865E+02 -0.56743382258E+01  0.74173128470E+02  0.79500793500E+02  0.47000000000E+01 0.  1.
<mgrwt>
<rscale>  0 0.99199263E+02</rscale>
<asrwt>0</asrwt>
<pdfrwt beam="1">  1        3 0.37286367E-01 0.99299717E+02</pdfrwt>
<pdfrwt beam="2">  1       -3 0.73760187E-02 0.99299717E+02</pdfrwt>
<totfact> 0.18768019E+03</totfact>
</mgrwt>
</event>
<event>
 8    1  0.9456677E-004  0.1367980E+03  0.7546771E-02  0.1222358E+00
          1   -1    0    0  501    0  0.00000000000E+00  0.00000000000E+00  0.45404570865E+03  0.45404570865E+03  0.00000000000E+00 0. -1.
         -1   -1    0    0    0  501 -0.00000000000E+00 -0.00000000000E+00 -0.11376756624E+03  0.11376756624E+03  0.00000000000E+00 0.  1.
         23    2    1    2    0    0 -0.44522064791E+02  0.69558179362E+02 -0.59537118826E+02  0.14919237226E+03  0.10905567776E+03 0.  0.
         23    2    1    2    0    0  0.44522064791E+02 -0.69558179362E+02  0.39981526124E+03  0.41862090263E+03  0.92577872242E+02 0.  0.
          5    1    3    3  502    0  0.35540525502E+02  0.27250289046E+02 -0.11050244254E+02  0.46367069177E+02  0.47000000000E+01 0. -1.
         -5    1    4    4    0  503  0.28277670403E+02  0.16847469129E+02  0.15301862906E+03  0.15658944632E+03  0.47000000000E+01 0.  1.
          5    1    4    4  503    0  0.16244394388E+02 -0.86405648492E+02  0.24679663218E+03  0.26203145631E+03  0.47000000000E+01 0. -1.
         -5    1    3    3    0  502 -0.80062590293E+02  0.42307890316E+02 -0.48486874572E+02  0.10282530308E+03  0.47000000000E+01 0.  1.
<mgrwt>
<rscale>  0 0.13349622E+03</rscale>
<asrwt>0</asrwt>
<pdfrwt beam="1">  1        1 0.69853185E-01 0.13679801E+03</pdfrwt>
<pdfrwt beam="2">  1       -1 0.17502703E-01 0.13679801E+03</pdfrwt>
<totfact> 0.12754721E+03</totfact>
</mgrwt>
</event>
<event>
 8    1  0.9456677E-004  0.1006060E+03  0.7546771E-02  0.1279917E+00
          3   -1    0    0  501    0  0.00000000000E+00  0.00000000000E+00  0.28086295954E+02  0.28086295954E+02  0.00000000000E+00 0. -1.
         -3   -1    0    0    0  501 -0.00000000000E+00 -0.00000000000E+00 -0.41427516900E+03  0.41427516900E+03  0.00000000000E+00 0.  1.
         23    2    1    2    0    0  0.86784765841E+01  0.41683112288E+02 -0.11036733287E+03  0.14934023674E+03  0.91152401713E+02 0.  0.
         23    2    1    2    0    0 -0.86784765841E+01 -0.41683112288E+02 -0.27582154018E+03  0.29302122822E+03  0.89281131014E+02 0.  0.
          5    1    3    3  502    0 -0.22466887631E+02  0.59258676160E+02 -0.60068731328E+02  0.87445378514E+02  0.47000000000E+01 0. -1.
         -5    1    3    3    0  502  0.31145364215E+02 -0.17575563872E+02 -0.50298601540E+02  0.61894858223E+02  0.47000000000E+01 0.  1.
          5    1    4    4  503    0 -0.38490760138E+02  0.31226944773E+01 -0.16772226565E+03  0.17217473169E+03  0.47000000000E+01 0. -1.
         -5    1    4    4    0  503  0.29812283554E+02 -0.44805806765E+02 -0.10809927453E+03  0.12084649653E+03  0.47000000000E+01 0.  1.
<mgrwt>
<rscale>  0 0.10018019E+03</rscale>
<asrwt>0</asrwt>
<pdfrwt beam="1">  1        3 0.43209687E-02 0.10060595E+03</pdfrwt>
<pdfrwt beam="2">  1       -3 0.63734640E-01 0.10060595E+03</pdfrwt>
<totfact> 0.15194830E+03</totfact>
</mgrwt>
</event>
<event>
 8    1  0.9456677E-004  0.2762661E+03  0.7546771E-02  0.1097752E+00
          2   -1    0    0  501    0  0.00000000000E+00  0.00000000000E+00  0.19821488532E+04  0.19821488532E+04  0.00000000000E+00 0. -1.
         -2   -1    0    0    0  501 -0.00000000000E+00 -0.00000000000E+00 -0.38601710215E+02  0.38601710215E+02  0.00000000000E+00 0.  1.
         23    2    1    2    0    0 -0.79125873023E+02 -0.24827656767E+03  0.91976407894E+03  0.96035875193E+03  0.91764991507E+02 0.  0.
         23    2    1    2    0    0  0.79125873023E+02  0.24827656767E+03  0.10237830641E+04  0.10603918115E+04  0.91634457504E+02 0.  0.
          5    1    4    4  502    0  0.24959612339E+02  0.33022056364E+02  0.31250660898E+03  0.31527116759E+03  0.47000000000E+01 0. -1.
         -5    1    4    4    0  502  0.54166260685E+02  0.21525451131E+03  0.71127645508E+03  0.74512064392E+03  0.47000000000E+01 0. -1.
          5    1    3    3  503    0 -0.23282442846E+02 -0.63620085946E+01  0.13574919217E+03  0.13795825627E+03  0.47000000000E+01 0. -1.
         -5    1    3    3    0  503 -0.55843430177E+02 -0.24191455908E+03  0.78401488677E+03  0.82240049566E+03  0.47000000000E+01 0.  1.
<mgrwt>
<rscale>  0 0.27625529E+03</rscale>
<asrwt>0</asrwt>
<pdfrwt beam="1">  1        2 0.30494590E+00 0.27626612E+03</pdfrwt>
<pdfrwt beam="2">  1       -2 0.59387262E-02 0.27626612E+03</pdfrwt>
<totfact> 0.11410378E+03</totfact>
</mgrwt>
</event>
<event>
 8    1  0.9456677E-004  0.1195313E+03  0.7546771E-02  0.1247311E+00
          2   -1    0    0  501    0  0.00000000000E+00  0.00000000000E+00  0.78907118729E+02  0.78907118729E+02  0.00000000000E+00 0. -1.
         -2   -1    0    0    0  501 -0.00000000000E+00 -0.00000000000E+00 -0.21044790005E+03  0.21044790005E+03  0.00000000000E+00 0.  1.
         23    2    1    2    0    0  0.49188111977E+02 -0.60639603404E+02 -0.13164572193E+03  0.17781540703E+03  0.90504646380E+02 0.  0.
         23    2    1    2    0    0 -0.49188111977E+02  0.60639603404E+02  0.10494060692E+00  0.11153961174E+03  0.79652006343E+02 0.  0.
          5    1    4    4  502    0 -0.17199631963E+02  0.19897721969E+02  0.38520234156E+02  0.46879047758E+02  0.47000000000E+01 0. -1.
         -5    1    3    3    0  503  0.71353834874E+02 -0.43413239876E+02 -0.12167092338E+03  0.14765494487E+03  0.47000000000E+01 0.  1.
          5    1    3    3  503    0 -0.22165722897E+02 -0.17226363528E+02 -0.99747985419E+01  0.30160462163E+02  0.47000000000E+01 0. -1.
         -5    1    4    4    0  502 -0.31988480014E+02  0.40741881435E+02 -0.38415293549E+02  0.64660563985E+02  0.47000000000E+01 0.  1.
<mgrwt>
<rscale>  0 0.11748120E+03</rscale>
<asrwt>0</asrwt>
<pdfrwt beam="1">  1        2 0.12139557E-01 0.11953126E+03</pdfrwt>
<pdfrwt beam="2">  1       -2 0.32376600E-01 0.11953126E+03</pdfrwt>
<totfact> 0.42365151E+03</totfact>
</mgrwt>
</event>
<event>
 8    1  0.9456677E-004  0.1148949E+03  0.7546771E-02  0.1253706E+00
          2   -1    0    0  501    0  0.00000000000E+00  0.00000000000E+00  0.23662611198E+03  0.23662611198E+03  0.00000000000E+00 0. -1.
         -2   -1    0    0    0  501 -0.00000000000E+00 -0.00000000000E+00 -0.81075487662E+02  0.81075487662E+02  0.00000000000E+00 0.  1.
         23    2    1    2    0    0  0.62093084090E+02 -0.26109620673E+02 -0.15521317342E+02  0.11162770066E+03  0.87650264572E+02 0.  0.
         23    2    1    2    0    0 -0.62093084090E+02  0.26109620673E+02  0.17107194167E+03  0.20607389898E+03  0.93078349975E+02 0.  0.
          5    1    4    4  502    0 -0.25350710890E+02  0.33798925226E+02  0.16156812527E+03  0.16706697756E+03  0.47000000000E+01 0. -1.
         -5    1    4    4    0  502 -0.36742373200E+02 -0.76893045536E+01  0.95038164001E+01  0.39006921425E+02  0.47000000000E+01 0.  1.
          5    1    3    3  503    0  0.25479933611E+02  0.23390550876E+02  0.20161690627E+02  0.40310403819E+02  0.47000000000E+01 0. -1.
         -5    1    3    3    0  503  0.36613150479E+02 -0.49500171548E+02 -0.35683007969E+02  0.71317296843E+02  0.47000000000E+01 0.  1.
<mgrwt>
<rscale>  0 0.11379123E+03</rscale>
<asrwt>0</asrwt>
<pdfrwt beam="1">  1        2 0.36404017E-01 0.11489492E+03</pdfrwt>
<pdfrwt beam="2">  1       -2 0.12473152E-01 0.11489492E+03</pdfrwt>
<totfact> 0.61953637E+03</totfact>
</mgrwt>
</event>
<event>
 8    1  0.9456677E-004  0.1025095E+03  0.7546771E-02  0.1276087E+00
          1   -1    0    0  501    0  0.00000000000E+00  0.00000000000E+00  0.28495943226E+03  0.28495943226E+03  0.00000000000E+00 0. -1.
         -1   -1    0    0    0  501 -0.00000000000E+00 -0.00000000000E+00 -0.36391916544E+02  0.36391916544E+02  0.00000000000E+00 0.  1.
         23    2    1    2    0    0 -0.33839536093E+02  0.28837244588E+02  0.11121478942E+03  0.14996301252E+03  0.90241203777E+02 0.  0.
         23    2    1    2    0    0  0.33839536093E+02 -0.28837244588E+02  0.13735272629E+03  0.17138833628E+03  0.92366062574E+02 0.  0.
          5    1    4    4  502    0  0.99799965208E+01  0.33594284293E+02  0.51915393525E+02  0.62813011013E+02  0.47000000000E+01 0. -1.
         -5    1    4    4    0  502  0.23859539572E+02 -0.62431528881E+02  0.85437332764E+02  0.10857532527E+03  0.47000000000E+01 0.  1.
          5    1    3    3  503    0 -0.56217226300E+02  0.17589540892E+02  0.10949468580E+03  0.12442244452E+03  0.47000000000E+01 0. -1.
         -5    1    3    3    0  503  0.22377690207E+02  0.11247703695E+02  0.17201036257E+01  0.25540568003E+02  0.47000000000E+01 0.  1.
<mgrwt>
<rscale>  0 0.10202850E+03</rscale>
<asrwt>0</asrwt>
<pdfrwt beam="1">  1        1 0.43839911E-01 0.10250946E+03</pdfrwt>
<pdfrwt beam="2">  1       -1 0.55987566E-02 0.10250946E+03</pdfrwt>
<totfact> 0.12742220E+04</totfact>
</mgrwt>
</event>
<event>
 8    1  0.9456677E-004  0.1151975E+03  0.7546771E-02  0.1252913E+00
         -2   -1    0    0    0  501 -0.00000000000E+00  0.00000000000E+00  0.54442657367E+02  0.54442657367E+02  0.00000000000E+00 0.  1.
          2   -1    0    0  501    0  0.00000000000E+00 -0.00000000000E+00 -0.26698440519E+03  0.26698440519E+03  0.00000000000E+00 0. -1.
         23    2    1    2    0    0 -0.62637355973E+02 -0.28145167570E+02 -0.15960825367E+03  0.19465005489E+03  0.87739731075E+02 0.  0.
         23    2    1    2    0    0  0.62637355973E+02  0.28145167570E+02 -0.52933494158E+02  0.12677700767E+03  0.92492518882E+02 0.  0.
          5    1    3    3  502    0 -0.14199359392E+02  0.16873521136E+02 -0.10883424839E+03  0.11114549539E+03  0.47000000000E+01 0. -1.
         -5    1    3    3    0  502 -0.48437996581E+02 -0.45018688706E+02 -0.50774005279E+02  0.83504559502E+02  0.47000000000E+01 0.  1.
          5    1    4    4  503    0 -0.11146238408E+02  0.38669359819E+02 -0.18281980975E+02  0.44450858797E+02  0.47000000000E+01 0. -1.
         -5    1    4    4    0  503  0.73783594381E+02 -0.10524192249E+02 -0.34651513183E+02  0.82326148872E+02  0.47000000000E+01 0.  1.
<mgrwt>
<rscale>  0 0.11424060E+03</rscale>
<asrwt>0</asrwt>
<pdfrwt beam="1">  1        2 0.41074523E-01 0.11519746E+03</pdfrwt>
<pdfrwt beam="2">  1       -2 0.83757935E-02 0.11519746E+03</pdfrwt>
<totfact> 0.10182206E+04</totfact>
</mgrwt>
</event>
<event>
 8    1  0.9456677E-004  0.3369553E+03  0.7546771E-02  0.1068152E+00
         -1   -1    0    0    0  501 -0.00000000000E+00  0.00000000000E+00  0.27753790630E+03  0.27753790630E+03  0.00000000000E+00 0.  1.
          1   -1    0    0  501    0  0.00000000000E+00 -0.00000000000E+00 -0.65000475467E+03  0.65000475467E+03  0.00000000000E+00 0. -1.
         23    2    1    2    0    0  0.38548409803E+02  0.32225239612E+03 -0.46899917465E+03  0.57749382314E+03  0.90588648471E+02 0.  0.
         23    2    1    2    0    0 -0.38548409803E+02 -0.32225239612E+03  0.96532326280E+02  0.35004883783E+03  0.88786891712E+02 0.  0.
          5    1    4    4  502    0 -0.28317688993E+02 -0.28553693498E+02 -0.62287106002E+00  0.40492998044E+02  0.47000000000E+01 0. -1.
         -5    1    4    4    0  502 -0.10230720810E+02 -0.29369870263E+03  0.97155197340E+02  0.30955583978E+03  0.47000000000E+01 0.  1.
          5    1    3    3  503    0  0.21197996603E+02  0.19772890704E+03 -0.35876104960E+03  0.41021659700E+03  0.47000000000E+01 0. -1.
         -5    1    3    3    0  503  0.17350413200E+02  0.12452348908E+03 -0.11023812505E+03  0.16727722614E+03  0.47000000000E+01 0.  1.
<mgrwt>
<rscale>  0 0.33683528E+03</rscale>
<asrwt>0</asrwt>
<pdfrwt beam="1">  1        1 0.10000073E+00 0.33695532E+03</pdfrwt>
<pdfrwt beam="2">  1       -1 0.42698140E-01 0.33695532E+03</pdfrwt>
<totfact> 0.17267985E+02</totfact>
</mgrwt>
</event>
<event>
 8    1  0.9456677E-004  0.1456623E+03  0.7546771E-02  0.1206289E+00
          1   -1    0    0  501    0  0.00000000000E+00  0.00000000000E+00  0.29536358242E+03  0.29536358242E+03  0.00000000000E+00 0. -1.
         -1   -1    0    0    0  501 -0.00000000000E+00 -0.00000000000E+00 -0.15337976098E+03  0.15337976098E+03  0.00000000000E+00 0.  1.
         23    2    1    2    0    0  0.30533946829E+02  0.10881440205E+03 -0.93328970386E+02  0.17199504503E+03  0.89995015415E+02 0.  0.
         23    2    1    2    0    0 -0.30533946829E+02 -0.10881440205E+03  0.23531279182E+03  0.27674829837E+03  0.91894584458E+02 0.  0.
          5    1    3    3  502    0 -0.30176037227E+02  0.19501045775E+02 -0.20182819719E+02  0.41476743132E+02  0.47000000000E+01 0. -1.
         -5    1    4    4    0  503  0.29206664707E+02 -0.18703424586E+02  0.37679680598E+02  0.51426604832E+02  0.47000000000E+01 0.  1.
          5    1    4    4  503    0 -0.59740611537E+02 -0.90110977465E+02  0.19763311122E+03  0.22532169354E+03  0.47000000000E+01 0. -1.
         -5    1    3    3    0  502  0.60709984056E+02  0.89313356276E+02 -0.73146150668E+02  0.13051830190E+03  0.47000000000E+01 0.  1.
<mgrwt>
<rscale>  0 0.14536368E+03</rscale>
<asrwt>0</asrwt>
<pdfrwt beam="1">  1        1 0.45440551E-01 0.14566232E+03</pdfrwt>
<pdfrwt beam="2">  1       -1 0.23596886E-01 0.14566232E+03</pdfrwt>
<totfact> 0.13544707E+03</totfact>
</mgrwt>
</event>
<event>
 8    1  0.9456677E-004  0.1053596E+03  0.7546771E-02  0.1269660E+00
          1   -1    0    0  501    0  0.00000000000E+00  0.00000000000E+00  0.91943911499E+02  0.91943911499E+02  0.00000000000E+00 0. -1.
         -1   -1    0    0    0  501 -0.00000000000E+00 -0.00000000000E+00 -0.35522332445E+03  0.35522332445E+03  0.00000000000E+00 0.  1.
         23    2    1    2    0    0 -0.40306704017E+02  0.38312592173E+02 -0.31341280127E+03  0.33048820250E+03  0.88895347933E+02 0.  0.
         23    2    1    2    0    0  0.40306704017E+02 -0.38312592173E+02  0.50133388320E+02  0.11667903345E+03  0.89488295962E+02 0.  0.
          5    1    4    4  502    0  0.33994033397E+02 -0.36384753736E+01  0.68468640017E+02  0.76673838273E+02  0.47000000000E+01 0. -1.
         -5    1    3    3    0  503 -0.37603637090E+02  0.66240201256E+02 -0.23436702092E+03  0.24647877856E+03  0.47000000000E+01 0.  1.
          5    1    3    3  503    0 -0.27030669264E+01 -0.27927609082E+02 -0.79045780351E+02  0.84009423942E+02  0.47000000000E+01 0. -1.
         -5    1    4    4    0  502  0.63126706200E+01 -0.34674116800E+02 -0.18335251698E+02  0.40005195175E+02  0.47000000000E+01 0.  1.
<mgrwt>
<rscale>  0 0.10523356E+03</rscale>
<asrwt>0</asrwt>
<pdfrwt beam="1">  1        1 0.14145217E-01 0.10535958E+03</pdfrwt>
<pdfrwt beam="2">  1       -1 0.54649742E-01 0.10535958E+03</pdfrwt>
<totfact> 0.13615829E+03</totfact>
</mgrwt>
</event>
<event>
 8    1  0.9456677E-004  0.9694407E+02  0.7546771E-02  0.1288456E+00
          1   -1    0    0  501    0  0.00000000000E+00  0.00000000000E+00  0.73144646655E+02  0.73144646655E+02  0.00000000000E+00 0. -1.
         -1   -1    0    0    0  501 -0.00000000000E+00 -0.00000000000E+00 -0.29575665116E+03  0.29575665116E+03  0.00000000000E+00 0.  1.
         23    2    1    2    0    0 -0.24769366628E+02  0.14655460771E+02 -0.25227721013E+03  0.27026273038E+03  0.92573476920E+02 0.  0.
         23    2    1    2    0    0  0.24769366628E+02 -0.14655460771E+02  0.29665205629E+02  0.98638567430E+02  0.89561367263E+02 0.  0.
          5    1    3    3  502    0 -0.17430302613E+02  0.46890158890E+02 -0.21234611215E+03  0.21820967851E+03  0.47000000000E+01 0.  1.
         -5    1    3    3    0  502 -0.73390640153E+01 -0.32234698119E+02 -0.39931097983E+02  0.52053051875E+02  0.47000000000E+01 0. -1.
          5    1    4    4  503    0 -0.18682941151E+02 -0.24467534346E+02  0.41898699364E+02  0.52204439806E+02  0.47000000000E+01 0. -1.
         -5    1    4    4    0  503  0.43452307780E+02  0.98120735753E+01 -0.12233493735E+02  0.46434127624E+02  0.47000000000E+01 0.  1.
<mgrwt>
<rscale>  0 0.96217937E+02</rscale>
<asrwt>0</asrwt>
<pdfrwt beam="1">  1        1 0.11253023E-01 0.96944070E+02</pdfrwt>
<pdfrwt beam="2">  1       -1 0.45501023E-01 0.96944070E+02</pdfrwt>
<totfact> 0.25425802E+03</totfact>
</mgrwt>
</event>
<event>
 8    1  0.9456677E-004  0.1311216E+03  0.7546771E-02  0.1226394E+00
          1   -1    0    0  501    0  0.00000000000E+00  0.00000000000E+00  0.25810474072E+03  0.25810474072E+03  0.00000000000E+00 0. -1.
         -1   -1    0    0    0  501 -0.00000000000E+00 -0.00000000000E+00 -0.10949093093E+03  0.10949093093E+03  0.00000000000E+00 0.  1.
         23    2    1    2    0    0 -0.74234845910E+02 -0.58203792308E+02  0.19068689047E+03  0.23141817470E+03  0.91073528512E+02 0.  0.
         23    2    1    2    0    0  0.74234845910E+02  0.58203792308E+02 -0.42073080682E+02  0.13617749696E+03  0.88744987312E+02 0.  0.
          5    1    4    4  502    0 -0.56455465553E+01  0.37055464703E+02 -0.37586533300E+02  0.53289934752E+02  0.47000000000E+01 0. -1.
         -5    1    3    3    0  503  0.14504476336E+02 -0.17139997469E+02  0.82535139354E+01  0.24379701379E+02  0.47000000000E+01 0.  1.
          5    1    3    3  503    0 -0.88739322246E+02 -0.41063794839E+02  0.18243337653E+03  0.20703847332E+03  0.47000000000E+01 0. -1.
         -5    1    4    4    0  502  0.79880392466E+02  0.21148327605E+02 -0.44865473812E+01  0.82887562205E+02  0.47000000000E+01 0.  1.
<mgrwt>
<rscale>  0 0.13071814E+03</rscale>
<asrwt>0</asrwt>
<pdfrwt beam="1">  1        1 0.39708421E-01 0.13112163E+03</pdfrwt>
<pdfrwt beam="2">  1       -1 0.16844759E-01 0.13112163E+03</pdfrwt>
<totfact> 0.27405678E+03</totfact>
</mgrwt>
</event>
<event>
 8    1  0.9456677E-004  0.1041805E+03  0.7546771E-02  0.1271952E+00
         -1   -1    0    0    0  501 -0.00000000000E+00  0.00000000000E+00  0.13884448807E+02  0.13884448807E+02  0.00000000000E+00 0.  1.
          1   -1    0    0  501    0  0.00000000000E+00 -0.00000000000E+00 -0.79629468858E+03  0.79629468858E+03  0.00000000000E+00 0. -1.
         23    2    1    2    0    0 -0.18721345178E+02  0.47551521482E+02 -0.32998047795E+03  0.34590954064E+03  0.90303147876E+02 0.  0.
         23    2    1    2    0    0  0.18721345178E+02 -0.47551521482E+02 -0.45242976183E+03  0.46426959675E+03  0.90785093059E+02 0.  0.
          5    1    3    3  502    0  0.79599220860E+01  0.31181306120E+02 -0.30174461002E+03  0.30349223035E+03  0.47000000000E+01 0. -1.
         -5    1    4    4    0  503 -0.24359358273E+02  0.10162955999E+02 -0.19780842296E+03  0.19961694869E+03  0.47000000000E+01 0.  1.
          5    1    4    4  503    0  0.43080703451E+02 -0.57714477481E+02 -0.25462133887E+03  0.26465264807E+03  0.47000000000E+01 0. -1.
         -5    1    3    3    0  502 -0.26681267264E+02  0.16370215362E+02 -0.28235867932E+02  0.42417310283E+02  0.47000000000E+01 0.  1.
<mgrwt>
<rscale>  0 0.10407538E+03</rscale>
<asrwt>0</asrwt>
<pdfrwt beam="1">  1        1 0.12250690E+00 0.10418046E+03</pdfrwt>
<pdfrwt beam="2">  1       -1 0.21360687E-02 0.10418046E+03</pdfrwt>
<totfact> 0.13528695E+04</totfact>
</mgrwt>
</event>
<event>
 8    1  0.9456677E-004  0.9530553E+02  0.7546771E-02  0.1292807E+00
          1   -1    0    0  501    0  0.00000000000E+00  0.00000000000E+00  0.68264218542E+02  0.68264218542E+02  0.00000000000E+00 0. -1.
         -1   -1    0    0    0  501 -0.00000000000E+00 -0.00000000000E+00 -0.20827961789E+03  0.20827961789E+03  0.00000000000E+00 0.  1.
         23    2    1    2    0    0  0.16879725630E+02 -0.11193117021E+02  0.15174128489E+02  0.96505951132E+02  0.93128585421E+02 0.  0.
         23    2    1    2    0    0 -0.16879725630E+02  0.11193117021E+02 -0.15518952784E+03  0.18003788530E+03  0.88992356902E+02 0.  0.
          5    1    4    4  502    0  0.27485734136E+02  0.20121509478E+02 -0.26114706645E+02  0.43178798360E+02  0.47000000000E+01 0. -1.
         -5    1    3    3    0  503 -0.30077071500E+02  0.21408208480E+02  0.11830395109E+02  0.39051118662E+02  0.47000000000E+01 0.  1.
          5    1    3    3  503    0  0.46956797130E+02 -0.32601325502E+02  0.33437333800E+01  0.57454832469E+02  0.47000000000E+01 0. -1.
         -5    1    4    4    0  502 -0.44365459767E+02 -0.89283924565E+01 -0.12907482119E+03  0.13685908694E+03  0.47000000000E+01 0.  1.
<mgrwt>
<rscale>  0 0.94279709E+02</rscale>
<asrwt>0</asrwt>
<pdfrwt beam="1">  1        1 0.10502188E-01 0.95305532E+02</pdfrwt>
<pdfrwt beam="2">  1       -1 0.32043018E-01 0.95305532E+02</pdfrwt>
<totfact> 0.50894717E+03</totfact>
</mgrwt>
</event>
<event>
 8    1  0.9456677E-004  0.9125635E+02  0.7546771E-02  0.1302936E+00
          1   -1    0    0  501    0  0.00000000000E+00  0.00000000000E+00  0.47750082758E+02  0.47750082758E+02  0.00000000000E+00 0. -1.
         -1   -1    0    0    0  501 -0.00000000000E+00 -0.00000000000E+00 -0.17774380875E+03  0.17774380875E+03  0.00000000000E+00 0.  1.
         23    2    1    2    0    0  0.49921367969E+01  0.72301535357E+01 -0.97043085045E+02  0.13321066727E+03  0.90832400446E+02 0.  0.
         23    2    1    2    0    0 -0.49921367969E+01 -0.72301535357E+01 -0.32950640946E+02  0.92283224232E+02  0.85751106033E+02 0.  0.
          5    1    3    3  502    0 -0.89098351428E+01 -0.38487501269E+02 -0.26225338909E+02  0.47650092519E+02  0.47000000000E+01 0. -1.
         -5    1    4    4    0  503 -0.23734609591E+02  0.79811070646E+01  0.20983987595E+02  0.33006779574E+02  0.47000000000E+01 0.  1.
          5    1    4    4  503    0  0.18742472794E+02 -0.15211260600E+02 -0.53934628541E+02  0.59276444658E+02  0.47000000000E+01 0. -1.
         -5    1    3    3    0  502  0.13901971940E+02  0.45717654805E+02 -0.70817746136E+02  0.85560574755E+02  0.47000000000E+01 0.  1.
<mgrwt>
<rscale>  0 0.89965128E+02</rscale>
<asrwt>0</asrwt>
<pdfrwt beam="1">  1        1 0.73461666E-02 0.91256351E+02</pdfrwt>
<pdfrwt beam="2">  1       -1 0.27345201E-01 0.91256351E+02</pdfrwt>
<totfact> 0.10573561E+04</totfact>
</mgrwt>
</event>
<event>
 8    1  0.9456677E-004  0.1132926E+03  0.7546771E-02  0.1254886E+00
          1   -1    0    0  501    0  0.00000000000E+00  0.00000000000E+00  0.11942809568E+03  0.11942809568E+03  0.00000000000E+00 0. -1.
         -1   -1    0    0    0  501 -0.00000000000E+00 -0.00000000000E+00 -0.34576308667E+03  0.34576308667E+03  0.00000000000E+00 0.  1.
         23    2    1    2    0    0 -0.52414380968E+02  0.41407266833E+02 -0.30661515772E+03  0.32687623786E+03  0.91506233983E+02 0.  0.
         23    2    1    2    0    0  0.52414380968E+02 -0.41407266833E+02  0.80280166721E+02  0.13831494449E+03  0.90687869202E+02 0.  0.
          5    1    3    3  502    0 -0.22756868631E+02 -0.11930123531E+02 -0.17710573498E+02  0.31558791659E+02  0.47000000000E+01 0. -1.
         -5    1    4    4    0  503 -0.24726545868E+02 -0.14998933454E+02  0.11272479946E+02  0.31393134273E+02  0.47000000000E+01 0.  1.
          5    1    4    4  503    0  0.77140926837E+02 -0.26408333379E+02  0.69007686776E+02  0.10692181021E+03  0.47000000000E+01 0. -1.
         -5    1    3    3    0  502 -0.29657512337E+02  0.53337390364E+02 -0.28890458422E+03  0.29531744620E+03  0.47000000000E+01 0.  1.
<mgrwt>
<rscale>  0 0.11312728E+03</rscale>
<asrwt>0</asrwt>
<pdfrwt beam="1">  1        1 0.18373553E-01 0.11329263E+03</pdfrwt>
<pdfrwt beam="2">  1       -1 0.53194320E-01 0.11329263E+03</pdfrwt>
<totfact> 0.10261749E+03</totfact>
</mgrwt>
</event>
<event>
 8    1  0.9456677E-004  0.1346924E+03  0.7546771E-02  0.1221204E+00
         -1   -1    0    0    0  501 -0.00000000000E+00  0.00000000000E+00  0.20736622953E+03  0.20736622953E+03  0.00000000000E+00 0.  1.
          1   -1    0    0  501    0  0.00000000000E+00 -0.00000000000E+00 -0.10434721671E+03  0.10434721671E+03  0.00000000000E+00 0. -1.
         23    2    1    2    0    0 -0.96877700202E+02 -0.14900706518E+02 -0.12721806717E+02  0.13529184097E+03  0.92383537579E+02 0.  0.
         23    2    1    2    0    0  0.96877700202E+02  0.14900706518E+02  0.11574081954E+03  0.17642160527E+03  0.90118397935E+02 0.  0.
          5    1    3    3  502    0 -0.86114535918E+02 -0.32220171967E+02 -0.40445282876E+02  0.10055726570E+03  0.47000000000E+01 0. -1.
         -5    1    4    4    0  503  0.61359025725E+02 -0.15119528469E+01  0.12187469879E+03  0.13653844969E+03  0.47000000000E+01 0.  1.
          5    1    4    4  503    0  0.35518674477E+02  0.16412659365E+02 -0.61338792483E+01  0.39883155576E+02  0.47000000000E+01 0. -1.
         -5    1    3    3    0  502 -0.10763164284E+02  0.17319465449E+02  0.27723476159E+02  0.34734575270E+02  0.47000000000E+01 0.  1.
<mgrwt>
<rscale>  0 0.13430486E+03</rscale>
<asrwt>0</asrwt>
<pdfrwt beam="1">  1        1 0.16053418E-01 0.13469238E+03</pdfrwt>
<pdfrwt beam="2">  1       -1 0.31902497E-01 0.13469238E+03</pdfrwt>
<totfact> 0.30201286E+03</totfact>
</mgrwt>
</event>
<event>
 8    1  0.9456677E-004  0.1637381E+03  0.7546771E-02  0.1184568E+00
          1   -1    0    0  501    0  0.00000000000E+00  0.00000000000E+00  0.85185937115E+03  0.85185937115E+03  0.00000000000E+00 0. -1.
         -1   -1    0    0    0  501 -0.00000000000E+00 -0.00000000000E+00 -0.66257813314E+02  0.66257813314E+02  0.00000000000E+00 0.  1.
         23    2    1    2    0    0  0.27378258248E+02 -0.13285752124E+03  0.60146019705E+02  0.17443542229E+03  0.91703232697E+02 0.  0.
         23    2    1    2    0    0 -0.27378258248E+02  0.13285752124E+03  0.72545553813E+03  0.74368176217E+03  0.91521230407E+02 0.  0.
          5    1    4    4  502    0  0.73450159436E+00  0.91293404998E+02  0.62112196060E+03  0.62781335222E+03  0.47000000000E+01 0. -1.
         -5    1    4    4    0  502 -0.28112759842E+02  0.41564116244E+02  0.10433357753E+03  0.11586840995E+03  0.47000000000E+01 0.  1.
          5    1    3    3  503    0  0.55868141889E+02 -0.94799552421E+02  0.62444454767E+02  0.12660807379E+03  0.47000000000E+01 0. -1.
         -5    1    3    3    0  503 -0.28489883641E+02 -0.38057968821E+02 -0.22984350629E+01  0.47827348498E+02  0.47000000000E+01 0.  1.
<mgrwt>
<rscale>  0 0.16371265E+03</rscale>
<asrwt>0</asrwt>
<pdfrwt beam="1">  1        1 0.13105528E+00 0.16373812E+03</pdfrwt>
<pdfrwt beam="2">  1       -1 0.10193510E-01 0.16373812E+03</pdfrwt>
<totfact> 0.12349468E+03</totfact>
</mgrwt>
</event>
<event>
 8    1  0.9456677E-004  0.9269317E+02  0.7546771E-02  0.1296583E+00
          1   -1    0    0  501    0  0.00000000000E+00  0.00000000000E+00  0.83556284040E+02  0.83556284040E+02  0.00000000000E+00 0. -1.
         -1   -1    0    0    0  501 -0.00000000000E+00 -0.00000000000E+00 -0.16300375637E+03  0.16300375637E+03  0.00000000000E+00 0.  1.
         23    2    1    2    0    0  0.10829280030E+02  0.85456368274E+01 -0.11480357969E+03  0.14755299179E+03  0.91660909125E+02 0.  0.
         23    2    1    2    0    0 -0.10829280030E+02 -0.85456368274E+01  0.35356107363E+02  0.99007048618E+02  0.91444191360E+02 0.  0.
          5    1    3    3  502    0 -0.11313430728E+02 -0.38516229714E+02 -0.47624388120E+02  0.62463317315E+02  0.47000000000E+01 0. -1.
         -5    1    4    4    0  503  0.40269374952E+02 -0.10090780747E+01  0.17268436350E+02  0.44078676155E+02  0.47000000000E+01 0.  1.
          5    1    4    4  503    0 -0.51098654982E+02 -0.75365587527E+01  0.18087671012E+02  0.54928372463E+02  0.47000000000E+01 0. -1.
         -5    1    3    3    0  502  0.22142710758E+02  0.47061866542E+02 -0.67179191573E+02  0.85089674477E+02  0.47000000000E+01 0.  1.
<mgrwt>
<rscale>  0 0.92639547E+02</rscale>
<asrwt>0</asrwt>
<pdfrwt beam="1">  1        1 0.12854813E-01 0.92693168E+02</pdfrwt>
<pdfrwt beam="2">  1       -1 0.25077501E-01 0.92693168E+02</pdfrwt>
<totfact> 0.58542472E+03</totfact>
</mgrwt>
</event>
<event>
 8    1  0.9456677E-004  0.1040151E+03  0.7546771E-02  0.1272905E+00
          4   -1    0    0  501    0  0.00000000000E+00  0.00000000000E+00  0.89641293770E+02  0.89641293770E+02  0.00000000000E+00 0. -1.
         -4   -1    0    0    0  501 -0.00000000000E+00 -0.00000000000E+00 -0.12151019041E+03  0.12151019041E+03  0.00000000000E+00 0.  1.
         23    2    1    2    0    0 -0.25612446242E+02  0.36470821722E+02  0.10835977712E-01  0.10236058043E+03  0.92149715513E+02 0.  0.
         23    2    1    2    0    0  0.25612446242E+02 -0.36470821722E+02 -0.31879732618E+02  0.10879090375E+03  0.93984174983E+02 0.  0.
          5    1    3    3  502    0  0.22714272108E+02  0.69936576887E+01 -0.29643145460E+02  0.38283880133E+02  0.47000000000E+01 0. -1.
         -5    1    3    3    0  502 -0.48326718350E+02  0.29477164034E+02  0.29653981438E+02  0.64076700298E+02  0.47000000000E+01 0.  1.
          5    1    4    4  503    0  0.19129915111E+02 -0.16815639632E+02  0.32179295704E+02  0.41307583570E+02  0.47000000000E+01 0. -1.
         -5    1    4    4    0  503  0.64825311307E+01 -0.19655182091E+02 -0.64059028322E+02  0.67483320179E+02  0.47000000000E+01 0.  1.
<mgrwt>
<rscale>  0 0.10359899E+03</rscale>
<asrwt>0</asrwt>
<pdfrwt beam="1">  1        4 0.13790968E-01 0.10401511E+03</pdfrwt>
<pdfrwt beam="2">  1       -4 0.18693875E-01 0.10401511E+03</pdfrwt>
<totfact> 0.17192048E+03</totfact>
</mgrwt>
</event>
<event>
 8    1  0.9456677E-004  0.1015621E+03  0.7546771E-02  0.1277515E+00
         -2   -1    0    0    0  501 -0.00000000000E+00  0.00000000000E+00  0.31192738500E+03  0.31192738500E+03  0.00000000000E+00 0.  1.
          2   -1    0    0  501    0  0.00000000000E+00 -0.00000000000E+00 -0.32991419103E+02  0.32991419103E+02  0.00000000000E+00 0. -1.
         23    2    1    2    0    0 -0.11514765770E+02  0.40739527207E+02  0.12481404456E+03  0.16034248147E+03  0.91317395573E+02 0.  0.
         23    2    1    2    0    0  0.11514765770E+02 -0.40739527207E+02  0.15412192133E+03  0.18457632264E+03  0.92317676179E+02 0.  0.
          5    1    4    4  502    0 -0.23159634448E+02  0.18527921085E+02  0.28848067821E+02  0.41640767819E+02  0.47000000000E+01 0. -1.
         -5    1    4    4    0  502  0.34674400219E+02 -0.59267448292E+02  0.12527385351E+03  0.14293555482E+03  0.47000000000E+01 0.  1.
          5    1    3    3  503    0 -0.29166450014E+02  0.21935311175E+02  0.43420694886E+01  0.37051089731E+02  0.47000000000E+01 0. -1.
         -5    1    3    3    0  503  0.17651684244E+02  0.18804216031E+02  0.12047197508E+03  0.12329139174E+03  0.47000000000E+01 0.  1.
<mgrwt>
<rscale>  0 0.10133420E+03</rscale>
<asrwt>0</asrwt>
<pdfrwt beam="1">  1        2 0.50756031E-02 0.10156206E+03</pdfrwt>
<pdfrwt beam="2">  1       -2 0.47988827E-01 0.10156206E+03</pdfrwt>
<totfact> 0.59245129E+03</totfact>
</mgrwt>
</event>
<event>
 8    1  0.9456677E-004  0.1654100E+03  0.7546771E-02  0.1183055E+00
         -2   -1    0    0    0  501 -0.00000000000E+00  0.00000000000E+00  0.41412707585E+02  0.41412707585E+02  0.00000000000E+00 0.  1.
          2   -1    0    0  501    0  0.00000000000E+00 -0.00000000000E+00 -0.65580893759E+03  0.65580893759E+03  0.00000000000E+00 0. -1.
         23    2    1    2    0    0 -0.12123706495E+03  0.68049615789E+02 -0.30892626728E+03  0.34984236551E+03  0.87321623676E+02 0.  0.
         23    2    1    2    0    0  0.12123706495E+03 -0.68049615789E+02 -0.30546996273E+03  0.34737927967E+03  0.89617463071E+02 0.  0.
          5    1    4    4  502    0  0.10834794254E+03 -0.86580898969E+02 -0.28295566059E+03  0.31515317637E+03  0.47000000000E+01 0. -1.
         -5    1    4    4    0  502  0.12889122407E+02  0.18531283180E+02 -0.22514302140E+02  0.32226103295E+02  0.47000000000E+01 0.  1.
          5    1    3    3  503    0 -0.96413486052E+01  0.22690654486E+02 -0.14046404347E+03  0.14268867829E+03  0.47000000000E+01 0. -1.
         -5    1    3    3    0  503 -0.11159571635E+03  0.45358961303E+02 -0.16846222381E+03  0.20715368722E+03  0.47000000000E+01 0.  1.
<mgrwt>
<rscale>  0 0.16510100E+03</rscale>
<asrwt>0</asrwt>
<pdfrwt beam="1">  1        2 0.10089368E+00 0.16540999E+03</pdfrwt>
<pdfrwt beam="2">  1       -2 0.63711858E-02 0.16540999E+03</pdfrwt>
<totfact> 0.59692224E+03</totfact>
</mgrwt>
</event>
<event>
 8    1  0.9456677E-004  0.9792975E+02  0.7546771E-02  0.1284802E+00
         -3   -1    0    0    0  501 -0.00000000000E+00  0.00000000000E+00  0.13744957277E+03  0.13744957277E+03  0.00000000000E+00 0.  1.
          3   -1    0    0  501    0  0.00000000000E+00 -0.00000000000E+00 -0.83754089176E+02  0.83754089176E+02  0.00000000000E+00 0. -1.
         23    2    1    2    0    0  0.31223801814E+01 -0.36729628445E+02  0.72211209518E+02  0.12153888074E+03  0.90545159380E+02 0.  0.
         23    2    1    2    0    0 -0.31223801814E+01  0.36729628445E+02 -0.18515725927E+02  0.99664781206E+02  0.90727182489E+02 0.  0.
          5    1    4    4  502    0 -0.16729562459E+01  0.64869644614E+02  0.99903358271E+00  0.65068868463E+02  0.47000000000E+01 0. -1.
         -5    1    4    4    0  502 -0.14494239355E+01 -0.28140016169E+02 -0.19514759510E+02  0.34595912742E+02  0.47000000000E+01 0.  1.
          5    1    3    3  503    0  0.28005517250E+02  0.19710222412E+02  0.16557940706E+02  0.38328282827E+02  0.47000000000E+01 0. -1.
         -5    1    3    3    0  503 -0.24883137069E+02 -0.56439850858E+02  0.55653268812E+02  0.83210597911E+02  0.47000000000E+01 0.  1.
<mgrwt>
<rscale>  0 0.97887573E+02</rscale>
<asrwt>0</asrwt>
<pdfrwt beam="1">  1        3 0.12885244E-01 0.97929753E+02</pdfrwt>
<pdfrwt beam="2">  1       -3 0.21146088E-01 0.97929753E+02</pdfrwt>
<totfact> 0.21086032E+03</totfact>
</mgrwt>
</event>
<event>
 8    1  0.9456677E-004  0.9866305E+02  0.7546771E-02  0.1287346E+00
         -1   -1    0    0    0  501 -0.00000000000E+00  0.00000000000E+00  0.48380402299E+02  0.48380402299E+02  0.00000000000E+00 0.  1.
          1   -1    0    0  501    0  0.00000000000E+00 -0.00000000000E+00 -0.26473523033E+03  0.26473523033E+03  0.00000000000E+00 0. -1.
         23    2    1    2    0    0 -0.44516135983E+01 -0.24263643784E+02 -0.19889684854E+02  0.93268072199E+02  0.87719966113E+02 0.  0.
         23    2    1    2    0    0  0.44516135983E+01  0.24263643784E+02 -0.19646514318E+03  0.21984756043E+03  0.95529346644E+02 0.  0.
          5    1    3    3  502    0 -0.26141323709E+02  0.10997251067E+02 -0.38158388717E+02  0.47775108224E+02  0.47000000000E+01 0. -1.
         -5    1    4    4    0  503  0.43387080282E+02  0.33818314010E+02 -0.85578342829E+02  0.10184232843E+03  0.47000000000E+01 0.  1.
          5    1    4    4  503    0 -0.38935466683E+02 -0.95546702255E+01 -0.11088680035E+03  0.11800523200E+03  0.47000000000E+01 0. -1.
         -5    1    3    3    0  502  0.21689710111E+02 -0.35260894852E+02  0.18268703863E+02  0.45492963975E+02  0.47000000000E+01 0.  1.
<mgrwt>
<rscale>  0 0.96721375E+02</rscale>
<asrwt>0</asrwt>
<pdfrwt beam="1">  1        1 0.40728497E-01 0.98663050E+02</pdfrwt>
<pdfrwt beam="2">  1       -1 0.74431388E-02 0.98663050E+02</pdfrwt>
<totfact> 0.91119614E+03</totfact>
</mgrwt>
</event>
<event>
 8    1  0.9456677E-004  0.2097807E+03  0.7546771E-02  0.1141793E+00
         -1   -1    0    0    0  501 -0.00000000000E+00  0.00000000000E+00  0.10240473429E+03  0.10240473429E+03  0.00000000000E+00 0.  1.
          1   -1    0    0  501    0  0.00000000000E+00 -0.00000000000E+00 -0.72042741038E+03  0.72042741038E+03  0.00000000000E+00 0. -1.
         23    2    1    2    0    0 -0.18857931480E+03 -0.12972648494E+02 -0.57047381472E+03  0.60773021449E+03  0.90361456036E+02 0.  0.
         23    2    1    2    0    0  0.18857931480E+03  0.12972648494E+02 -0.47548861368E+02  0.21510193018E+03  0.90980759334E+02 0.  0.
          5    1    4    4  502    0  0.13772247913E+03  0.41695702842E+02 -0.58655346134E+02  0.15546238299E+03  0.47000000000E+01 0. -1.
         -5    1    3    3    0  503 -0.61538008916E+02 -0.29114643277E+02 -0.10734811260E+03  0.12720179352E+03  0.47000000000E+01 0.  1.
          5    1    3    3  503    0 -0.12704130589E+03  0.16141994783E+02 -0.46312570212E+03  0.48052842097E+03  0.47000000000E+01 0. -1.
         -5    1    4    4    0  502  0.50856835671E+02 -0.28723054348E+02  0.11106484766E+02  0.59639547193E+02  0.47000000000E+01 0.  1.
<mgrwt>
<rscale>  0 0.20971372E+03</rscale>
<asrwt>0</asrwt>
<pdfrwt beam="1">  1        1 0.11083498E+00 0.20978071E+03</pdfrwt>
<pdfrwt beam="2">  1       -1 0.15754575E-01 0.20978071E+03</pdfrwt>
<totfact> 0.80619896E+02</totfact>
</mgrwt>
</event>
<event>
 8    1  0.9456677E-004  0.9564561E+02  0.7546771E-02  0.1296917E+00
          1   -1    0    0  501    0  0.00000000000E+00  0.00000000000E+00  0.11863581919E+03  0.11863581919E+03  0.00000000000E+00 0. -1.
         -1   -1    0    0    0  501 -0.00000000000E+00 -0.00000000000E+00 -0.34017521036E+03  0.34017521036E+03  0.00000000000E+00 0.  1.
         23    2    1    2    0    0  0.18399841436E+01 -0.25974418788E+02 -0.31744809528E+03  0.33154392674E+03  0.92032745174E+02 0.  0.
         23    2    1    2    0    0 -0.18399841436E+01  0.25974418788E+02  0.95908704109E+02  0.12726710282E+03  0.79500817371E+02 0.  0.
          5    1    3    3  502    0  0.33777252913E+02  0.86586515779E+01 -0.22441785844E+03  0.22715928387E+03  0.47000000000E+01 0. -1.
         -5    1    3    3    0  502 -0.31937268769E+02 -0.34633070366E+02 -0.93030236843E+02  0.10438464287E+03  0.47000000000E+01 0.  1.
          5    1    4    4  503    0  0.16376893504E+02  0.36003418216E+02  0.98058349412E+02  0.10583940029E+03  0.47000000000E+01 0. -1.
         -5    1    4    4    0  503 -0.18216877647E+02 -0.10028999428E+02 -0.21496453027E+01  0.21427702529E+02  0.47000000000E+01 0.  1.
<mgrwt>
<rscale>  0 0.92496201E+02</rscale>
<asrwt>0</asrwt>
<pdfrwt beam="1">  1        1 0.18251665E-01 0.95645607E+02</pdfrwt>
<pdfrwt beam="2">  1       -1 0.52334646E-01 0.95645607E+02</pdfrwt>
<totfact> 0.10612040E+03</totfact>
</mgrwt>
</event>
<event>
 8    1  0.9456677E-004  0.1354277E+03  0.7546771E-02  0.1220148E+00
          1   -1    0    0  501    0  0.00000000000E+00  0.00000000000E+00  0.44624824611E+03  0.44624824611E+03  0.00000000000E+00 0. -1.
         -1   -1    0    0    0  501 -0.00000000000E+00 -0.00000000000E+00 -0.62903050939E+02  0.62903050939E+02  0.00000000000E+00 0.  1.
         23    2    1    2    0    0 -0.80980388050E+02  0.56434916658E+02  0.40931898987E+02  0.14147818891E+03  0.92725047940E+02 0.  0.
         23    2    1    2    0    0  0.80980388050E+02 -0.56434916658E+02  0.34241329619E+03  0.36767310814E+03  0.90520306994E+02 0.  0.
          5    1    3    3  502    0 -0.32285048709E+01 -0.19892624435E+02 -0.76864959790E+01  0.22075143738E+02  0.47000000000E+01 0. -1.
         -5    1    3    3    0  502 -0.77751883179E+02  0.76327541093E+02  0.48618394966E+02  0.11940304517E+03  0.47000000000E+01 0.  1.
          5    1    4    4  503    0  0.52006522635E+02 -0.79967597119E+02  0.26285005055E+03  0.27966360875E+03  0.47000000000E+01 0. -1.
         -5    1    4    4    0  503  0.28973865415E+02  0.23532680461E+02  0.79563245636E+02  0.88009499390E+02  0.47000000000E+01 0.  1.
<mgrwt>
<rscale>  0 0.13505114E+03</rscale>
<asrwt>0</asrwt>
<pdfrwt beam="1">  1        1 0.68653574E-01 0.13542768E+03</pdfrwt>
<pdfrwt beam="2">  1       -1 0.96773927E-02 0.13542768E+03</pdfrwt>
<totfact> 0.32712472E+03</totfact>
</mgrwt>
</event>
<event>
 8    1  0.9456677E-004  0.9522972E+02  0.7546771E-02  0.1291519E+00
         -1   -1    0    0    0  501 -0.00000000000E+00  0.00000000000E+00  0.11763781722E+02  0.11763781722E+02  0.00000000000E+00 0.  1.
          1   -1    0    0  501    0  0.00000000000E+00 -0.00000000000E+00 -0.78814899214E+03  0.78814899214E+03  0.00000000000E+00 0. -1.
         23    2    1    2    0    0  0.17084065659E+02 -0.12854607412E+02 -0.30782169381E+03  0.32177004473E+03  0.91239576252E+02 0.  0.
         23    2    1    2    0    0 -0.17084065659E+02  0.12854607412E+02 -0.46856351661E+03  0.47814272913E+03  0.92798675067E+02 0.  0.
          5    1    4    4  502    0 -0.43962571493E+02  0.80243648138E+01 -0.41863651947E+03  0.42104123736E+03  0.47000000000E+01 0. -1.
         -5    1    3    3    0  503  0.53263503232E+02 -0.17904230936E+02 -0.20195567150E+03  0.20968010281E+03  0.47000000000E+01 0.  1.
          5    1    3    3  503    0 -0.36179437572E+02  0.50496235234E+01 -0.10586602231E+03  0.11208994192E+03  0.47000000000E+01 0. -1.
         -5    1    4    4    0  502  0.26878505834E+02  0.48302425986E+01 -0.49926997137E+02  0.57101491772E+02  0.47000000000E+01 0.  1.
<mgrwt>
<rscale>  0 0.94847771E+02</rscale>
<asrwt>0</asrwt>
<pdfrwt beam="1">  1        1 0.12125371E+00 0.95229724E+02</pdfrwt>
<pdfrwt beam="2">  1       -1 0.18098123E-02 0.95229724E+02</pdfrwt>
<totfact> 0.17281651E+04</totfact>
</mgrwt>
</event>
<event>
 8    1  0.9456677E-004  0.1243682E+03  0.7546771E-02  0.1236140E+00
         -1   -1    0    0    0  501 -0.00000000000E+00  0.00000000000E+00  0.28338908449E+03  0.28338908449E+03  0.00000000000E+00 0.  1.
          1   -1    0    0  501    0  0.00000000000E+00 -0.00000000000E+00 -0.25495452556E+03  0.25495452556E+03  0.00000000000E+00 0. -1.
         23    2    1    2    0    0  0.43564146306E+02  0.71995997070E+02  0.25289979209E+03  0.28182576792E+03  0.91576198800E+02 0.  0.
         23    2    1    2    0    0 -0.43564146306E+02 -0.71995997070E+02 -0.22446523315E+03  0.25651784213E+03  0.91298981367E+02 0.  0.
          5    1    4    4  502    0 -0.12689286514E+02 -0.81743015323E+02 -0.19730818608E+03  0.21399894589E+03  0.47000000000E+01 0. -1.
         -5    1    4    4    0  502 -0.30874859791E+02  0.97470182524E+01 -0.27157047072E+02  0.42518896242E+02  0.47000000000E+01 0.  1.
          5    1    3    3  503    0 -0.23094888764E+02 -0.31199916054E+01  0.51766918864E+02  0.56965007885E+02  0.47000000000E+01 0. -1.
         -5    1    3    3    0  503  0.66659035069E+02  0.75115988676E+02  0.20113287322E+03  0.22486076003E+03  0.47000000000E+01 0.  1.
<mgrwt>
<rscale>  0 0.12431721E+03</rscale>
<asrwt>0</asrwt>
<pdfrwt beam="1">  1        1 0.39223773E-01 0.12436824E+03</pdfrwt>
<pdfrwt beam="2">  1       -1 0.43598321E-01 0.12436824E+03</pdfrwt>
<totfact> 0.57154579E+02</totfact>
</mgrwt>
</event>
<event>
 8    1  0.9456677E-004  0.1033665E+03  0.7546771E-02  0.1273717E+00
          2   -1    0    0  501    0  0.00000000000E+00  0.00000000000E+00  0.51140142834E+03  0.51140142834E+03  0.00000000000E+00 0. -1.
         -2   -1    0    0    0  501 -0.00000000000E+00 -0.00000000000E+00 -0.23248595561E+02  0.23248595561E+02  0.00000000000E+00 0.  1.
         23    2    1    2    0    0  0.39057502817E+02  0.33993578375E+01  0.33235252113E+03  0.34805579909E+03  0.95643069882E+02 0.  0.
         23    2    1    2    0    0 -0.39057502817E+02 -0.33993578375E+01  0.15580031164E+03  0.18659422481E+03  0.94903232103E+02 0.  0.
          5    1    4    4  502    0  0.25800841798E+02  0.17289471097E+02  0.29782977221E+02  0.43286545028E+02  0.47000000000E+01 0. -1.
         -5    1    4    4    0  502 -0.64858344615E+02 -0.20688828935E+02  0.12601733442E+03  0.14330767978E+03  0.47000000000E+01 0.  1.
          5    1    3    3  503    0  0.13916217047E+02  0.47563061803E+02  0.20263360395E+03  0.20865850904E+03  0.47000000000E+01 0. -1.
         -5    1    3    3    0  503  0.25141285770E+02 -0.44163703965E+02  0.12971891718E+03  0.13939729005E+03  0.47000000000E+01 0.  1.
<mgrwt>
<rscale>  0 0.10319507E+03</rscale>
<asrwt>0</asrwt>
<pdfrwt beam="1">  1        2 0.78677134E-01 0.10336654E+03</pdfrwt>
<pdfrwt beam="2">  1       -2 0.35767074E-02 0.10336654E+03</pdfrwt>
<totfact> 0.18161652E+04</totfact>
</mgrwt>
</event>
<event>
 8    1  0.9456677E-004  0.1014860E+03  0.7546771E-02  0.1282372E+00
          1   -1    0    0  501    0  0.00000000000E+00  0.00000000000E+00  0.28793663426E+03  0.28793663426E+03  0.00000000000E+00 0. -1.
         -1   -1    0    0    0  501 -0.00000000000E+00 -0.00000000000E+00 -0.42524876924E+02  0.42524876924E+02  0.00000000000E+00 0.  1.
         23    2    1    2    0    0 -0.17902844071E+02 -0.83993064209E+01  0.20748658158E+03  0.23097639728E+03  0.99540717265E+02 0.  0.
         23    2    1    2    0    0  0.17902844071E+02  0.83993064209E+01  0.37925175761E+02  0.99485113903E+02  0.89821538383E+02 0.  0.
          5    1    4    4  502    0  0.42398490683E+02  0.11521839545E+02 -0.10057277718E+02  0.45316924364E+02  0.47000000000E+01 0. -1.
         -5    1    3    3    0  503 -0.27610053944E+02  0.30526077966E+02  0.36274900089E+02  0.55064642841E+02  0.47000000000E+01 0.  1.
          5    1    3    3  503    0  0.97072098727E+01 -0.38925384386E+02  0.17121168149E+03  0.17591175444E+03  0.47000000000E+01 0. -1.
         -5    1    4    4    0  502 -0.24495646611E+02 -0.31225331244E+01  0.47982453480E+02  0.54168189539E+02  0.47000000000E+01 0.  1.
<mgrwt>
<rscale>  0 0.99019193E+02</rscale>
<asrwt>0</asrwt>
<pdfrwt beam="1">  1        1 0.44297943E-01 0.10148603E+03</pdfrwt>
<pdfrwt beam="2">  1       -1 0.65422889E-02 0.10148603E+03</pdfrwt>
<totfact> 0.99842063E+03</totfact>
</mgrwt>
</event>
<event>
 8    1  0.9456677E-004  0.1582861E+03  0.7546771E-02  0.1190668E+00
          2   -1    0    0  501    0  0.00000000000E+00  0.00000000000E+00  0.28709500086E+03  0.28709500086E+03  0.00000000000E+00 0. -1.
         -2   -1    0    0    0  501 -0.00000000000E+00 -0.00000000000E+00 -0.12081747165E+03  0.12081747165E+03  0.00000000000E+00 0.  1.
         23    2    1    2    0    0 -0.11975368199E+03  0.50055481377E+02  0.19066789723E+03  0.24775822324E+03  0.90462116858E+02 0.  0.
         23    2    1    2    0    0  0.11975368199E+03 -0.50055481377E+02 -0.24390368017E+02  0.16015424927E+03  0.90598001867E+02 0.  0.
          5    1    3    3  502    0 -0.52008363131E+02  0.45588544943E+01  0.14487115668E+03  0.15406295800E+03  0.47000000000E+01 0. -1.
         -5    1    4    4    0  503  0.97795135755E+02 -0.84010893076E+01 -0.45556922413E+02  0.10831431142E+03  0.47000000000E+01 0.  1.
          5    1    4    4  503    0  0.21958546233E+02 -0.41654392070E+02  0.21166554397E+02  0.51839937851E+02  0.47000000000E+01 0. -1.
         -5    1    3    3    0  502 -0.67745318857E+02  0.45496626883E+02  0.45796740550E+02  0.93695265247E+02  0.47000000000E+01 0.  1.
<mgrwt>
<rscale>  0 0.15826667E+03</rscale>
<asrwt>0</asrwt>
<pdfrwt beam="1">  1        2 0.44168461E-01 0.15828611E+03</pdfrwt>
<pdfrwt beam="2">  1       -2 0.18587303E-01 0.15828611E+03</pdfrwt>
<totfact> 0.26715515E+03</totfact>
</mgrwt>
</event>
<event>
 8    1  0.9456677E-004  0.1331381E+03  0.7546771E-02  0.1233788E+00
         -2   -1    0    0    0  501 -0.00000000000E+00  0.00000000000E+00  0.13626958653E+02  0.13626958653E+02  0.00000000000E+00 0.  1.
          2   -1    0    0  501    0  0.00000000000E+00 -0.00000000000E+00 -0.10973858712E+04  0.10973858712E+04  0.00000000000E+00 0. -1.
         23    2    1    2    0    0  0.52904329900E+02  0.31341925853E+02 -0.71388051104E+03  0.72618947201E+03  0.11808717446E+03 0.  0.
         23    2    1    2    0    0 -0.52904329900E+02 -0.31341925853E+02 -0.36987840152E+03  0.38482335786E+03  0.86589840073E+02 0.  0.
          5    1    4    4  502    0 -0.11969996116E+02  0.29499325122E+02 -0.13126894465E+03  0.13515589820E+03  0.47000000000E+01 0. -1.
         -5    1    3    3    0  503  0.60969950925E+02  0.67488795332E+02 -0.40810349764E+03  0.41814187448E+03  0.47000000000E+01 0.  1.
          5    1    3    3  503    0 -0.80656210252E+01 -0.36146869479E+02 -0.30577701340E+03  0.30804759752E+03  0.47000000000E+01 0. -1.
         -5    1    4    4    0  502 -0.40934333785E+02 -0.60841250975E+02 -0.23860945687E+03  0.24966745966E+03  0.47000000000E+01 0.  1.
<mgrwt>
<rscale>  0 0.12582317E+03</rscale>
<asrwt>0</asrwt>
<pdfrwt beam="1">  1        2 0.16882868E+00 0.13313814E+03</pdfrwt>
<pdfrwt beam="2">  1       -2 0.20964542E-02 0.13313814E+03</pdfrwt>
<totfact> 0.15844325E+04</totfact>
</mgrwt>
</event>
<event>
 8    1  0.9456677E-004  0.9923795E+02  0.7546771E-02  0.1282328E+00
         -2   -1    0    0    0  501 -0.00000000000E+00  0.00000000000E+00  0.44095056823E+03  0.44095056823E+03  0.00000000000E+00 0.  1.
          2   -1    0    0  501    0  0.00000000000E+00 -0.00000000000E+00 -0.22187668739E+02  0.22187668739E+02  0.00000000000E+00 0. -1.
         23    2    1    2    0    0 -0.30455841807E+02 -0.20107563536E+02  0.19988686232E+03  0.22281576733E+03  0.91434326340E+02 0.  0.
         23    2    1    2    0    0  0.30455841807E+02  0.20107563536E+02  0.21887603717E+03  0.24032246964E+03  0.92283787050E+02 0.  0.
          5    1    4    4  502    0  0.56725407137E+02  0.10270702404E+02  0.80922999647E+02  0.99467989899E+02  0.47000000000E+01 0. -1.
         -5    1    4    4    0  502 -0.26269565330E+02  0.98368611323E+01  0.13795303753E+03  0.14085447974E+03  0.47000000000E+01 0.  1.
          5    1    3    3  503    0  0.25045723175E+02 -0.12667203034E+02  0.21159104410E+02  0.35461866582E+02  0.47000000000E+01 0. -1.
         -5    1    3    3    0  503 -0.55501564981E+02 -0.74403605023E+01  0.17872775791E+03  0.18735390075E+03  0.47000000000E+01 0.  1.
<mgrwt>
<rscale>  0 0.99039994E+02</rscale>
<asrwt>0</asrwt>
<pdfrwt beam="1">  1        2 0.34134878E-02 0.99237945E+02</pdfrwt>
<pdfrwt beam="2">  1       -2 0.67838543E-01 0.99237945E+02</pdfrwt>
<totfact> 0.49353222E+03</totfact>
</mgrwt>
</event>
<event>
 8    1  0.9456677E-004  0.9597833E+02  0.7546771E-02  0.1290191E+00
         -2   -1    0    0    0  501 -0.00000000000E+00  0.00000000000E+00  0.14547191370E+02  0.14547191370E+02  0.00000000000E+00 0.  1.
          2   -1    0    0  501    0  0.00000000000E+00 -0.00000000000E+00 -0.67921642118E+03  0.67921642118E+03  0.00000000000E+00 0. -1.
         23    2    1    2    0    0 -0.11070336571E+02  0.23606933449E+02 -0.43202802534E+03  0.44210159638E+03  0.90143037349E+02 0.  0.
         23    2    1    2    0    0  0.11070336571E+02 -0.23606933449E+02 -0.23264120447E+03  0.25166201617E+03  0.92368829740E+02 0.  0.
          5    1    3    3  502    0 -0.41247965461E+02  0.23013221293E+02 -0.36922444997E+03  0.37226306218E+03  0.47000000000E+01 0. -1.
         -5    1    4    4    0  503  0.11424948210E+02  0.26935098349E+02 -0.27824510509E+02  0.40648768121E+02  0.47000000000E+01 0.  1.
          5    1    4    4  503    0 -0.35461163885E+00 -0.50542031798E+02 -0.20481669396E+03  0.21101324805E+03  0.47000000000E+01 0. -1.
         -5    1    3    3    0  502  0.30177628890E+02  0.59371215533E+00 -0.62803575371E+02  0.69838534198E+02  0.47000000000E+01 0.  1.
<mgrwt>
<rscale>  0 0.95438765E+02</rscale>
<asrwt>0</asrwt>
<pdfrwt beam="1">  1        2 0.10449483E+00 0.95978333E+02</pdfrwt>
<pdfrwt beam="2">  1       -2 0.22380295E-02 0.95978333E+02</pdfrwt>
<totfact> 0.25956380E+04</totfact>
</mgrwt>
</event>
<event>
 8    1  0.9456677E-004  0.1679615E+03  0.7546771E-02  0.1180708E+00
          1   -1    0    0  501    0  0.00000000000E+00  0.00000000000E+00  0.34037002602E+03  0.34037002602E+03  0.00000000000E+00 0. -1.
         -1   -1    0    0    0  501 -0.00000000000E+00 -0.00000000000E+00 -0.15868416436E+03  0.15868416436E+03  0.00000000000E+00 0.  1.
         23    2    1    2    0    0  0.12283547624E+03 -0.65418169799E+02  0.26517214499E+03  0.31389061605E+03  0.94037020381E+02 0.  0.
         23    2    1    2    0    0 -0.12283547624E+03  0.65418169799E+02 -0.83486283333E+02  0.18516357432E+03  0.89148744172E+02 0.  0.
          5    1    4    4  502    0 -0.58856599644E+02  0.38159556714E+01 -0.75420336528E+02  0.95859157107E+02  0.47000000000E+01 0. -1.
         -5    1    3    3    0  503  0.47386357574E+02 -0.21289218382E+02  0.24178375773E+02  0.57492447839E+02  0.47000000000E+01 0.  1.
          5    1    3    3  503    0  0.75449118670E+02 -0.44128951417E+02  0.24099376922E+03  0.25639816821E+03  0.47000000000E+01 0. -1.
         -5    1    4    4    0  502 -0.63978876600E+02  0.61602214128E+02 -0.80659468049E+01  0.89304417216E+02  0.47000000000E+01 0.  1.
<mgrwt>
<rscale>  0 0.16728560E+03</rscale>
<asrwt>0</asrwt>
<pdfrwt beam="1">  1        1 0.52364619E-01 0.16796146E+03</pdfrwt>
<pdfrwt beam="2">  1       -1 0.24412949E-01 0.16796146E+03</pdfrwt>
<totfact> 0.10762476E+03</totfact>
</mgrwt>
</event>
<event>
 8    1  0.9456677E-004  0.1021547E+03  0.7546771E-02  0.1276799E+00
         -2   -1    0    0    0  501 -0.00000000000E+00  0.00000000000E+00  0.74041227066E+02  0.74041227066E+02  0.00000000000E+00 0.  1.
          2   -1    0    0  501    0  0.00000000000E+00 -0.00000000000E+00 -0.30173730218E+03  0.30173730218E+03  0.00000000000E+00 0. -1.
         23    2    1    2    0    0 -0.20919359054E+02  0.32423475701E+02  0.24888432450E+02  0.10331841819E+03  0.92554633099E+02 0.  0.
         23    2    1    2    0    0  0.20919359054E+02 -0.32423475701E+02 -0.25258450757E+03  0.27246011106E+03  0.94586876968E+02 0.  0.
          5    1    3    3  502    0 -0.24654780122E+02  0.54785786983E+02 -0.10359940227E+02  0.61145392301E+02  0.47000000000E+01 0. -1.
         -5    1    3    3    0  502  0.37354210674E+01 -0.22362311282E+02  0.35248372677E+02  0.42173025891E+02  0.47000000000E+01 0.  1.
          5    1    4    4  503    0  0.69874633086E+01 -0.64726141358E+02 -0.14117219342E+03  0.15553127086E+03  0.47000000000E+01 0. -1.
         -5    1    4    4    0  503  0.13931895746E+02  0.32302665657E+02 -0.11141231415E+03  0.11692884020E+03  0.47000000000E+01 0.  1.
<mgrwt>
<rscale>  0 0.10168172E+03</rscale>
<asrwt>0</asrwt>
<pdfrwt beam="1">  1        2 0.46421124E-01 0.10215468E+03</pdfrwt>
<pdfrwt beam="2">  1       -2 0.11390958E-01 0.10215468E+03</pdfrwt>
<totfact> 0.54929950E+03</totfact>
</mgrwt>
</event>
<event>
 8    1  0.9456677E-004  0.1095634E+03  0.7546771E-02  0.1263360E+00
          1   -1    0    0  501    0  0.00000000000E+00  0.00000000000E+00  0.76522533583E+03  0.76522533583E+03  0.00000000000E+00 0. -1.
         -1   -1    0    0    0  501 -0.00000000000E+00 -0.00000000000E+00 -0.20994519232E+02  0.20994519232E+02  0.00000000000E+00 0.  1.
         23    2    1    2    0    0  0.29620947349E+02 -0.46136015088E+02  0.15859634393E+03  0.19042470210E+03  0.90015745573E+02 0.  0.
         23    2    1    2    0    0 -0.29620947349E+02  0.46136015088E+02  0.58563447267E+03  0.59579515297E+03  0.94858823036E+02 0.  0.
          5    1    3    3  502    0 -0.18486108932E+02 -0.28063713122E+02  0.12335068625E+03  0.12793275583E+03  0.47000000000E+01 0. -1.
         -5    1    3    3    0  502  0.48107056281E+02 -0.18072301967E+02  0.35245657683E+02  0.62491946264E+02  0.47000000000E+01 0.  1.
          5    1    4    4  503    0 -0.58655670795E+02  0.77418315355E+01  0.37587706664E+03  0.38053394448E+03  0.47000000000E+01 0. -1.
         -5    1    4    4    0  503  0.29034723446E+02  0.38394183553E+02  0.20975740603E+03  0.21526120849E+03  0.47000000000E+01 0.  1.
<mgrwt>
<rscale>  0 0.10850687E+03</rscale>
<asrwt>0</asrwt>
<pdfrwt beam="1">  1        1 0.11772695E+00 0.10956335E+03</pdfrwt>
<pdfrwt beam="2">  1       -1 0.32299266E-02 0.10956335E+03</pdfrwt>
<totfact> 0.79314872E+03</totfact>
</mgrwt>
</event>
<event>
 8    1  0.9456677E-004  0.1015500E+03  0.7546771E-02  0.1281357E+00
         -3   -1    0    0    0  501 -0.00000000000E+00  0.00000000000E+00  0.53102105249E+03  0.53102105249E+03  0.00000000000E+00 0.  1.
          3   -1    0    0  501    0  0.00000000000E+00 -0.00000000000E+00 -0.37182261775E+03  0.37182261775E+03  0.00000000000E+00 0. -1.
         23    2    1    2    0    0  0.33808353910E+02 -0.15189264764E+02  0.51983023000E+03  0.52818688861E+03  0.85931383774E+02 0.  0.
         23    2    1    2    0    0 -0.33808353910E+02  0.15189264764E+02 -0.36063179526E+03  0.37465678163E+03  0.94544665165E+02 0.  0.
          5    1    4    4  502    0 -0.30493404454E+02 -0.16503770253E+02 -0.32397380963E+03  0.32585785471E+03  0.47000000000E+01 0. -1.
         -5    1    3    3    0  503  0.54531036284E+02  0.14742434237E+02  0.29873977175E+03  0.30406991714E+03  0.47000000000E+01 0.  1.
          5    1    3    3  503    0 -0.20722682374E+02 -0.29931699002E+02  0.22109045826E+03  0.22411697147E+03  0.47000000000E+01 0. -1.
         -5    1    4    4    0  502 -0.33149494559E+01  0.31693035017E+02 -0.36657985631E+02  0.48798926925E+02  0.47000000000E+01 0.  1.
<mgrwt>
<rscale>  0 0.99497056E+02</rscale>
<asrwt>0</asrwt>
<pdfrwt beam="1">  1        3 0.57203480E-01 0.10155005E+03</pdfrwt>
<pdfrwt beam="2">  1       -3 0.81695547E-01 0.10155005E+03</pdfrwt>
<totfact> 0.10181941E+01</totfact>
</mgrwt>
</event>
<event>
 7    1  0.9456677E-004  0.1530560E+03  0.7546771E-02  0.1212627E+00
         -1   -1    0    0    0  501 -0.00000000000E+00  0.00000000000E+00  0.55719549762E+02  0.55719549762E+02  0.00000000000E+00 0. -1.
          1   -1    0    0  501    0  0.00000000000E+00 -0.00000000000E+00 -0.30773878929E+03  0.30773878929E+03  0.00000000000E+00 0.  1.
         23    2    1    2    0    0 -0.14859315889E+02 -0.53000533553E+02 -0.10925815175E+03  0.15415741057E+03  0.93793964017E+02 0.  0.
          5    1    3    3  502    0  0.19166348890E+02 -0.58105657263E+02 -0.31457403876E+02  0.68958499072E+02  0.47000000000E+01 0. -1.
         -5    1    1    2    0  503 -0.29567298618E+02 -0.36233783266E+02 -0.19959845666E+02  0.51064641743E+02  0.47000000000E+01 0.  1.
          5    1    1    2  503    0  0.44426614507E+02  0.89234316819E+02 -0.12280124211E+03  0.15823628673E+03  0.47000000000E+01 0. -1.
         -5    1    3    3    0  502 -0.34025664779E+02  0.51051237099E+01 -0.77800747870E+02  0.85198911500E+02  0.47000000000E+01 0.  1.
<mgrwt>
<rscale>  0 0.14052317E+03</rscale>
<asrwt>0</asrwt>
<pdfrwt beam="1">  1        1 0.47344428E-01 0.15305604E+03</pdfrwt>
<pdfrwt beam="2">  1       -1 0.85722386E-02 0.15305604E+03</pdfrwt>
<totfact> 0.63150969E+03</totfact>
</mgrwt>
</event>
<event>
 8    1  0.9456677E-004  0.1007887E+03  0.7546771E-02  0.1278648E+00
          2   -1    0    0  501    0  0.00000000000E+00  0.00000000000E+00  0.92213403583E+03  0.92213403583E+03  0.00000000000E+00 0. -1.
         -2   -1    0    0    0  501 -0.00000000000E+00 -0.00000000000E+00 -0.17387217511E+02  0.17387217511E+02  0.00000000000E+00 0.  1.
         23    2    1    2    0    0  0.41672540080E+02 -0.94045419668E+01  0.16801063089E+03  0.19592330725E+03  0.91287043024E+02 0.  0.
         23    2    1    2    0    0 -0.41672540080E+02  0.94045419668E+01  0.73673618743E+03  0.74359794609E+03  0.91283347663E+02 0.  0.
          5    1    4    4  502    0 -0.57713095658E+02  0.36454538688E+02  0.53807563043E+03  0.54240871017E+03  0.47000000000E+01 0. -1.
         -5    1    3    3    0  503  0.48882141081E+02  0.10331074257E+02  0.35002467172E+02  0.61183801125E+02  0.47000000000E+01 0.  1.
          5    1    3    3  503    0 -0.72096010011E+01 -0.19735616224E+02  0.13300816372E+03  0.13473950612E+03  0.47000000000E+01 0. -1.
         -5    1    4    4    0  502  0.16040555577E+02 -0.27049996721E+02  0.19866055700E+03  0.20118923592E+03  0.47000000000E+01 0.  1.
<mgrwt>
<rscale>  0 0.10078790E+03</rscale>
<asrwt>0</asrwt>
<pdfrwt beam="1">  1        2 0.14186674E+00 0.10078874E+03</pdfrwt>
<pdfrwt beam="2">  1       -2 0.26749573E-02 0.10078874E+03</pdfrwt>
<totfact> 0.13847649E+04</totfact>
</mgrwt>
</event>
<event>
 8    1  0.9456677E-004  0.1122393E+03  0.7546771E-02  0.1256631E+00
          1   -1    0    0  501    0  0.00000000000E+00  0.00000000000E+00  0.17444483373E+03  0.17444483373E+03  0.00000000000E+00 0. -1.
         -1   -1    0    0    0  501 -0.00000000000E+00 -0.00000000000E+00 -0.93864602211E+02  0.93864602211E+02  0.00000000000E+00 0.  1.
         23    2    1    2    0    0  0.25030570943E+02  0.61335439977E+02 -0.24505843614E+02  0.11455400183E+03  0.90186014908E+02 0.  0.
         23    2    1    2    0    0 -0.25030570943E+02 -0.61335439977E+02  0.10508607513E+03  0.15375543411E+03  0.90603999100E+02 0.  0.
          5    1    4    4  502    0  0.12309059606E+02 -0.35187763700E+02  0.10098211399E+03  0.10774585379E+03  0.47000000000E+01 0. -1.
         -5    1    4    4    0  502 -0.37339630549E+02 -0.26147676277E+02  0.41039611405E+01  0.46009580321E+02  0.47000000000E+01 0.  1.
          5    1    3    3  503    0 -0.32403659247E+01 -0.22546339990E+02 -0.53564718337E+01  0.23866696646E+02  0.47000000000E+01 0. -1.
         -5    1    3    3    0  503  0.28270936868E+02  0.83881779967E+02 -0.19149371781E+02  0.90687305184E+02  0.47000000000E+01 0.  1.
<mgrwt>
<rscale>  0 0.11215487E+03</rscale>
<asrwt>0</asrwt>
<pdfrwt beam="1">  1        1 0.26837667E-01 0.11223925E+03</pdfrwt>
<pdfrwt beam="2">  1       -1 0.14440708E-01 0.11223925E+03</pdfrwt>
<totfact> 0.56144307E+03</totfact>
</mgrwt>
</event>
<event>
 8    1  0.9456677E-004  0.1135143E+03  0.7546771E-02  0.1254573E+00
          1   -1    0    0  501    0  0.00000000000E+00  0.00000000000E+00  0.27864525998E+03  0.27864525998E+03  0.00000000000E+00 0. -1.
         -1   -1    0    0    0  501 -0.00000000000E+00 -0.00000000000E+00 -0.48637673427E+02  0.48637673427E+02  0.00000000000E+00 0.  1.
         23    2    1    2    0    0  0.65610858583E+02  0.16056394167E+02  0.15342041854E+03  0.19034831844E+03  0.90177962679E+02 0.  0.
         23    2    1    2    0    0 -0.65610858583E+02 -0.16056394167E+02  0.76587168018E+02  0.13693461496E+03  0.91229939781E+02 0.  0.
          5    1    3    3  502    0  0.15277074623E+02  0.35726926194E+02  0.12095606502E+03  0.12713088503E+03  0.47000000000E+01 0. -1.
         -5    1    3    3    0  502  0.50333783960E+02 -0.19670532027E+02  0.32464353519E+02  0.63217433413E+02  0.47000000000E+01 0.  1.
          5    1    4    4  503    0 -0.75062836401E+02  0.15964618118E+02  0.66735425804E+02  0.10180867103E+03  0.47000000000E+01 0. -1.
         -5    1    4    4    0  503  0.94519778176E+01 -0.32021012285E+02  0.98517422144E+01  0.35125943931E+02  0.47000000000E+01 0.  1.
<mgrwt>
<rscale>  0 0.11330277E+03</rscale>
<asrwt>0</asrwt>
<pdfrwt beam="1">  1        1 0.42868500E-01 0.11351429E+03</pdfrwt>
<pdfrwt beam="2">  1       -1 0.74827192E-02 0.11351429E+03</pdfrwt>
<totfact> 0.85861744E+03</totfact>
</mgrwt>
</event>
<event>
 8    1  0.9456677E-004  0.9201852E+02  0.7546771E-02  0.1301286E+00
         -2   -1    0    0    0  501 -0.00000000000E+00  0.00000000000E+00  0.47336306710E+02  0.47336306710E+02  0.00000000000E+00 0.  1.
          2   -1    0    0  501    0  0.00000000000E+00 -0.00000000000E+00 -0.20142701247E+03  0.20142701247E+03  0.00000000000E+00 0. -1.
         23    2    1    2    0    0  0.93596184615E+01  0.48000769700E+01 -0.24934431911E+02  0.90179739715E+02  0.86023347782E+02 0.  0.
         23    2    1    2    0    0 -0.93596184615E+01 -0.48000769700E+01 -0.12915627385E+03  0.15858357947E+03  0.91415345566E+02 0.  0.
          5    1    4    4  502    0  0.30461025494E+02 -0.30520143003E+02 -0.73299068204E+02  0.85171571564E+02  0.47000000000E+01 0. -1.
         -5    1    3    3    0  503 -0.20341002796E+02  0.36948730115E+02 -0.15341641313E+02  0.45126721685E+02  0.47000000000E+01 0.  1.
          5    1    3    3  503    0  0.29700621258E+02 -0.32148653145E+02 -0.95927905976E+01  0.45053018030E+02  0.47000000000E+01 0. -1.
         -5    1    4    4    0  502 -0.39820643955E+02  0.25720066033E+02 -0.55857205646E+02  0.73412007903E+02  0.47000000000E+01 0.  1.
<mgrwt>
<rscale>  0 0.90649665E+02</rscale>
<asrwt>0</asrwt>
<pdfrwt beam="1">  1        2 0.30988770E-01 0.92018523E+02</pdfrwt>
<pdfrwt beam="2">  1       -2 0.72825089E-02 0.92018523E+02</pdfrwt>
<totfact> 0.16661846E+04</totfact>
</mgrwt>
</event>
<event>
 8    1  0.9456677E-004  0.1246791E+03  0.7546771E-02  0.1240931E+00
          3   -1    0    0  501    0  0.00000000000E+00  0.00000000000E+00  0.12414839942E+03  0.12414839942E+03  0.00000000000E+00 0. -1.
         -3   -1    0    0    0  501 -0.00000000000E+00 -0.00000000000E+00 -0.11309651255E+03  0.11309651255E+03  0.00000000000E+00 0.  1.
         23    2    1    2    0    0 -0.19897232406E+02  0.59584820034E+02 -0.20353590148E+01  0.12469570158E+03  0.10769691115E+03 0.  0.
         23    2    1    2    0    0  0.19897232406E+02 -0.59584820034E+02  0.13087245880E+02  0.11254921038E+03  0.92465118378E+02 0.  0.
          5    1    3    3  502    0 -0.97395043699E+01  0.89966595453E+02  0.75517311186E+01  0.90928350285E+02  0.47000000000E+01 0. -1.
         -5    1    4    4    0  503 -0.27624253162E+02 -0.50491853201E+02  0.24317572245E+02  0.62657488956E+02  0.47000000000E+01 0.  1.
          5    1    4    4  503    0  0.47521485568E+02 -0.90929668330E+01 -0.11230326365E+02  0.49891721425E+02  0.47000000000E+01 0. -1.
         -5    1    3    3    0  502 -0.10157728037E+02 -0.30381775419E+02 -0.95870901334E+01  0.33767351298E+02  0.47000000000E+01 0.  1.
<mgrwt>
<rscale>  0 0.12132263E+03</rscale>
<asrwt>0</asrwt>
<pdfrwt beam="1">  1        3 0.19099754E-01 0.12467909E+03</pdfrwt>
<pdfrwt beam="2">  1       -3 0.17399463E-01 0.12467909E+03</pdfrwt>
<totfact> 0.15809479E+03</totfact>
</mgrwt>
</event>
<event>
 8    1  0.9456677E-004  0.1292008E+03  0.7546771E-02  0.1228739E+00
          2   -1    0    0  501    0  0.00000000000E+00  0.00000000000E+00  0.12873267676E+04  0.12873267676E+04  0.00000000000E+00 0. -1.
         -2   -1    0    0    0  501 -0.00000000000E+00 -0.00000000000E+00 -0.20207055648E+02  0.20207055648E+02  0.00000000000E+00 0.  1.
         23    2    1    2    0    0  0.54396522488E+02  0.74226427732E+02  0.10251678321E+04  0.10332464622E+04  0.90336168287E+02 0.  0.
         23    2    1    2    0    0 -0.54396522488E+02 -0.74226427732E+02  0.24195187980E+03  0.27428736106E+03  0.90687926807E+02 0.  0.
          5    1    4    4  502    0 -0.31633834987E+02 -0.24361958335E+02  0.20284052807E+03  0.20678630119E+03  0.47000000000E+01 0. -1.
         -5    1    4    4    0  502 -0.22762687501E+02 -0.49864469398E+02  0.39111351725E+02  0.67501059875E+02  0.47000000000E+01 0.  1.
          5    1    3    3  503    0 -0.22981967377E+02  0.34148639830E+02  0.36118267449E+03  0.36355097962E+03  0.47000000000E+01 0. -1.
         -5    1    3    3    0  503  0.77378489865E+02  0.40077787902E+02  0.66398515763E+03  0.66969548254E+03  0.47000000000E+01 0.  1.
<mgrwt>
<rscale>  0 0.12913908E+03</rscale>
<asrwt>0</asrwt>
<pdfrwt beam="1">  1        2 0.19805021E+00 0.12920079E+03</pdfrwt>
<pdfrwt beam="2">  1       -2 0.31087788E-02 0.12920079E+03</pdfrwt>
<totfact> 0.69806915E+03</totfact>
</mgrwt>
</event>
<event>
 8    1  0.9456677E-004  0.1206551E+03  0.7546771E-02  0.1242282E+00
         -1   -1    0    0    0  501 -0.00000000000E+00  0.00000000000E+00  0.60849460253E+02  0.60849460253E+02  0.00000000000E+00 0.  1.
          1   -1    0    0  501    0  0.00000000000E+00 -0.00000000000E+00 -0.29019078087E+03  0.29019078087E+03  0.00000000000E+00 0. -1.
         23    2    1    2    0    0  0.66461911905E+01  0.78954797768E+02 -0.18936906220E+03  0.22454020917E+03  0.90992482483E+02 0.  0.
         23    2    1    2    0    0 -0.66461911905E+01 -0.78954797768E+02 -0.39972258424E+02  0.12650003196E+03  0.90146795250E+02 0.  0.
          5    1    3    3  502    0 -0.14047040312E+02  0.43308152147E+02 -0.17460812542E+03  0.18050762546E+03  0.47000000000E+01 0. -1.
         -5    1    3    3    0  502  0.20693231503E+02  0.35646645621E+02 -0.14760936774E+02  0.44032583714E+02  0.47000000000E+01 0.  1.
          5    1    4    4  503    0 -0.40082690154E+02 -0.12559241755E+02 -0.28879657391E+02  0.51190636004E+02  0.47000000000E+01 0. -1.
         -5    1    4    4    0  503  0.33436498964E+02 -0.66395556013E+02 -0.11092601033E+02  0.75309395954E+02  0.47000000000E+01 0.  1.
<mgrwt>
<rscale>  0 0.12049571E+03</rscale>
<asrwt>0</asrwt>
<pdfrwt beam="1">  1        1 0.44644735E-01 0.12065514E+03</pdfrwt>
<pdfrwt beam="2">  1       -1 0.93614554E-02 0.12065514E+03</pdfrwt>
<totfact> 0.58539172E+03</totfact>
</mgrwt>
</event>
<event>
 8    1  0.9456677E-004  0.1005257E+03  0.7546771E-02  0.1280569E+00
         -1   -1    0    0    0  501 -0.00000000000E+00  0.00000000000E+00  0.34342689893E+02  0.34342689893E+02  0.00000000000E+00 0.  1.
          1   -1    0    0  501    0  0.00000000000E+00 -0.00000000000E+00 -0.30726285870E+03  0.30726285870E+03  0.00000000000E+00 0. -1.
         23    2    1    2    0    0 -0.37329297541E+02  0.17935622577E+01 -0.90612073505E+02  0.13341897113E+03  0.90517294876E+02 0.  0.
         23    2    1    2    0    0  0.37329297541E+02 -0.17935622577E+01 -0.18230809530E+03  0.20818657746E+03  0.93320502051E+02 0.  0.
          5    1    4    4  502    0  0.60622116355E+02 -0.20841551683E+02 -0.87255784562E+02  0.10837468896E+03  0.47000000000E+01 0. -1.
         -5    1    3    3    0  503 -0.52490200618E+02 -0.25700145094E+02 -0.32088338962E+02  0.66839136111E+02  0.47000000000E+01 0.  1.
          5    1    3    3  503    0  0.15160903077E+02  0.27493707352E+02 -0.58523734543E+02  0.66579835017E+02  0.47000000000E+01 0. -1.
         -5    1    4    4    0  502 -0.23292818814E+02  0.19047989425E+02 -0.95052310739E+02  0.99811888501E+02  0.47000000000E+01 0.  1.
<mgrwt>
<rscale>  0 0.99870095E+02</rscale>
<asrwt>0</asrwt>
<pdfrwt beam="1">  1        1 0.47271207E-01 0.10052567E+03</pdfrwt>
<pdfrwt beam="2">  1       -1 0.52834909E-02 0.10052567E+03</pdfrwt>
<totfact> 0.12630822E+04</totfact>
</mgrwt>
</event>
<event>
 8    1  0.9456677E-004  0.2838506E+03  0.7546771E-02  0.1093604E+00
          1   -1    0    0  501    0  0.00000000000E+00  0.00000000000E+00  0.54311968472E+03  0.54311968472E+03  0.00000000000E+00 0. -1.
         -1   -1    0    0    0  501 -0.00000000000E+00 -0.00000000000E+00 -0.14842215564E+03  0.14842215564E+03  0.00000000000E+00 0.  1.
         23    2    1    2    0    0  0.13392587939E+03  0.23324923808E+03  0.20506285539E+03  0.35017332519E+03  0.90715129799E+02 0.  0.
         23    2    1    2    0    0 -0.13392587939E+03 -0.23324923808E+03  0.18963467369E+03  0.34136851517E+03  0.90718275156E+02 0.  0.
          5    1    3    3  502    0  0.63022470296E+02  0.19093473819E+03  0.14323140889E+03  0.24691138593E+03  0.47000000000E+01 0. -1.
         -5    1    4    4    0  503 -0.73471331701E+02 -0.18609432641E+03  0.10129536147E+03  0.22430331063E+03  0.47000000000E+01 0.  1.
          5    1    4    4  503    0 -0.60454547690E+02 -0.47154911677E+02  0.88339312220E+02  0.11706520454E+03  0.47000000000E+01 0. -1.
         -5    1    3    3    0  502  0.70903409095E+02  0.42314499894E+02  0.61831446502E+02  0.10326193926E+03  0.47000000000E+01 0.  1.
<mgrwt>
<rscale>  0 0.28385033E+03</rscale>
<asrwt>0</asrwt>
<pdfrwt beam="1">  1        1 0.83556874E-01 0.28385058E+03</pdfrwt>
<pdfrwt beam="2">  1       -1 0.22834178E-01 0.28385058E+03</pdfrwt>
<totfact> 0.65639736E+02</totfact>
</mgrwt>
</event>
<event>
 8    1  0.9456677E-004  0.1074103E+03  0.7546771E-02  0.1268577E+00
          1   -1    0    0  501    0  0.00000000000E+00  0.00000000000E+00  0.61345269950E+03  0.61345269950E+03  0.00000000000E+00 0. -1.
         -1   -1    0    0    0  501 -0.00000000000E+00 -0.00000000000E+00 -0.39805661103E+02  0.39805661103E+02  0.00000000000E+00 0.  1.
         23    2    1    2    0    0  0.15215692697E+02  0.55769582220E+02  0.53400474945E+03  0.54469995366E+03  0.90527363112E+02 0.  0.
         23    2    1    2    0    0 -0.15215692697E+02 -0.55769582220E+02  0.39642288942E+02  0.10855840694E+03  0.82895434374E+02 0.  0.
          5    1    4    4  502    0  0.24061369074E+02 -0.21927069262E+01  0.33650360332E+02  0.41691656190E+02  0.47000000000E+01 0. -1.
         -5    1    4    4    0  502 -0.39277061771E+02 -0.53576875294E+02  0.59919286092E+01  0.66866750752E+02  0.47000000000E+01 0.  1.
          5    1    3    3  503    0  0.44784899083E+02  0.41274609034E+02  0.20202975774E+03  0.21106253469E+03  0.47000000000E+01 0. -1.
         -5    1    3    3    0  503 -0.29569206385E+02  0.14494973186E+02  0.33197499171E+03  0.33363741897E+03  0.47000000000E+01 0.  1.
<mgrwt>
<rscale>  0 0.10578662E+03</rscale>
<asrwt>0</asrwt>
<pdfrwt beam="1">  1        1 0.94377331E-01 0.10741027E+03</pdfrwt>
<pdfrwt beam="2">  1       -1 0.61239483E-02 0.10741027E+03</pdfrwt>
<totfact> 0.42362838E+03</totfact>
</mgrwt>
</event>
<event>
 8    1  0.9456677E-004  0.1389821E+03  0.7546771E-02  0.1214746E+00
         -2   -1    0    0    0  501 -0.00000000000E+00  0.00000000000E+00  0.22758046641E+02  0.22758046641E+02  0.00000000000E+00 0.  1.
          2   -1    0    0  501    0  0.00000000000E+00 -0.00000000000E+00 -0.88778042047E+03  0.88778042047E+03  0.00000000000E+00 0. -1.
         23    2    1    2    0    0 -0.79308337333E+02  0.69712572818E+02 -0.33599400947E+03  0.36355853700E+03  0.90184146312E+02 0.  0.
         23    2    1    2    0    0  0.79308337333E+02 -0.69712572818E+02 -0.52902836436E+03  0.54697993011E+03  0.90368016842E+02 0.  0.
          5    1    4    4  502    0  0.75931875554E+02 -0.21489013084E+02 -0.42344218316E+03  0.43075840083E+03  0.47000000000E+01 0. -1.
         -5    1    4    4    0  502  0.33764617796E+01 -0.48223559735E+02 -0.10558618120E+03  0.11622152928E+03  0.47000000000E+01 0.  1.
          5    1    3    3  503    0 -0.73898545580E+02  0.89644083752E+02 -0.26304023525E+03  0.28759226719E+03  0.47000000000E+01 0. -1.
         -5    1    3    3    0  503 -0.54097917533E+01 -0.19931510934E+02 -0.72953774220E+02  0.75966269804E+02  0.47000000000E+01 0.  1.
<mgrwt>
<rscale>  0 0.13895225E+03</rscale>
<asrwt>0</asrwt>
<pdfrwt beam="1">  1        2 0.13658160E+00 0.13898213E+03</pdfrwt>
<pdfrwt beam="2">  1       -2 0.35012382E-02 0.13898213E+03</pdfrwt>
<totfact> 0.10014882E+04</totfact>
</mgrwt>
</event>
<event>
 8    1  0.9456677E-004  0.1088319E+03  0.7546771E-02  0.1263746E+00
         -2   -1    0    0    0  501 -0.00000000000E+00  0.00000000000E+00  0.39838459151E+03  0.39838459151E+03  0.00000000000E+00 0.  1.
          2   -1    0    0  501    0  0.00000000000E+00 -0.00000000000E+00 -0.29411690416E+02  0.29411690416E+02  0.00000000000E+00 0. -1.
         23    2    1    2    0    0  0.59258192631E+02 -0.33612913310E+01  0.16646234566E+03  0.19888209330E+03  0.91222490853E+02 0.  0.
         23    2    1    2    0    0 -0.59258192631E+02  0.33612913310E+01  0.20251055543E+03  0.22891418863E+03  0.88703714811E+02 0.  0.
          5    1    3    3  502    0 -0.12221172680E+02  0.20695538728E+02  0.12773427678E+02  0.27620876879E+02  0.47000000000E+01 0. -1.
         -5    1    3    3    0  502  0.71479365311E+02 -0.24056830059E+02  0.15368891798E+03  0.17126121642E+03  0.47000000000E+01 0.  1.
          5    1    4    4  503    0 -0.58892761276E+02 -0.23575476331E+02  0.74254202428E+02  0.97774930290E+02  0.47000000000E+01 0. -1.
         -5    1    4    4    0  503 -0.36543135453E+00  0.26936767662E+02  0.12825635300E+03  0.13113925834E+03  0.47000000000E+01 0.  1.
<mgrwt>
<rscale>  0 0.10830242E+03</rscale>
<asrwt>0</asrwt>
<pdfrwt beam="1">  1        2 0.45248757E-02 0.10883186E+03</pdfrwt>
<pdfrwt beam="2">  1       -2 0.61289933E-01 0.10883186E+03</pdfrwt>
<totfact> 0.42408032E+03</totfact>
</mgrwt>
</event>
<event>
 8    1  0.9456677E-004  0.1175534E+03  0.7546771E-02  0.1247830E+00
          1   -1    0    0  501    0  0.00000000000E+00  0.00000000000E+00  0.83718838139E+02  0.83718838139E+02  0.00000000000E+00 0. -1.
         -1   -1    0    0    0  501 -0.00000000000E+00 -0.00000000000E+00 -0.21439030048E+03  0.21439030048E+03  0.00000000000E+00 0.  1.
         23    2    1    2    0    0 -0.57115139679E+02 -0.46159719426E+02 -0.13802093795E+03  0.18032622719E+03  0.89860503124E+02 0.  0.
         23    2    1    2    0    0  0.57115139679E+02  0.46159719426E+02  0.73494756128E+01  0.11778291143E+03  0.91792922137E+02 0.  0.
          5    1    4    4  502    0 -0.65826984526E+01  0.44005153495E+02  0.25303119065E+02  0.51401588375E+02  0.47000000000E+01 0. -1.
         -5    1    3    3    0  503 -0.39180711107E+02 -0.60274245926E+02 -0.13947197458E+03  0.15697972652E+03  0.47000000000E+01 0.  1.
          5    1    3    3  503    0 -0.17934428572E+02  0.14114526501E+02  0.14510366222E+01  0.23346500676E+02  0.47000000000E+01 0. -1.
         -5    1    4    4    0  502  0.63697838131E+02  0.21545659310E+01 -0.17953643452E+02  0.66381323052E+02  0.47000000000E+01 0.  1.
<mgrwt>
<rscale>  0 0.11717591E+03</rscale>
<asrwt>0</asrwt>
<pdfrwt beam="1">  1        1 0.12879822E-01 0.11755339E+03</pdfrwt>
<pdfrwt beam="2">  1       -1 0.32983122E-01 0.11755339E+03</pdfrwt>
<totfact> 0.37674715E+03</totfact>
</mgrwt>
</event>
<event>
 8    1  0.9456677E-004  0.1119438E+03  0.7546771E-02  0.1261294E+00
         -1   -1    0    0    0  501 -0.00000000000E+00  0.00000000000E+00  0.15029139657E+03  0.15029139657E+03  0.00000000000E+00 0.  1.
          1   -1    0    0  501    0  0.00000000000E+00 -0.00000000000E+00 -0.87416013125E+02  0.87416013125E+02  0.00000000000E+00 0. -1.
         23    2    1    2    0    0 -0.44801170476E+02  0.24440767713E+02 -0.88293045516E+01  0.11229144861E+03  0.99633913952E+02 0.  0.
         23    2    1    2    0    0  0.44801170476E+02 -0.24440767713E+02  0.71704687998E+02  0.12541596109E+03  0.89348223331E+02 0.  0.
          5    1    4    4  502    0  0.35977024913E+02 -0.56880092911E+02  0.57397209704E+02  0.88578896882E+02  0.47000000000E+01 0. -1.
         -5    1    3    3    0  503 -0.55092380498E+02 -0.19626720323E+02  0.15517668429E+02  0.60689921511E+02  0.47000000000E+01 0.  1.
          5    1    3    3  503    0  0.10291210022E+02  0.44067488036E+02 -0.24346972981E+02  0.51601527098E+02  0.47000000000E+01 0. -1.
         -5    1    4    4    0  502  0.88241455633E+01  0.32439325197E+02  0.14307478294E+02  0.36837064206E+02  0.47000000000E+01 0.  1.
<mgrwt>
<rscale>  0 0.10960988E+03</rscale>
<asrwt>0</asrwt>
<pdfrwt beam="1">  1        1 0.13448617E-01 0.11194379E+03</pdfrwt>
<pdfrwt beam="2">  1       -1 0.23121753E-01 0.11194379E+03</pdfrwt>
<totfact> 0.63931404E+03</totfact>
</mgrwt>
</event>
<event>
 8    1  0.9456677E-004  0.9965414E+02  0.7546771E-02  0.1282886E+00
         -1   -1    0    0    0  501 -0.00000000000E+00  0.00000000000E+00  0.21189963012E+03  0.21189963012E+03  0.00000000000E+00 0.  1.
          1   -1    0    0  501    0  0.00000000000E+00 -0.00000000000E+00 -0.55607371672E+02  0.55607371672E+02  0.00000000000E+00 0. -1.
         23    2    1    2    0    0 -0.10317717780E+02  0.23386109408E+02  0.19318147452E+02  0.98117350120E+02  0.92738655156E+02 0.  0.
         23    2    1    2    0    0  0.10317717780E+02 -0.23386109408E+02  0.13697411099E+03  0.16938965167E+03  0.96320203471E+02 0.  0.
          5    1    3    3  502    0  0.20033548760E+02 -0.28918147648E+02  0.56121039803E+01  0.35933105215E+02  0.47000000000E+01 0.  1.
         -5    1    4    4    0  503 -0.36014541606E+02 -0.35047507108E+02  0.57203593993E+02  0.76287063957E+02  0.47000000000E+01 0.  1.
          5    1    4    4  503    0  0.46332259386E+02  0.11661397699E+02  0.79770516999E+02  0.93102587710E+02  0.47000000000E+01 0. -1.
         -5    1    3    3    0  502 -0.30351266540E+02  0.52304257056E+02  0.13706043472E+02  0.62184244905E+02  0.47000000000E+01 0. -1.
<mgrwt>
<rscale>  0 0.98778324E+02</rscale>
<asrwt>0</asrwt>
<pdfrwt beam="1">  1        1 0.85549804E-02 0.99654137E+02</pdfrwt>
<pdfrwt beam="2">  1       -1 0.32599943E-01 0.99654137E+02</pdfrwt>
<totfact> 0.64988744E+03</totfact>
</mgrwt>
</event>
<event>
 8    1  0.9456677E-004  0.9758035E+02  0.7546771E-02  0.1286617E+00
         -2   -1    0    0    0  501 -0.00000000000E+00  0.00000000000E+00  0.45165955201E+03  0.45165955201E+03  0.00000000000E+00 0.  1.
          2   -1    0    0  501    0  0.00000000000E+00 -0.00000000000E+00 -0.30783142753E+02  0.30783142753E+02  0.00000000000E+00 0. -1.
         23    2    1    2    0    0 -0.37867842464E+02 -0.10232559683E+01  0.73454971296E+02  0.12213745028E+03  0.89927211713E+02 0.  0.
         23    2    1    2    0    0  0.37867842464E+02  0.10232559683E+01  0.34742143796E+03  0.36030524448E+03  0.87653825374E+02 0.  0.
          5    1    4    4  502    0  0.48541447635E+02 -0.33091060808E+02  0.23301559516E+03  0.24035317354E+03  0.47000000000E+01 0.  1.
         -5    1    4    4    0  502 -0.10673605171E+02  0.34114316777E+02  0.11440584280E+03  0.11995207094E+03  0.47000000000E+01 0.  1.
          5    1    3    3  503    0  0.17815476738E+02  0.21660206309E+02  0.49814948004E+02  0.57360045270E+02  0.47000000000E+01 0. -1.
         -5    1    3    3    0  503 -0.55683319202E+02 -0.22683462277E+02  0.23640023291E+02  0.64777405007E+02  0.47000000000E+01 0.  1.
<mgrwt>
<rscale>  0 0.97053340E+02</rscale>
<asrwt>0</asrwt>
<pdfrwt beam="1">  1        2 0.47358684E-02 0.97580346E+02</pdfrwt>
<pdfrwt beam="2">  1       -2 0.69486080E-01 0.97580346E+02</pdfrwt>
<totfact> 0.30505424E+03</totfact>
</mgrwt>
</event>
<event>
 8    1  0.9456677E-004  0.1354120E+03  0.7546771E-02  0.1219861E+00
          4   -1    0    0  501    0  0.00000000000E+00  0.00000000000E+00  0.59623191484E+03  0.59623191484E+03  0.00000000000E+00 0. -1.
         -4   -1    0    0    0  501 -0.00000000000E+00 -0.00000000000E+00 -0.38177904052E+02  0.38177904052E+02  0.00000000000E+00 0.  1.
         23    2    1    2    0    0 -0.97237715512E+02  0.18858990612E+02  0.13833039128E+03  0.19357610082E+03  0.92334039301E+02 0.  0.
         23    2    1    2    0    0  0.97237715512E+02 -0.18858990612E+02  0.41972361951E+03  0.44083371807E+03  0.91409055176E+02 0.  0.
          5    1    4    4  502    0  0.10072236381E+03  0.11226838526E+02  0.28071331957E+03  0.29848466335E+03  0.47000000000E+01 0. -1.
         -5    1    4    4    0  502 -0.34846482969E+01 -0.30085829138E+02  0.13901029994E+03  0.14234905472E+03  0.47000000000E+01 0.  1.
          5    1    3    3  503    0 -0.19349311273E+02  0.32918990224E+02  0.96597285235E+02  0.10397683049E+03  0.47000000000E+01 0. -1.
         -5    1    3    3    0  503 -0.77888404239E+02 -0.14059999613E+02  0.41733106043E+02  0.89599270332E+02  0.47000000000E+01 0.  1.
<mgrwt>
<rscale>  0 0.13525447E+03</rscale>
<asrwt>0</asrwt>
<pdfrwt beam="1">  1        4 0.91727980E-01 0.13541200E+03</pdfrwt>
<pdfrwt beam="2">  1       -4 0.58735241E-02 0.13541200E+03</pdfrwt>
<totfact> 0.31965063E+02</totfact>
</mgrwt>
</event>
<event>
 8    1  0.9456677E-004  0.1168240E+03  0.7546771E-02  0.1250611E+00
         -2   -1    0    0    0  501 -0.00000000000E+00  0.00000000000E+00  0.27125221136E+02  0.27125221136E+02  0.00000000000E+00 0.  1.
          2   -1    0    0  501    0  0.00000000000E+00 -0.00000000000E+00 -0.56673577781E+03  0.56673577781E+03  0.00000000000E+00 0. -1.
         23    2    1    2    0    0  0.62476777328E+02  0.22928518546E+02 -0.14994526819E+03  0.18706020881E+03  0.89882554477E+02 0.  0.
         23    2    1    2    0    0 -0.62476777328E+02 -0.22928518546E+02 -0.38966528848E+03  0.40680079013E+03  0.96014484000E+02 0.  0.
          5    1    3    3  502    0  0.13856081634E+02 -0.22283480259E+02 -0.10095426098E+03  0.10441454544E+03  0.47000000000E+01 0. -1.
         -5    1    4    4    0  503 -0.54172326268E+02  0.19259095756E+02 -0.11401271282E+03  0.12777535908E+03  0.47000000000E+01 0.  1.
          5    1    4    4  503    0 -0.83044510606E+01 -0.42187614302E+02 -0.27565257565E+03  0.27902543105E+03  0.47000000000E+01 0. -1.
         -5    1    3    3    0  502  0.48620695694E+02  0.45211998805E+02 -0.48991007218E+02  0.82645663371E+02  0.47000000000E+01 0.  1.
<mgrwt>
<rscale>  0 0.11555727E+03</rscale>
<asrwt>0</asrwt>
<pdfrwt beam="1">  1        2 0.87190120E-01 0.11682399E+03</pdfrwt>
<pdfrwt beam="2">  1       -2 0.41731109E-02 0.11682399E+03</pdfrwt>
<totfact> 0.13050228E+04</totfact>
</mgrwt>
</event>
<event>
 8    1  0.9456677E-004  0.9713345E+02  0.7546771E-02  0.1286734E+00
          1   -1    0    0  501    0  0.00000000000E+00  0.00000000000E+00  0.90955078484E+03  0.90955078484E+03  0.00000000000E+00 0. -1.
         -1   -1    0    0    0  501 -0.00000000000E+00 -0.00000000000E+00 -0.49351130708E+02  0.49351130708E+02  0.00000000000E+00 0.  1.
         23    2    1    2    0    0  0.28476326767E+02  0.18429496026E+02  0.39429995348E+01  0.97213442524E+02  0.91018452262E+02 0.  0.
         23    2    1    2    0    0 -0.28476326767E+02 -0.18429496026E+02  0.85625665460E+03  0.86168847302E+03  0.90448982811E+02 0.  0.
          5    1    4    4  502    0 -0.59491259436E+02 -0.24685636250E+02  0.58304308476E+03  0.58660882986E+03  0.47000000000E+01 0. -1.
         -5    1    4    4    0  502  0.31014932669E+02  0.62561402242E+01  0.27321356984E+03  0.27507964316E+03  0.47000000000E+01 0.  1.
          5    1    3    3  503    0 -0.77236074377E+01  0.41227484433E+02  0.25256722668E+02  0.49186905009E+02  0.47000000000E+01 0. -1.
         -5    1    3    3    0  503  0.36199934205E+02 -0.22797988407E+02 -0.21313723133E+02  0.48026537515E+02  0.47000000000E+01 0.  1.
<mgrwt>
<rscale>  0 0.96999816E+02</rscale>
<asrwt>0</asrwt>
<pdfrwt beam="1">  1        1 0.13993088E+00 0.97133445E+02</pdfrwt>
<pdfrwt beam="2">  1       -1 0.75924824E-02 0.97133445E+02</pdfrwt>
<totfact> 0.17292177E+03</totfact>
</mgrwt>
</event>
<event>
 8    1  0.9456677E-004  0.9225091E+02  0.7546771E-02  0.1297610E+00
          4   -1    0    0  501    0  0.00000000000E+00  0.00000000000E+00  0.28741085464E+02  0.28741085464E+02  0.00000000000E+00 0. -1.
         -4   -1    0    0    0  501 -0.00000000000E+00 -0.00000000000E+00 -0.34944675395E+03  0.34944675395E+03  0.00000000000E+00 0.  1.
         23    2    1    2    0    0 -0.13529238482E+02  0.37431196487E+01 -0.85867997207E+02  0.12588056223E+03  0.90970059715E+02 0.  0.
         23    2    1    2    0    0  0.13529238482E+02 -0.37431196487E+01 -0.23483767128E+03  0.25230727718E+03  0.91176636425E+02 0.  0.
          5    1    4    4  502    0  0.80199484869E+01  0.43325823380E+02 -0.12365062188E+03  0.13135072453E+03  0.47000000000E+01 0. -1.
         -5    1    3    3    0  503 -0.29116250029E+02  0.19896167601E+02 -0.94809859814E+02  0.10126506317E+03  0.47000000000E+01 0.  1.
          5    1    3    3  503    0  0.15587011547E+02 -0.16153047953E+02  0.89418626065E+01  0.24615499061E+02  0.47000000000E+01 0. -1.
         -5    1    4    4    0  502  0.55092899950E+01 -0.47068943028E+02 -0.11118704940E+03  0.12095655265E+03  0.47000000000E+01 0.  1.
<mgrwt>
<rscale>  0 0.92199825E+02</rscale>
<asrwt>0</asrwt>
<pdfrwt beam="1">  1        4 0.44217051E-02 0.92250909E+02</pdfrwt>
<pdfrwt beam="2">  1       -4 0.53761043E-01 0.92250909E+02</pdfrwt>
<totfact> 0.14625883E+03</totfact>
</mgrwt>
</event>
<event>
 8    1  0.9456677E-004  0.1070417E+03  0.7546771E-02  0.1267212E+00
          1   -1    0    0  501    0  0.00000000000E+00  0.00000000000E+00  0.11458585258E+04  0.11458585258E+04  0.00000000000E+00 0. -1.
         -1   -1    0    0    0  501 -0.00000000000E+00 -0.00000000000E+00 -0.10768874304E+02  0.10768874304E+02  0.00000000000E+00 0.  1.
         23    2    1    2    0    0  0.39541605425E+02 -0.36717976589E+02  0.74670785854E+03  0.75434114251E+03  0.92445578111E+02 0.  0.
         23    2    1    2    0    0 -0.39541605425E+02  0.36717976589E+02  0.38838179294E+03  0.40228625758E+03  0.89900320274E+02 0.  0.
          5    1    4    4  502    0 -0.14490091364E+01 -0.26275453811E+02  0.16196870028E+03  0.16415982752E+03  0.47000000000E+01 0. -1.
         -5    1    3    3    0  503 -0.24557697311E+02 -0.20027945599E+02  0.12281343341E+03  0.12692292357E+03  0.47000000000E+01 0.  1.
          5    1    3    3  503    0  0.64099302736E+02 -0.16690030991E+02  0.62389442514E+03  0.62741821894E+03  0.47000000000E+01 0. -1.
         -5    1    4    4    0  502 -0.38092596288E+02  0.62993430401E+02  0.22641309265E+03  0.23812643005E+03  0.47000000000E+01 0.  1.
<mgrwt>
<rscale>  0 0.10648990E+03</rscale>
<asrwt>0</asrwt>
<pdfrwt beam="1">  1        1 0.17628583E+00 0.10704174E+03</pdfrwt>
<pdfrwt beam="2">  1       -1 0.16567508E-02 0.10704174E+03</pdfrwt>
<totfact> 0.10756270E+04</totfact>
</mgrwt>
</event>
<event>
 8    1  0.9456677E-004  0.1244388E+03  0.7546771E-02  0.1237131E+00
         -2   -1    0    0    0  501 -0.00000000000E+00  0.00000000000E+00  0.11593623727E+03  0.11593623727E+03  0.00000000000E+00 0.  1.
          2   -1    0    0  501    0  0.00000000000E+00 -0.00000000000E+00 -0.13214658462E+03  0.13214658462E+03  0.00000000000E+00 0. -1.
         23    2    1    2    0    0 -0.39094305270E+02  0.72521421845E+02 -0.22469550750E+02  0.12645114711E+03  0.93259265296E+02 0.  0.
         23    2    1    2    0    0  0.39094305270E+02 -0.72521421845E+02  0.62592033938E+01  0.12163167478E+03  0.89260099433E+02 0.  0.
          5    1    4    4  502    0 -0.11674269649E+02 -0.58006948612E+02 -0.19786406734E+02  0.62567456002E+02  0.47000000000E+01 0. -1.
         -5    1    3    3    0  503 -0.77406488616E+01  0.51663475152E+02  0.30966586499E+02  0.60910194458E+02  0.47000000000E+01 0.  1.
          5    1    3    3  503    0 -0.31353656408E+02  0.20857946694E+02 -0.53436137249E+02  0.65540952652E+02  0.47000000000E+01 0. -1.
         -5    1    4    4    0  502  0.50768574918E+02 -0.14514473233E+02  0.26045610128E+02  0.59064218774E+02  0.47000000000E+01 0.  1.
<mgrwt>
<rscale>  0 0.12368999E+03</rscale>
<asrwt>0</asrwt>
<pdfrwt beam="1">  1        2 0.20330244E-01 0.12443879E+03</pdfrwt>
<pdfrwt beam="2">  1       -2 0.17836344E-01 0.12443879E+03</pdfrwt>
<totfact> 0.65692547E+03</totfact>
</mgrwt>
</event>
<event>
 8    1  0.9456677E-004  0.1081567E+03  0.7546771E-02  0.1266273E+00
         -2   -1    0    0    0  501 -0.00000000000E+00  0.00000000000E+00  0.15682273021E+03  0.15682273021E+03  0.00000000000E+00 0.  1.
          2   -1    0    0  501    0  0.00000000000E+00 -0.00000000000E+00 -0.33201417158E+03  0.33201417158E+03  0.00000000000E+00 0. -1.
         23    2    1    2    0    0  0.26210542419E+02 -0.53522154756E+02  0.12934448314E+03  0.16566510613E+03  0.84636389857E+02 0.  0.
         23    2    1    2    0    0 -0.26210542419E+02  0.53522154756E+02 -0.30453592452E+03  0.32317179566E+03  0.90256670697E+02 0.  0.
          5    1    3    3  502    0  0.19618586258E+02  0.18892592428E+02  0.55068369736E+02  0.61615211765E+02  0.47000000000E+01 0. -1.
         -5    1    4    4    0  503  0.10415594796E+02  0.63853278503E+02 -0.14107742270E+03  0.15527606057E+03  0.47000000000E+01 0.  1.
          5    1    4    4  503    0 -0.36626137215E+02 -0.10331123747E+02 -0.16345850182E+03  0.16789573509E+03  0.47000000000E+01 0. -1.
         -5    1    3    3    0  502  0.65919561609E+01 -0.72414747184E+02  0.74276113403E+02  0.10404989437E+03  0.47000000000E+01 0.  1.
<mgrwt>
<rscale>  0 0.10697662E+03</rscale>
<asrwt>0</asrwt>
<pdfrwt beam="1">  1        2 0.51079103E-01 0.10815674E+03</pdfrwt>
<pdfrwt beam="2">  1       -2 0.24126574E-01 0.10815674E+03</pdfrwt>
<totfact> 0.14485848E+03</totfact>
</mgrwt>
</event>
<event>
 8    1  0.9456677E-004  0.1841521E+03  0.7546771E-02  0.1166296E+00
          2   -1    0    0  501    0  0.00000000000E+00  0.00000000000E+00  0.71826428509E+03  0.71826428509E+03  0.00000000000E+00 0. -1.
         -2   -1    0    0    0  501 -0.00000000000E+00 -0.00000000000E+00 -0.47291843900E+02  0.47291843900E+02  0.00000000000E+00 0.  1.
         23    2    1    2    0    0 -0.69136547321E+02 -0.13032287857E+03  0.41691979603E+03  0.45178112140E+03  0.92304661202E+02 0.  0.
         23    2    1    2    0    0  0.69136547321E+02  0.13032287857E+03  0.25405264516E+03  0.31377500758E+03  0.11021839238E+03 0.  0.
          5    1    4    4  502    0 -0.30095301202E+02  0.27163037056E+02  0.61204162749E+02  0.73563559419E+02  0.47000000000E+01 0. -1.
         -5    1    3    3    0  503 -0.26319630575E+02 -0.25668736601E+02  0.23227470375E+03  0.23521316926E+03  0.47000000000E+01 0.  1.
          5    1    3    3  503    0 -0.42816916746E+02 -0.10465414197E+03  0.18464509228E+03  0.21656795214E+03  0.47000000000E+01 0. -1.
         -5    1    4    4    0  502  0.99231848523E+02  0.10315984152E+03  0.19284848241E+03  0.24021144817E+03  0.47000000000E+01 0.  1.
<mgrwt>
<rscale>  0 0.18156592E+03</rscale>
<asrwt>0</asrwt>
<pdfrwt beam="1">  1        2 0.11050219E+00 0.18415214E+03</pdfrwt>
<pdfrwt beam="2">  1       -2 0.72756688E-02 0.18415214E+03</pdfrwt>
<totfact> 0.43864766E+03</totfact>
</mgrwt>
</event>
<event>
 8    1  0.9456677E-004  0.1152783E+03  0.7546771E-02  0.1251325E+00
         -2   -1    0    0    0  501 -0.00000000000E+00  0.00000000000E+00  0.31927672483E+02  0.31927672483E+02  0.00000000000E+00 0.  1.
          2   -1    0    0  501    0  0.00000000000E+00 -0.00000000000E+00 -0.42719016772E+03  0.42719016772E+03  0.00000000000E+00 0. -1.
         23    2    1    2    0    0  0.52615445619E+02 -0.42518269247E+02 -0.15737022589E+03  0.19476614547E+03  0.92694525673E+02 0.  0.
         23    2    1    2    0    0 -0.52615445619E+02  0.42518269247E+02 -0.23789226935E+03  0.26435169473E+03  0.93342907346E+02 0.  0.
          5    1    4    4  502    0 -0.34682178824E+02  0.71581538781E+02 -0.18208784504E+03  0.19875825400E+03  0.47000000000E+01 0. -1.
         -5    1    3    3    0  503  0.49980284873E+02 -0.70221085616E+02 -0.12355170869E+03  0.15071875949E+03  0.47000000000E+01 0.  1.
          5    1    3    3  503    0  0.26351607456E+01  0.27702816369E+02 -0.33818517195E+02  0.44047385985E+02  0.47000000000E+01 0. -1.
         -5    1    4    4    0  502 -0.17933266794E+02 -0.29063269534E+02 -0.55804424310E+02  0.65593440727E+02  0.47000000000E+01 0.  1.
<mgrwt>
<rscale>  0 0.11514698E+03</rscale>
<asrwt>0</asrwt>
<pdfrwt beam="1">  1        2 0.65721557E-01 0.11527830E+03</pdfrwt>
<pdfrwt beam="2">  1       -2 0.49119501E-02 0.11527830E+03</pdfrwt>
<totfact> 0.13918471E+04</totfact>
</mgrwt>
</event>
<event>
 8    1  0.9580718E-004  0.9218658E+02  0.7546771E-02  0.1298226E+00
          2   -1    0    0  501    0  0.00000000000E+00  0.00000000000E+00  0.49752739839E+03  0.49752739839E+03  0.00000000000E+00 0. -1.
         -2   -1    0    0    0  501 -0.00000000000E+00 -0.00000000000E+00 -0.38252180228E+02  0.38252180228E+02  0.00000000000E+00 0.  1.
         23    2    1    2    0    0 -0.31448066321E+01  0.48442274953E+01  0.42924450221E+03  0.43882490286E+03  0.91011517674E+02 0.  0.
         23    2    1    2    0    0  0.31448066321E+01 -0.48442274953E+01  0.30030715957E+02  0.96954675757E+02  0.92005482997E+02 0.  0.
          5    1    4    4  502    0  0.28900302976E+02  0.33472456868E+01  0.53350961377E+02  0.60949541800E+02  0.47000000000E+01 0. -1.
         -5    1    4    4    0  502 -0.25755496343E+02 -0.81914731821E+01 -0.23320245420E+02  0.36005133957E+02  0.47000000000E+01 0.  1.
          5    1    3    3  503    0  0.20898646444E+02  0.37230382437E+02  0.30752414403E+03  0.31050932991E+03  0.47000000000E+01 0. -1.
         -5    1    3    3    0  503 -0.24043453076E+02 -0.32386154941E+02  0.12172035818E+03  0.12831557296E+03  0.47000000000E+01 0.  1.
<mgrwt>
<rscale>  0 0.91937574E+02</rscale>
<asrwt>0</asrwt>
<pdfrwt beam="1">  1        2 0.76542672E-01 0.92186578E+02</pdfrwt>
<pdfrwt beam="2">  1       -2 0.58849512E-02 0.92186578E+02</pdfrwt>
<totfact> 0.88569348E+03</totfact>
</mgrwt>
</event>
<event>
 8    1  0.9456677E-004  0.1426219E+03  0.7546771E-02  0.1210429E+00
         -1   -1    0    0    0  501 -0.00000000000E+00  0.00000000000E+00  0.41340296507E+02  0.41340296507E+02  0.00000000000E+00 0.  1.
          1   -1    0    0  501    0  0.00000000000E+00 -0.00000000000E+00 -0.49896474365E+03  0.49896474365E+03  0.00000000000E+00 0. -1.
         23    2    1    2    0    0 -0.12954193165E+01  0.10173891359E+03 -0.18379790247E+03  0.23156243656E+03  0.97401275260E+02 0.  0.
         23    2    1    2    0    0  0.12954193165E+01 -0.10173891359E+03 -0.27382654468E+03  0.30874260360E+03  0.99942653850E+02 0.  0.
          5    1    3    3  502    0 -0.43649484092E+02  0.24153280448E+02 -0.86964434943E+02  0.10036713288E+03  0.47000000000E+01 0. -1.
         -5    1    3    3    0  502  0.42354064776E+02  0.77585633145E+02 -0.96833467526E+02  0.13119530368E+03  0.47000000000E+01 0.  1.
          5    1    4    4  503    0  0.33266128858E+02 -0.10465646930E+03 -0.20333493764E+03  0.23114237768E+03  0.47000000000E+01 0. -1.
         -5    1    4    4    0  503 -0.31970709541E+02  0.29175557095E+01 -0.70491607039E+02  0.77600225920E+02  0.47000000000E+01 0.  1.
<mgrwt>
<rscale>  0 0.14217757E+03</rscale>
<asrwt>0</asrwt>
<pdfrwt beam="1">  1        1 0.76763804E-01 0.14262194E+03</pdfrwt>
<pdfrwt beam="2">  1       -1 0.63600458E-02 0.14262194E+03</pdfrwt>
<totfact> 0.53470821E+03</totfact>
</mgrwt>
</event>
<event>
 8    1  0.9456677E-004  0.9682339E+02  0.7546771E-02  0.1288709E+00
         -3   -1    0    0    0  501 -0.00000000000E+00  0.00000000000E+00  0.15714275185E+03  0.15714275185E+03  0.00000000000E+00 0.  1.
          3   -1    0    0  501    0  0.00000000000E+00 -0.00000000000E+00 -0.58097426922E+02  0.58097426922E+02  0.00000000000E+00 0. -1.
         23    2    1    2    0    0  0.27142484449E+02  0.96446814270E+00  0.54787597276E+02  0.10878119857E+03  0.89966792134E+02 0.  0.
         23    2    1    2    0    0 -0.27142484449E+02 -0.96446814270E+00  0.44257727654E+02  0.10645898020E+03  0.92936125093E+02 0.  0.
          5    1    4    4  502    0 -0.18243693893E+02 -0.35470147755E+02 -0.99876648082E+01  0.41386074916E+02  0.47000000000E+01 0. -1.
         -5    1    3    3    0  503  0.56165984894E+02  0.92666971765E+01  0.53408564838E+02  0.78198812867E+02  0.47000000000E+01 0.  1.
          5    1    3    3  503    0 -0.29023500445E+02 -0.83022290338E+01  0.13790324374E+01  0.30582385706E+02  0.47000000000E+01 0. -1.
         -5    1    4    4    0  502 -0.88987905555E+01  0.34505679612E+02  0.54245392462E+02  0.65072905285E+02  0.47000000000E+01 0.  1.
<mgrwt>
<rscale>  0 0.96103796E+02</rscale>
<asrwt>0</asrwt>
<pdfrwt beam="1">  1        3 0.89380657E-02 0.96823386E+02</pdfrwt>
<pdfrwt beam="2">  1       -3 0.24175808E-01 0.96823386E+02</pdfrwt>
<totfact> 0.30335671E+03</totfact>
</mgrwt>
</event>
<event>
 8    1  0.9456677E-004  0.9201113E+02  0.7546771E-02  0.1299257E+00
          1   -1    0    0  501    0  0.00000000000E+00  0.00000000000E+00  0.55456891529E+02  0.55456891529E+02  0.00000000000E+00 0. -1.
         -1   -1    0    0    0  501 -0.00000000000E+00 -0.00000000000E+00 -0.43710304379E+03  0.43710304379E+03  0.00000000000E+00 0.  1.
         23    2    1    2    0    0 -0.11296535873E+02  0.12479711851E+02 -0.39137809391E+03  0.40204833072E+03  0.90458238507E+02 0.  0.
         23    2    1    2    0    0  0.11296535873E+02 -0.12479711851E+02  0.97319416520E+01  0.90511604594E+02  0.88398444258E+02 0.  0.
          5    1    3    3  502    0 -0.31184854162E+02 -0.14200948083E+02 -0.62286165777E+02  0.71244778775E+02  0.47000000000E+01 0. -1.
         -5    1    4    4    0  503  0.59452406865E+01  0.38065363485E+02  0.66147929010E+01  0.39372112836E+02  0.47000000000E+01 0.  1.
          5    1    4    4  503    0  0.53512951866E+01 -0.50545075336E+02  0.31171487510E+01  0.51139491757E+02  0.47000000000E+01 0. -1.
         -5    1    3    3    0  502  0.19888318288E+02  0.26680659934E+02 -0.32909192813E+03  0.33080355195E+03  0.47000000000E+01 0.  1.
<mgrwt>
<rscale>  0 0.91500839E+02</rscale>
<asrwt>0</asrwt>
<pdfrwt beam="1">  1        1 0.85318296E-02 0.92011129E+02</pdfrwt>
<pdfrwt beam="2">  1       -1 0.67246621E-01 0.92011129E+02</pdfrwt>
<totfact> 0.17705468E+03</totfact>
</mgrwt>
</event>
<event>
 8    1  0.9456677E-004  0.8876625E+02  0.7546771E-02  0.1305962E+00
          1   -1    0    0  501    0  0.00000000000E+00  0.00000000000E+00  0.13924754512E+03  0.13924754512E+03  0.00000000000E+00 0. -1.
         -1   -1    0    0    0  501 -0.00000000000E+00 -0.00000000000E+00 -0.57339574982E+02  0.57339574982E+02  0.00000000000E+00 0.  1.
         23    2    1    2    0    0  0.67598634741E+01 -0.38586738779E+01  0.28939109689E+02  0.93218130704E+02  0.88269828957E+02 0.  0.
         23    2    1    2    0    0 -0.67598634741E+01  0.38586738779E+01  0.52968860444E+02  0.10336898939E+03  0.88424333038E+02 0.  0.
          5    1    4    4  502    0  0.20869673871E+02 -0.31123295296E+02  0.43406183604E+02  0.57535985024E+02  0.47000000000E+01 0. -1.
         -5    1    3    3    0  503  0.41673621118E+02 -0.14054079891E+02 -0.33478062074E+01  0.44356574091E+02  0.47000000000E+01 0.  1.
          5    1    3    3  503    0 -0.34913757644E+02  0.10195406013E+02  0.32286915896E+02  0.48861556614E+02  0.47000000000E+01 0. -1.
         -5    1    4    4    0  502 -0.27629537345E+02  0.34981969174E+02  0.95626768404E+01  0.45833004370E+02  0.47000000000E+01 0.  1.
<mgrwt>
<rscale>  0 0.88727752E+02</rscale>
<asrwt>0</asrwt>
<pdfrwt beam="1">  1        1 0.21422699E-01 0.88766254E+02</pdfrwt>
<pdfrwt beam="2">  1       -1 0.88214731E-02 0.88766254E+02</pdfrwt>
<totfact> 0.15449008E+04</totfact>
</mgrwt>
</event>
<event>
 8    1  0.9456677E-004  0.1152660E+03  0.7546771E-02  0.1252791E+00
          2   -1    0    0  501    0  0.00000000000E+00  0.00000000000E+00  0.63712474887E+03  0.63712474887E+03  0.00000000000E+00 0. -1.
         -2   -1    0    0    0  501 -0.00000000000E+00 -0.00000000000E+00 -0.22017229834E+02  0.22017229834E+02  0.00000000000E+00 0.  1.
         23    2    1    2    0    0 -0.64511499828E+02  0.15194351866E+02  0.20754863246E+03  0.23559683136E+03  0.89648369589E+02 0.  0.
         23    2    1    2    0    0  0.64511499828E+02 -0.15194351866E+02  0.40755888658E+03  0.42354514735E+03  0.94306117921E+02 0.  0.
          5    1    4    4  502    0  0.16011265672E+02  0.37835005803E+02  0.11357029238E+03  0.12086417833E+03  0.47000000000E+01 0. -1.
         -5    1    3    3    0  503 -0.57428320598E+02 -0.28681836723E+02  0.97604112275E+02  0.11691583510E+03  0.47000000000E+01 0.  1.
          5    1    3    3  503    0 -0.70831792301E+01  0.43876188588E+02  0.10994452019E+03  0.11868099625E+03  0.47000000000E+01 0. -1.
         -5    1    4    4    0  502  0.48500234156E+02 -0.53029357669E+02  0.29398859420E+03  0.30268096902E+03  0.47000000000E+01 0.  1.
<mgrwt>
<rscale>  0 0.11430948E+03</rscale>
<asrwt>0</asrwt>
<pdfrwt beam="1">  1        2 0.98019178E-01 0.11526598E+03</pdfrwt>
<pdfrwt beam="2">  1       -2 0.33872666E-02 0.11526598E+03</pdfrwt>
<totfact> 0.15538183E+04</totfact>
</mgrwt>
</event>
<event>
 8    1  0.9456677E-004  0.9464454E+02  0.7546771E-02  0.1292096E+00
         -1   -1    0    0    0  501 -0.00000000000E+00  0.00000000000E+00  0.24080727867E+02  0.24080727867E+02  0.00000000000E+00 0.  1.
          1   -1    0    0  501    0  0.00000000000E+00 -0.00000000000E+00 -0.37174423445E+03  0.37174423445E+03  0.00000000000E+00 0. -1.
         23    2    1    2    0    0 -0.21249642132E+02 -0.16504993209E+02 -0.18179773269E+03  0.20495854243E+03  0.90739332225E+02 0.  0.
         23    2    1    2    0    0  0.21249642132E+02  0.16504993209E+02 -0.16586577389E+03  0.19086641989E+03  0.90523881931E+02 0.  0.
          5    1    4    4  502    0 -0.28053638044E+02  0.70003875702E+01 -0.11712097472E+03  0.12072872381E+03  0.47000000000E+01 0. -1.
         -5    1    4    4    0  502  0.49303280176E+02  0.95046056391E+01 -0.48744799171E+02  0.70137696074E+02  0.47000000000E+01 0.  1.
          5    1    3    3  503    0 -0.40469802301E+02 -0.43540886774E+02 -0.13312617141E+03  0.14587076894E+03  0.47000000000E+01 0. -1.
         -5    1    3    3    0  503  0.19220160169E+02  0.27035893565E+02 -0.48671561288E+02  0.59087773490E+02  0.47000000000E+01 0.  1.
<mgrwt>
<rscale>  0 0.94592860E+02</rscale>
<asrwt>0</asrwt>
<pdfrwt beam="1">  1        1 0.57191419E-01 0.94644538E+02</pdfrwt>
<pdfrwt beam="2">  1       -1 0.37047275E-02 0.94644538E+02</pdfrwt>
<totfact> 0.16681498E+04</totfact>
</mgrwt>
</event>
<event>
 8    1  0.9456677E-004  0.9766079E+02  0.7546771E-02  0.1287791E+00
          2   -1    0    0  501    0  0.00000000000E+00  0.00000000000E+00  0.58558686711E+03  0.58558686711E+03  0.00000000000E+00 0. -1.
         -2   -1    0    0    0  501 -0.00000000000E+00 -0.00000000000E+00 -0.63791428684E+02  0.63791428684E+02  0.00000000000E+00 0.  1.
         23    2    1    2    0    0 -0.29821378395E+02 -0.11742665131E+00 -0.22941490919E+02  0.95956257296E+02  0.88272095876E+02 0.  0.
         23    2    1    2    0    0  0.29821378395E+02  0.11742665131E+00  0.54473692935E+03  0.55342203850E+03  0.92996247800E+02 0.  0.
          5    1    3    3  502    0  0.81215990878E+01  0.23108417927E+02  0.21477957086E+02  0.32914312865E+02  0.47000000000E+01 0. -1.
         -5    1    3    3    0  502 -0.37942977483E+02 -0.23225844578E+02 -0.44419448004E+02  0.63041944431E+02  0.47000000000E+01 0.  1.
          5    1    4    4  503    0  0.15009938255E+02 -0.43626982878E+02  0.35847197578E+03  0.36145934668E+03  0.47000000000E+01 0.  1.
         -5    1    4    4    0  503  0.14811440140E+02  0.43744409530E+02  0.18626495356E+03  0.19196269182E+03  0.47000000000E+01 0. -1.
<mgrwt>
<rscale>  0 0.96519092E+02</rscale>
<asrwt>0</asrwt>
<pdfrwt beam="1">  1        2 0.90090284E-01 0.97660793E+02</pdfrwt>
<pdfrwt beam="2">  1       -2 0.98140663E-02 0.97660793E+02</pdfrwt>
<totfact> 0.34064860E+03</totfact>
</mgrwt>
</event>
<event>
 8    1  0.9456677E-004  0.2068159E+03  0.7546771E-02  0.1144498E+00
         -1   -1    0    0    0  501 -0.00000000000E+00  0.00000000000E+00  0.55133076783E+02  0.55133076783E+02  0.00000000000E+00 0.  1.
          1   -1    0    0  501    0  0.00000000000E+00 -0.00000000000E+00 -0.12588062972E+04  0.12588062972E+04  0.00000000000E+00 0. -1.
         23    2    1    2    0    0  0.93775260806E+01  0.18407620558E+03 -0.19021329939E+03  0.27959231542E+03  0.89547619310E+02 0.  0.
         23    2    1    2    0    0 -0.93775260806E+01 -0.18407620558E+03 -0.10134599211E+04  0.10343470586E+04  0.93812784646E+02 0.  0.
          5    1    3    3  502    0  0.24652361185E+02  0.21726105946E+02 -0.63604965206E+01  0.33798054790E+02  0.47000000000E+01 0. -1.
         -5    1    3    3    0  502 -0.15274835105E+02  0.16235009963E+03 -0.18385280287E+03  0.24579426063E+03  0.47000000000E+01 0.  1.
          5    1    4    4  503    0  0.21792979618E+02 -0.63022210569E+02 -0.55909304334E+03  0.56307535384E+03  0.47000000000E+01 0. -1.
         -5    1    4    4    0  503 -0.31170505699E+02 -0.12105399501E+03 -0.45436687773E+03  0.47127170476E+03  0.47000000000E+01 0.  1.
<mgrwt>
<rscale>  0 0.20633942E+03</rscale>
<asrwt>0</asrwt>
<pdfrwt beam="1">  1        1 0.19366249E+00 0.20681592E+03</pdfrwt>
<pdfrwt beam="2">  1       -1 0.84820124E-02 0.20681592E+03</pdfrwt>
<totfact> 0.82494672E+02</totfact>
</mgrwt>
</event>
<event>
 8    1  0.9456677E-004  0.9571511E+02  0.7546771E-02  0.1290439E+00
         -1   -1    0    0    0  501 -0.00000000000E+00  0.00000000000E+00  0.91447573118E+02  0.91447573118E+02  0.00000000000E+00 0.  1.
          1   -1    0    0  501    0  0.00000000000E+00 -0.00000000000E+00 -0.10015258856E+03  0.10015258856E+03  0.00000000000E+00 0. -1.
         23    2    1    2    0    0 -0.15319621877E+02 -0.24899762920E+02 -0.16401133540E+02  0.97110136717E+02  0.91141058057E+02 0.  0.
         23    2    1    2    0    0  0.15319621877E+02  0.24899762920E+02  0.76961180978E+01  0.94490024961E+02  0.89523435900E+02 0.  0.
          5    1    3    3  502    0 -0.32932786762E+02  0.20751337077E+02 -0.25973098116E+02  0.47030609821E+02  0.47000000000E+01 0. -1.
         -5    1    4    4    0  503  0.37908646600E+02  0.21279393725E+02  0.36816221401E+02  0.57161195252E+02  0.47000000000E+01 0.  1.
          5    1    4    4  503    0 -0.22589024723E+02  0.36203691953E+01 -0.29120103303E+02  0.37328829709E+02  0.47000000000E+01 0. -1.
         -5    1    3    3    0  502  0.17613164885E+02 -0.45651099998E+02  0.95719645758E+01  0.50079526896E+02  0.47000000000E+01 0.  1.
<mgrwt>
<rscale>  0 0.95328008E+02</rscale>
<asrwt>0</asrwt>
<pdfrwt beam="1">  1        1 0.15408091E-01 0.95715106E+02</pdfrwt>
<pdfrwt beam="2">  1       -1 0.14068857E-01 0.95715106E+02</pdfrwt>
<totfact> 0.11609550E+04</totfact>
</mgrwt>
</event>
<event>
 8    1  0.9456677E-004  0.9627513E+02  0.7546771E-02  0.1288631E+00
         -4   -1    0    0    0  501 -0.00000000000E+00  0.00000000000E+00  0.10639580843E+03  0.10639580843E+03  0.00000000000E+00 0.  1.
          4   -1    0    0  501    0  0.00000000000E+00 -0.00000000000E+00 -0.87867182167E+02  0.87867182167E+02  0.00000000000E+00 0. -1.
         23    2    1    2    0    0  0.26861048037E+02 -0.23473191344E+01  0.20781804561E+02  0.97961493262E+02  0.91856110045E+02 0.  0.
         23    2    1    2    0    0 -0.26861048037E+02  0.23473191344E+01 -0.22531782971E+01  0.96301497336E+02  0.92422268788E+02 0.  0.
          5    1    4    4  502    0  0.86149221941E+01 -0.32758162788E+02  0.21949365411E+02  0.40634698912E+02  0.47000000000E+01 0. -1.
         -5    1    4    4    0  502 -0.35475970231E+02  0.35105481923E+02 -0.24202543709E+02  0.55666798424E+02  0.47000000000E+01 0.  1.
          5    1    3    3  503    0 -0.10341451241E+01 -0.30773640879E+02 -0.22901862391E+02  0.38660984598E+02  0.47000000000E+01 0. -1.
         -5    1    3    3    0  503  0.27895193161E+02  0.28426321745E+02  0.43683666952E+02  0.59300508664E+02  0.47000000000E+01 0.  1.
<mgrwt>
<rscale>  0 0.96139004E+02</rscale>
<asrwt>0</asrwt>
<pdfrwt beam="1">  1        4 0.13518028E-01 0.96275135E+02</pdfrwt>
<pdfrwt beam="2">  1       -4 0.16368586E-01 0.96275135E+02</pdfrwt>
<totfact> 0.22049226E+03</totfact>
</mgrwt>
</event>
<event>
 8    1  0.9456677E-004  0.9601715E+02  0.7546771E-02  0.1289458E+00
         -2   -1    0    0    0  501 -0.00000000000E+00  0.00000000000E+00  0.15715563522E+02  0.15715563522E+02  0.00000000000E+00 0.  1.
          2   -1    0    0  501    0  0.00000000000E+00 -0.00000000000E+00 -0.58777428899E+03  0.58777428899E+03  0.00000000000E+00 0. -1.
         23    2    1    2    0    0  0.25926792456E+02  0.87366831494E+01 -0.32093950192E+03  0.33499471262E+03  0.92036761071E+02 0.  0.
         23    2    1    2    0    0 -0.25926792456E+02 -0.87366831494E+01 -0.25111922355E+03  0.26849513989E+03  0.90995865365E+02 0.  0.
          5    1    3    3  502    0  0.45199665048E+02  0.25777229690E+02 -0.10300923711E+03  0.11550094468E+03  0.47000000000E+01 0. -1.
         -5    1    4    4    0  503 -0.37502640118E+01 -0.32239518566E+02 -0.28365083675E+02  0.43360339129E+02  0.47000000000E+01 0.  1.
          5    1    4    4  503    0 -0.22176528444E+02  0.23502835416E+02 -0.22275413987E+03  0.22513480077E+03  0.47000000000E+01 0. -1.
         -5    1    3    3    0  502 -0.19272872593E+02 -0.17040546541E+02 -0.21793026481E+03  0.21949376794E+03  0.47000000000E+01 0.  1.
<mgrwt>
<rscale>  0 0.95766855E+02</rscale>
<asrwt>0</asrwt>
<pdfrwt beam="1">  1        2 0.90426797E-01 0.96017153E+02</pdfrwt>
<pdfrwt beam="2">  1       -2 0.24177795E-02 0.96017153E+02</pdfrwt>
<totfact> 0.27363478E+04</totfact>
</mgrwt>
</event>
<event>
 8    1  0.9456677E-004  0.9579946E+02  0.7546771E-02  0.1290451E+00
          2   -1    0    0  501    0  0.00000000000E+00  0.00000000000E+00  0.37526911811E+03  0.37526911811E+03  0.00000000000E+00 0. -1.
         -2   -1    0    0    0  501 -0.00000000000E+00 -0.00000000000E+00 -0.31958232992E+02  0.31958232992E+02  0.00000000000E+00 0.  1.
         23    2    1    2    0    0  0.84049754652E+01 -0.22919510080E+02  0.68607018517E+02  0.11629823456E+03  0.90677498959E+02 0.  0.
         23    2    1    2    0    0 -0.84049754652E+01  0.22919510080E+02  0.27470386660E+03  0.29092911654E+03  0.92636866149E+02 0.  0.
          5    1    4    4  502    0 -0.45698826366E+02 -0.72550531648E+01  0.15681316237E+03  0.16356489972E+03  0.47000000000E+01 0. -1.
         -5    1    4    4    0  502  0.37293850901E+02  0.30174563245E+02  0.11789070422E+03  0.12736421681E+03  0.47000000000E+01 0.  1.
          5    1    3    3  503    0 -0.61342252543E+01 -0.47255136926E+02  0.72925583247E+02  0.87240514540E+02  0.47000000000E+01 0. -1.
         -5    1    3    3    0  503  0.14539200719E+02  0.24335626846E+02 -0.43185647294E+01  0.29057720022E+02  0.47000000000E+01 0.  1.
<mgrwt>
<rscale>  0 0.95322572E+02</rscale>
<asrwt>0</asrwt>
<pdfrwt beam="1">  1        2 0.57733707E-01 0.95799460E+02</pdfrwt>
<pdfrwt beam="2">  1       -2 0.49166515E-02 0.95799460E+02</pdfrwt>
<totfact> 0.15682434E+04</totfact>
</mgrwt>
</event>
<event>
 8    1  0.9456677E-004  0.1080599E+03  0.7546771E-02  0.1267925E+00
          3   -1    0    0  501    0  0.00000000000E+00  0.00000000000E+00  0.13697445352E+03  0.13697445352E+03  0.00000000000E+00 0. -1.
         -3   -1    0    0    0  501 -0.00000000000E+00 -0.00000000000E+00 -0.16205468397E+03  0.16205468397E+03  0.00000000000E+00 0.  1.
         23    2    1    2    0    0  0.10630772407E+02  0.58359271267E+02 -0.11950728153E+03  0.16111774896E+03  0.90322316321E+02 0.  0.
         23    2    1    2    0    0 -0.10630772407E+02 -0.58359271267E+02  0.94427051081E+02  0.13791138853E+03  0.81143485547E+02 0.  0.
          5    1    3    3  502    0  0.29568486663E+02  0.14150816900E+02 -0.99284054682E+00  0.33130299649E+02  0.47000000000E+01 0. -1.
         -5    1    3    3    0  502 -0.18937714256E+02  0.44208454367E+02 -0.11851444099E+03  0.12798744931E+03  0.47000000000E+01 0.  1.
          5    1    4    4  503    0  0.30363614289E+02 -0.70234987156E+01  0.15529815850E+02  0.35136075296E+02  0.47000000000E+01 0.  1.
         -5    1    4    4    0  503 -0.40994386696E+02 -0.51335772552E+02  0.78897235231E+02  0.10277531324E+03  0.47000000000E+01 0. -1.
<mgrwt>
<rscale>  0 0.10612192E+03</rscale>
<asrwt>0</asrwt>
<pdfrwt beam="1">  1        3 0.21072993E-01 0.10805988E+03</pdfrwt>
<pdfrwt beam="2">  1       -3 0.24931490E-01 0.10805988E+03</pdfrwt>
<totfact> 0.68887991E+02</totfact>
</mgrwt>
</event>
<event>
 8    1  0.9456677E-004  0.1361915E+03  0.7546771E-02  0.1224136E+00
         -1   -1    0    0    0  501 -0.00000000000E+00  0.00000000000E+00  0.70748562390E+03  0.70748562390E+03  0.00000000000E+00 0.  1.
          1   -1    0    0  501    0  0.00000000000E+00 -0.00000000000E+00 -0.23473427365E+02  0.23473427365E+02  0.00000000000E+00 0. -1.
         23    2    1    2    0    0 -0.22512051229E+02  0.77061124862E+02  0.38229016046E+03  0.40582495756E+03  0.11001327182E+03 0.  0.
         23    2    1    2    0    0  0.22512051229E+02 -0.77061124862E+02  0.30172203607E+03  0.32513409370E+03  0.90723659664E+02 0.  0.
          5    1    3    3  502    0  0.34595279486E+02  0.68734653994E+02  0.19127862587E+03  0.20623018387E+03  0.47000000000E+01 0. -1.
         -5    1    4    4    0  503 -0.26466613617E+02 -0.15400508131E+02  0.15967097458E+03  0.16264860101E+03  0.47000000000E+01 0.  1.
          5    1    4    4  503    0  0.48978664846E+02 -0.61660616731E+02  0.14205106149E+03  0.16248549270E+03  0.47000000000E+01 0. -1.
         -5    1    3    3    0  502 -0.57107330714E+02  0.83264708671E+01  0.19101153459E+03  0.19959477369E+03  0.47000000000E+01 0.  1.
<mgrwt>
<rscale>  0 0.13226303E+03</rscale>
<asrwt>0</asrwt>
<pdfrwt beam="1">  1        1 0.36112971E-02 0.13619152E+03</pdfrwt>
<pdfrwt beam="2">  1       -1 0.10884393E+00 0.13619152E+03</pdfrwt>
<totfact> 0.21161094E+03</totfact>
</mgrwt>
</event>
<event>
 8    1  0.9456677E-004  0.9343453E+02  0.7546771E-02  0.1294874E+00
          2   -1    0    0  501    0  0.00000000000E+00  0.00000000000E+00  0.41338892549E+03  0.41338892549E+03  0.00000000000E+00 0. -1.
         -2   -1    0    0    0  501 -0.00000000000E+00 -0.00000000000E+00 -0.56278826354E+02  0.56278826354E+02  0.00000000000E+00 0.  1.
         23    2    1    2    0    0 -0.27436919213E+02  0.35629164990E+01 -0.72808790324E+01  0.93488543260E+02  0.89003469660E+02 0.  0.
         23    2    1    2    0    0  0.27436919213E+02 -0.35629164990E+01  0.36439097817E+03  0.37617920859E+03  0.89244232818E+02 0.  0.
          5    1    4    4  502    0  0.47750227668E+02  0.16553973762E+02  0.31380953281E+03  0.31788776506E+03  0.47000000000E+01 0. -1.
         -5    1    3    3    0  503 -0.12064813550E+02 -0.21232685569E+02 -0.41434999066E+02  0.48325312312E+02  0.47000000000E+01 0.  1.
          5    1    3    3  503    0 -0.15372105663E+02  0.24795602068E+02  0.34154120033E+02  0.45163230948E+02  0.47000000000E+01 0. -1.
         -5    1    4    4    0  502 -0.20313308455E+02 -0.20116890261E+02  0.50581445359E+02  0.58291443530E+02  0.47000000000E+01 0.  1.
<mgrwt>
<rscale>  0 0.93376996E+02</rscale>
<asrwt>0</asrwt>
<pdfrwt beam="1">  1        2 0.63598294E-01 0.93434533E+02</pdfrwt>
<pdfrwt beam="2">  1       -2 0.86582812E-02 0.93434533E+02</pdfrwt>
<totfact> 0.60127613E+03</totfact>
</mgrwt>
</event>
<event>
 8    1  0.9456677E-004  0.1279414E+03  0.7546771E-02  0.1230984E+00
         -1   -1    0    0    0  501 -0.00000000000E+00  0.00000000000E+00  0.16347407965E+03  0.16347407965E+03  0.00000000000E+00 0.  1.
          1   -1    0    0  501    0  0.00000000000E+00 -0.00000000000E+00 -0.10940694567E+03  0.10940694567E+03  0.00000000000E+00 0. -1.
         23    2    1    2    0    0 -0.75878488812E+02 -0.39572702670E+02 -0.14474856136E+02  0.12875761230E+03  0.95107609605E+02 0.  0.
         23    2    1    2    0    0  0.75878488812E+02  0.39572702670E+02  0.68541990119E+02  0.14412341302E+03  0.93541487634E+02 0.  0.
          5    1    3    3  502    0 -0.70830360672E+02 -0.65437180681E+02 -0.25423207688E+02  0.99836837378E+02  0.47000000000E+01 0. -1.
         -5    1    4    4    0  503  0.66933222982E+02  0.68462763327E+02  0.56215244725E+02  0.11112807944E+03  0.47000000000E+01 0.  1.
          5    1    4    4  503    0  0.89452658300E+01 -0.28890060657E+02  0.12326745394E+02  0.32995333572E+02  0.47000000000E+01 0. -1.
         -5    1    3    3    0  502 -0.50481281396E+01  0.25864478011E+02  0.10948351552E+02  0.28920774924E+02  0.47000000000E+01 0.  1.
<mgrwt>
<rscale>  0 0.12765044E+03</rscale>
<asrwt>0</asrwt>
<pdfrwt beam="1">  1        1 0.16831838E-01 0.12794140E+03</pdfrwt>
<pdfrwt beam="2">  1       -1 0.25149859E-01 0.12794140E+03</pdfrwt>
<totfact> 0.42116931E+03</totfact>
</mgrwt>
</event>
<event>
 8    1  0.9456677E-004  0.1201966E+03  0.7546771E-02  0.1244267E+00
          2   -1    0    0  501    0  0.00000000000E+00  0.00000000000E+00  0.64160099429E+03  0.64160099429E+03  0.00000000000E+00 0. -1.
         -2   -1    0    0    0  501 -0.00000000000E+00 -0.00000000000E+00 -0.30185756322E+02  0.30185756322E+02  0.00000000000E+00 0.  1.
         23    2    1    2    0    0  0.68167477115E+02 -0.26687578004E+02  0.47883076347E+03  0.49282903443E+03  0.90788354841E+02 0.  0.
         23    2    1    2    0    0 -0.68167477115E+02  0.26687578004E+02  0.13258447450E+03  0.17895771618E+03  0.95331996453E+02 0.  0.
          5    1    4    4  502    0 -0.96758111135E+01  0.52122914040E+02  0.80371732715E+02  0.96395668514E+02  0.47000000000E+01 0. -1.
         -5    1    3    3    0  503  0.16515135581E+02 -0.53726202802E+02  0.19289424767E+03  0.20097147896E+03  0.47000000000E+01 0.  1.
          5    1    3    3  503    0  0.51652341534E+02  0.27038624798E+02  0.28593651580E+03  0.29185755547E+03  0.47000000000E+01 0. -1.
         -5    1    4    4    0  502 -0.58491666001E+02 -0.25435336036E+02  0.52212741783E+02  0.82562047669E+02  0.47000000000E+01 0.  1.
<mgrwt>
<rscale>  0 0.11929375E+03</rscale>
<asrwt>0</asrwt>
<pdfrwt beam="1">  1        2 0.98707835E-01 0.12019659E+03</pdfrwt>
<pdfrwt beam="2">  1       -2 0.46439630E-02 0.12019659E+03</pdfrwt>
<totfact> 0.96915345E+03</totfact>
</mgrwt>
</event>
<event>
 8    1  0.9456677E-004  0.1021370E+03  0.7546771E-02  0.1277757E+00
         -1   -1    0    0    0  501 -0.00000000000E+00  0.00000000000E+00  0.17103690273E+02  0.17103690273E+02  0.00000000000E+00 0.  1.
          1   -1    0    0  501    0  0.00000000000E+00 -0.00000000000E+00 -0.64230883507E+03  0.64230883507E+03  0.00000000000E+00 0. -1.
         23    2    1    2    0    0 -0.27008581847E+02 -0.36564593816E+02 -0.40288933840E+03  0.41475708896E+03  0.87391022613E+02 0.  0.
         23    2    1    2    0    0  0.27008581847E+02  0.36564593816E+02 -0.22231580640E+03  0.24465543638E+03  0.91463280954E+02 0.  0.
          5    1    4    4  502    0  0.27631141774E+02 -0.12702823943E+02 -0.16950787315E+03  0.17227841069E+03  0.47000000000E+01 0. -1.
         -5    1    4    4    0  502 -0.62255992758E+00  0.49267417759E+02 -0.52807933250E+02  0.72377025689E+02  0.47000000000E+01 0.  1.
          5    1    3    3  503    0 -0.43083557497E+02  0.11385866108E+02 -0.23948104363E+03  0.24363721212E+03  0.47000000000E+01 0. -1.
         -5    1    3    3    0  503  0.16074975651E+02 -0.47950459924E+02 -0.16340829476E+03  0.17111987683E+03  0.47000000000E+01 0.  1.
<mgrwt>
<rscale>  0 0.10121713E+03</rscale>
<asrwt>0</asrwt>
<pdfrwt beam="1">  1        1 0.98816753E-01 0.10213699E+03</pdfrwt>
<pdfrwt beam="2">  1       -1 0.26313367E-02 0.10213699E+03</pdfrwt>
<totfact> 0.13600709E+04</totfact>
</mgrwt>
</event>
<event>
 8    1  0.9456677E-004  0.9491413E+02  0.7546771E-02  0.1299225E+00
         -1   -1    0    0    0  501 -0.00000000000E+00  0.00000000000E+00  0.54666449900E+03  0.54666449900E+03  0.00000000000E+00 0.  1.
          1   -1    0    0  501    0  0.00000000000E+00 -0.00000000000E+00 -0.16727286455E+02  0.16727286455E+02  0.00000000000E+00 0. -1.
         23    2    1    2    0    0 -0.24622591721E+02 -0.23914383936E+02  0.35511449060E+03  0.36446547726E+03  0.74502435513E+02 0.  0.
         23    2    1    2    0    0  0.24622591721E+02  0.23914383936E+02  0.17482272194E+03  0.19892630819E+03  0.88490237889E+02 0.  0.
          5    1    3    3  502    0 -0.50443944024E+02 -0.17626972073E+02  0.26596624237E+03  0.27132164254E+03  0.47000000000E+01 0. -1.
         -5    1    3    3    0  502  0.25821352303E+02 -0.62874118636E+01  0.89148248235E+02  0.93143834719E+02  0.47000000000E+01 0.  1.
          5    1    4    4  503    0  0.10455156703E+02  0.56123468895E+02  0.12742588159E+03  0.13970898097E+03  0.47000000000E+01 0. -1.
         -5    1    4    4    0  503  0.14167435018E+02 -0.32209084959E+02  0.47396840345E+02  0.59217327224E+02  0.47000000000E+01 0.  1.
<mgrwt>
<rscale>  0 0.91514564E+02</rscale>
<asrwt>0</asrwt>
<pdfrwt beam="1">  1        1 0.25734291E-02 0.94914130E+02</pdfrwt>
<pdfrwt beam="2">  1       -1 0.84102217E-01 0.94914130E+02</pdfrwt>
<totfact> 0.57454918E+03</totfact>
</mgrwt>
</event>
<event>
 8    1  0.9456677E-004  0.1008842E+03  0.7546771E-02  0.1279432E+00
         -1   -1    0    0    0  501 -0.00000000000E+00  0.00000000000E+00  0.26958279336E+02  0.26958279336E+02  0.00000000000E+00 0.  1.
          1   -1    0    0  501    0  0.00000000000E+00 -0.00000000000E+00 -0.37228460182E+03  0.37228460182E+03  0.00000000000E+00 0. -1.
         23    2    1    2    0    0  0.28520570092E+02  0.21947689155E+02 -0.16063339125E+03  0.18968580296E+03  0.94246981289E+02 0.  0.
         23    2    1    2    0    0 -0.28520570092E+02 -0.21947689155E+02 -0.18469293124E+03  0.20955707820E+03  0.92236468911E+02 0.  0.
          5    1    3    3  502    0  0.43266277755E+02  0.74675546597E+01 -0.16251595195E+03  0.16840801585E+03  0.47000000000E+01 0. -1.
         -5    1    3    3    0  502 -0.14745707663E+02  0.14480134496E+02  0.18825607023E+01  0.21277787110E+02  0.47000000000E+01 0.  1.
          5    1    4    4  503    0 -0.32492968153E+02 -0.55039125447E+02 -0.13623720127E+03  0.15055817254E+03  0.47000000000E+01 0. -1.
         -5    1    4    4    0  503  0.39723980610E+01  0.33091436292E+02 -0.48455729971E+02  0.58998905661E+02  0.47000000000E+01 0.  1.
<mgrwt>
<rscale>  0 0.10041196E+03</rscale>
<asrwt>0</asrwt>
<pdfrwt beam="1">  1        1 0.57274545E-01 0.10088418E+03</pdfrwt>
<pdfrwt beam="2">  1       -1 0.41474282E-02 0.10088418E+03</pdfrwt>
<totfact> 0.14216001E+04</totfact>
</mgrwt>
</event>
<event>
 8    1  0.9456677E-004  0.9208900E+02  0.7546771E-02  0.1299106E+00
          2   -1    0    0  501    0  0.00000000000E+00  0.00000000000E+00  0.34050330944E+03  0.34050330944E+03  0.00000000000E+00 0. -1.
         -2   -1    0    0    0  501 -0.00000000000E+00 -0.00000000000E+00 -0.50182031671E+02  0.50182031671E+02  0.00000000000E+00 0.  1.
         23    2    1    2    0    0  0.12442909183E+02 -0.97530771563E+01  0.58063029347E+01  0.92271861766E+02  0.90721743904E+02 0.  0.
         23    2    1    2    0    0 -0.12442909183E+02  0.97530771563E+01  0.28451497483E+03  0.29841347935E+03  0.88610864161E+02 0.  0.
          5    1    4    4  502    0  0.24425532097E+02  0.22341771552E+02  0.22269492645E+03  0.22519076722E+03  0.47000000000E+01 0. -1.
         -5    1    3    3    0  503  0.21222563506E+02 -0.47723647474E+02 -0.89933570183E+00  0.52448475046E+02  0.47000000000E+01 0.  1.
          5    1    3    3  503    0 -0.87796543233E+01  0.37970570318E+02  0.67056386365E+01  0.39823386720E+02  0.47000000000E+01 0. -1.
         -5    1    4    4    0  502 -0.36868441280E+02 -0.12588694396E+02  0.61820048388E+02  0.73222712130E+02  0.47000000000E+01 0.  1.
<mgrwt>
<rscale>  0 0.91564836E+02</rscale>
<asrwt>0</asrwt>
<pdfrwt beam="1">  1        2 0.52385123E-01 0.92088997E+02</pdfrwt>
<pdfrwt beam="2">  1       -2 0.77203128E-02 0.92088997E+02</pdfrwt>
<totfact> 0.87778963E+03</totfact>
</mgrwt>
</event>
<event>
 8    1  0.9456677E-004  0.9599181E+02  0.7546771E-02  0.1291065E+00
         -1   -1    0    0    0  501 -0.00000000000E+00  0.00000000000E+00  0.24549800258E+02  0.24549800258E+02  0.00000000000E+00 0.  1.
          1   -1    0    0  501    0  0.00000000000E+00 -0.00000000000E+00 -0.36615923579E+03  0.36615923579E+03  0.00000000000E+00 0. -1.
         23    2    1    2    0    0  0.62121730032E+01 -0.17311237498E+02 -0.19741994832E+03  0.21952007486E+03  0.94213360186E+02 0.  0.
         23    2    1    2    0    0 -0.62121730032E+01  0.17311237498E+02 -0.14418948721E+03  0.17118896118E+03  0.90425561488E+02 0.  0.
          5    1    4    4  502    0  0.79061850409E+01 -0.34083617731E+02 -0.81198184712E+02  0.88540589336E+02  0.47000000000E+01 0. -1.
         -5    1    4    4    0  502 -0.14118358044E+02  0.51394855228E+02 -0.62991302500E+02  0.82648371844E+02  0.47000000000E+01 0.  1.
          5    1    3    3  503    0  0.55590632089E+01 -0.48252901763E+02 -0.54252419582E+02  0.72970273008E+02  0.47000000000E+01 0. -1.
         -5    1    3    3    0  503  0.65310979426E+00  0.30941664266E+02 -0.14316752874E+03  0.14654980186E+03  0.47000000000E+01 0.  1.
<mgrwt>
<rscale>  0 0.95049327E+02</rscale>
<asrwt>0</asrwt>
<pdfrwt beam="1">  1        1 0.56332187E-01 0.95991808E+02</pdfrwt>
<pdfrwt beam="2">  1       -1 0.37768925E-02 0.95991808E+02</pdfrwt>
<totfact> 0.16550237E+04</totfact>
</mgrwt>
</event>
<event>
 8    1  0.9456677E-004  0.1038662E+03  0.7546771E-02  0.1274011E+00
          1   -1    0    0  501    0  0.00000000000E+00  0.00000000000E+00  0.70234349331E+03  0.70234349331E+03  0.00000000000E+00 0. -1.
         -1   -1    0    0    0  501 -0.00000000000E+00 -0.00000000000E+00 -0.18650412091E+02  0.18650412091E+02  0.00000000000E+00 0.  1.
         23    2    1    2    0    0  0.30908456290E+02 -0.32953612292E+02  0.49947262673E+03  0.50951016818E+03  0.89924598357E+02 0.  0.
         23    2    1    2    0    0 -0.30908456290E+02  0.32953612292E+02  0.18422045449E+03  0.21148373722E+03  0.93524980751E+02 0.  0.
          5    1    3    3  502    0 -0.28690679650E+02 -0.91639809776E+01  0.25089277214E+03  0.25273782217E+03  0.47000000000E+01 0. -1.
         -5    1    4    4    0  503  0.22874276943E+02  0.41766997273E+02  0.69394610397E+02  0.84293632969E+02  0.47000000000E+01 0.  1.
          5    1    4    4  503    0 -0.53782733233E+02 -0.88133849814E+01  0.11482584409E+03  0.12719010425E+03  0.47000000000E+01 0. -1.
         -5    1    3    3    0  502  0.59599135940E+02 -0.23789631314E+02  0.24857985459E+03  0.25677234601E+03  0.47000000000E+01 0.  1.
<mgrwt>
<rscale>  0 0.10304922E+03</rscale>
<asrwt>0</asrwt>
<pdfrwt beam="1">  1        1 0.10805282E+00 0.10386624E+03</pdfrwt>
<pdfrwt beam="2">  1       -1 0.28692947E-02 0.10386624E+03</pdfrwt>
<totfact> 0.10612264E+04</totfact>
</mgrwt>
</event>
<event>
 8    1  0.9456677E-004  0.1161073E+03  0.7546771E-02  0.1250525E+00
          2   -1    0    0  501    0  0.00000000000E+00  0.00000000000E+00  0.10145548921E+03  0.10145548921E+03  0.00000000000E+00 0. -1.
         -2   -1    0    0    0  501 -0.00000000000E+00 -0.00000000000E+00 -0.14542727657E+03  0.14542727657E+03  0.00000000000E+00 0.  1.
         23    2    1    2    0    0  0.69596185597E+02 -0.15143793012E+02 -0.61556480268E+02  0.13141577623E+03  0.91694833354E+02 0.  0.
         23    2    1    2    0    0 -0.69596185597E+02  0.15143793012E+02  0.17584692902E+02  0.11546698955E+03  0.89165243984E+02 0.  0.
          5    1    4    4  502    0 -0.31860062258E+02  0.18702211752E+02  0.52063905645E+02  0.64012315710E+02  0.47000000000E+01 0. -1.
         -5    1    3    3    0  503  0.52967194249E+02 -0.52636762356E+02 -0.39272930402E+02  0.84502103407E+02  0.47000000000E+01 0.  1.
          5    1    3    3  503    0  0.16628991348E+02  0.37492969344E+02 -0.22283549866E+02  0.46913672827E+02  0.47000000000E+01 0. -1.
         -5    1    4    4    0  502 -0.37736123338E+02 -0.35584187394E+01 -0.34479212743E+02  0.51454673840E+02  0.47000000000E+01 0.  1.
<mgrwt>
<rscale>  0 0.11560729E+03</rscale>
<asrwt>0</asrwt>
<pdfrwt beam="1">  1        2 0.15608537E-01 0.11610730E+03</pdfrwt>
<pdfrwt beam="2">  1       -2 0.22373427E-01 0.11610730E+03</pdfrwt>
<totfact> 0.60305977E+03</totfact>
</mgrwt>
</event>
<event>
 8    1  0.9456677E-004  0.9816940E+02  0.7546771E-02  0.1286369E+00
          4   -1    0    0  501    0  0.00000000000E+00  0.00000000000E+00  0.77533074117E+02  0.77533074117E+02  0.00000000000E+00 0. -1.
         -4   -1    0    0    0  501 -0.00000000000E+00 -0.00000000000E+00 -0.16400554498E+03  0.16400554498E+03  0.00000000000E+00 0.  1.
         23    2    1    2    0    0  0.29953501391E+02 -0.15146426853E+02  0.19127277596E+02  0.10001541603E+03  0.92252936018E+02 0.  0.
         23    2    1    2    0    0 -0.29953501391E+02  0.15146426853E+02 -0.10559974846E+03  0.14152320307E+03  0.88039102897E+02 0.  0.
          5    1    4    4  502    0 -0.45041123474E+02  0.42758838693E+02 -0.66425616582E+02  0.91057529225E+02  0.47000000000E+01 0. -1.
         -5    1    4    4    0  502  0.15087622083E+02 -0.27612411840E+02 -0.39174131881E+02  0.50465673842E+02  0.47000000000E+01 0.  1.
          5    1    3    3  503    0 -0.18686480002E+02  0.17012305210E+02  0.31055287424E+02  0.40312826003E+02  0.47000000000E+01 0. -1.
         -5    1    3    3    0  503  0.48639981393E+02 -0.32158732063E+02 -0.11928009827E+02  0.59702590030E+02  0.47000000000E+01 0.  1.
<mgrwt>
<rscale>  0 0.97166933E+02</rscale>
<asrwt>0</asrwt>
<pdfrwt beam="1">  1        4 0.11928165E-01 0.98169398E+02</pdfrwt>
<pdfrwt beam="2">  1       -4 0.25231622E-01 0.98169398E+02</pdfrwt>
<totfact> 0.12643689E+03</totfact>
</mgrwt>
</event>
<event>
 8    1  0.9456677E-004  0.1631073E+03  0.7546771E-02  0.1185356E+00
         -1   -1    0    0    0  501 -0.00000000000E+00  0.00000000000E+00  0.40479264839E+02  0.40479264839E+02  0.00000000000E+00 0.  1.
          1   -1    0    0  501    0  0.00000000000E+00 -0.00000000000E+00 -0.81255963776E+03  0.81255963776E+03  0.00000000000E+00 0. -1.
         23    2    1    2    0    0  0.11883133795E+03  0.64035127092E+02 -0.19804460444E+03  0.25628010102E+03  0.90754837071E+02 0.  0.
         23    2    1    2    0    0 -0.11883133795E+03 -0.64035127092E+02 -0.57403576848E+03  0.59675880158E+03  0.91556645789E+02 0.  0.
          5    1    4    4  502    0 -0.10478441139E+03 -0.28865962015E+02 -0.28228061397E+03  0.30251851457E+03  0.47000000000E+01 0. -1.
         -5    1    4    4    0  502 -0.14046926560E+02 -0.35169165077E+02 -0.29175515451E+03  0.29424028701E+03  0.47000000000E+01 0.  1.
          5    1    3    3  503    0  0.25288747495E+02 -0.18833797349E+02 -0.16682879406E+02  0.35981121963E+02  0.47000000000E+01 0. -1.
         -5    1    3    3    0  503  0.93542590450E+02  0.82868924442E+02 -0.18136172504E+03  0.22029897906E+03  0.47000000000E+01 0.  1.
<mgrwt>
<rscale>  0 0.16299504E+03</rscale>
<asrwt>0</asrwt>
<pdfrwt beam="1">  1        1 0.12500916E+00 0.16310734E+03</pdfrwt>
<pdfrwt beam="2">  1       -1 0.62275797E-02 0.16310734E+03</pdfrwt>
<totfact> 0.28035691E+03</totfact>
</mgrwt>
</event>
<event>
 8    1  0.9456677E-004  0.9432973E+02  0.7546771E-02  0.1295337E+00
          1   -1    0    0  501    0  0.00000000000E+00  0.00000000000E+00  0.63346891887E+03  0.63346891887E+03  0.00000000000E+00 0. -1.
         -1   -1    0    0    0  501 -0.00000000000E+00 -0.00000000000E+00 -0.15660191528E+02  0.15660191528E+02  0.00000000000E+00 0.  1.
         23    2    1    2    0    0 -0.19317743659E+02  0.11295582967E+02  0.43920367675E+03  0.44921928754E+03  0.91636964224E+02 0.  0.
         23    2    1    2    0    0  0.19317743659E+02 -0.11295582967E+02  0.17860505060E+03  0.19990982286E+03  0.86967854774E+02 0.  0.
          5    1    3    3  502    0  0.16431808069E+02 -0.33030284749E+02  0.17249531270E+03  0.17645885337E+03  0.47000000000E+01 0. -1.
         -5    1    4    4    0  503  0.38886272553E+02  0.26274607199E+02  0.95606825705E+02  0.10660793731E+03  0.47000000000E+01 0.  1.
          5    1    4    4  503    0 -0.19568528895E+02 -0.37570190166E+02  0.82998224893E+02  0.93301885552E+02  0.47000000000E+01 0. -1.
         -5    1    3    3    0  502 -0.35749551728E+02  0.44325867716E+02  0.26670836404E+03  0.27276043417E+03  0.47000000000E+01 0.  1.
<mgrwt>
<rscale>  0 0.93176509E+02</rscale>
<asrwt>0</asrwt>
<pdfrwt beam="1">  1        1 0.97456737E-01 0.94329734E+02</pdfrwt>
<pdfrwt beam="2">  1       -1 0.24092607E-02 0.94329734E+02</pdfrwt>
<totfact> 0.15626861E+04</totfact>
</mgrwt>
</event>
<event>
 8    1  0.9456677E-004  0.1990954E+03  0.7546771E-02  0.1151235E+00
          2   -1    0    0  501    0  0.00000000000E+00  0.00000000000E+00  0.53073888353E+03  0.53073888353E+03  0.00000000000E+00 0. -1.
         -2   -1    0    0    0  501 -0.00000000000E+00 -0.00000000000E+00 -0.82214133291E+02  0.82214133291E+02  0.00000000000E+00 0.  1.
         23    2    1    2    0    0 -0.14793499959E+03  0.85782960300E+02  0.32626696355E+03  0.38221603478E+03  0.10195825299E+03 0.  0.
         23    2    1    2    0    0  0.14793499959E+03 -0.85782960300E+02  0.12225778669E+03  0.23073698205E+03  0.95126800109E+02 0.  0.
          5    1    4    4  502    0  0.73142910904E+02 -0.41217799872E+02  0.11606932075E+03  0.14332818865E+03  0.47000000000E+01 0. -1.
         -5    1    4    4    0  502  0.74792088681E+02 -0.44565160429E+02  0.61884659399E+01  0.87408793402E+02  0.47000000000E+01 0.  1.
          5    1    3    3  503    0 -0.13389357503E+03  0.26781568448E+02  0.24734722628E+03  0.28257296790E+03  0.47000000000E+01 0. -1.
         -5    1    3    3    0  503 -0.14041424559E+02  0.59001391853E+02  0.78919737278E+02  0.99643066875E+02  0.47000000000E+01 0.  1.
<mgrwt>
<rscale>  0 0.19823722E+03</rscale>
<asrwt>0</asrwt>
<pdfrwt beam="1">  1        2 0.81652133E-01 0.19909537E+03</pdfrwt>
<pdfrwt beam="2">  1       -2 0.12648329E-01 0.19909537E+03</pdfrwt>
<totfact> 0.26104358E+03</totfact>
</mgrwt>
</event>
<event>
 8    1  0.9456677E-004  0.1032130E+03  0.7546771E-02  0.1274640E+00
          3   -1    0    0  501    0  0.00000000000E+00  0.00000000000E+00  0.86127354562E+02  0.86127354562E+02  0.00000000000E+00 0. -1.
         -3   -1    0    0    0  501 -0.00000000000E+00 -0.00000000000E+00 -0.13147989143E+03  0.13147989143E+03  0.00000000000E+00 0.  1.
         23    2    1    2    0    0 -0.17841528460E+02 -0.41735070213E+02 -0.52546376000E+02  0.11414386792E+03  0.90595610978E+02 0.  0.
         23    2    1    2    0    0  0.17841528460E+02  0.41735070213E+02  0.71938391359E+01  0.10346337807E+03  0.92697265641E+02 0.  0.
          5    1    4    4  502    0  0.15192829485E+02  0.19254163855E+02  0.49392463587E+02  0.55346638133E+02  0.47000000000E+01 0. -1.
         -5    1    3    3    0  503 -0.18508338858E+02 -0.68390966635E+02 -0.50214779946E+02  0.86968368098E+02  0.47000000000E+01 0.  1.
          5    1    3    3  503    0  0.66681039781E+00  0.26655896422E+02 -0.23315960534E+01  0.27175499818E+02  0.47000000000E+01 0. -1.
         -5    1    4    4    0  502  0.26486989749E+01  0.22480906358E+02 -0.42198624451E+02  0.48116739940E+02  0.47000000000E+01 0.  1.
<mgrwt>
<rscale>  0 0.10273889E+03</rscale>
<asrwt>0</asrwt>
<pdfrwt beam="1">  1        3 0.13250362E-01 0.10321298E+03</pdfrwt>
<pdfrwt beam="2">  1       -3 0.20227675E-01 0.10321298E+03</pdfrwt>
<totfact> 0.21976896E+03</totfact>
</mgrwt>
</event>
<event>
 8    1  0.9456677E-004  0.1398787E+03  0.7546771E-02  0.1213698E+00
         -1   -1    0    0    0  501 -0.00000000000E+00  0.00000000000E+00  0.11041698316E+03  0.11041698316E+03  0.00000000000E+00 0.  1.
          1   -1    0    0  501    0  0.00000000000E+00 -0.00000000000E+00 -0.27169842882E+03  0.27169842882E+03  0.00000000000E+00 0. -1.
         23    2    1    2    0    0  0.26200965312E+02  0.10305435968E+03 -0.19365988203E+03  0.23853819737E+03  0.89942370803E+02 0.  0.
         23    2    1    2    0    0 -0.26200965312E+02 -0.10305435968E+03  0.32378436367E+02  0.14357721461E+03  0.90881030924E+02 0.  0.
          5    1    4    4  502    0 -0.33107406563E+02  0.21547383540E+01  0.14594849405E+02  0.36549184613E+02  0.47000000000E+01 0. -1.
         -5    1    4    4    0  502  0.69064412516E+01 -0.10520909804E+03  0.17783586961E+02  0.10702803000E+03  0.47000000000E+01 0.  1.
          5    1    3    3  503    0  0.50186567169E+01  0.10703529488E+03 -0.18686025691E+03  0.21545437308E+03  0.47000000000E+01 0. -1.
         -5    1    3    3    0  503  0.21182308595E+02 -0.39809351912E+01 -0.67996251135E+01  0.23083824295E+02  0.47000000000E+01 0.  1.
<mgrwt>
<rscale>  0 0.13972645E+03</rscale>
<asrwt>0</asrwt>
<pdfrwt beam="1">  1        1 0.41799758E-01 0.13987871E+03</pdfrwt>
<pdfrwt beam="2">  1       -1 0.16987228E-01 0.13987871E+03</pdfrwt>
<totfact> 0.25449776E+03</totfact>
</mgrwt>
</event>
<event>
 8    1  0.9456677E-004  0.1513418E+03  0.7546771E-02  0.1200943E+00
          1   -1    0    0  501    0  0.00000000000E+00  0.00000000000E+00  0.82668680583E+03  0.82668680583E+03  0.00000000000E+00 0. -1.
         -1   -1    0    0    0  501 -0.00000000000E+00 -0.00000000000E+00 -0.26491280145E+02  0.26491280145E+02  0.00000000000E+00 0.  1.
         23    2    1    2    0    0  0.49813204804E+02  0.96012568863E+02  0.40005981438E+03  0.42537797700E+03  0.95910372149E+02 0.  0.
         23    2    1    2    0    0 -0.49813204804E+02 -0.96012568863E+02  0.40013571131E+03  0.42780010898E+03  0.10585167463E+03 0.  0.
          5    1    3    3  502    0  0.20738373914E+02 -0.13238521144E+02  0.13296913479E+03  0.13530786895E+03  0.47000000000E+01 0. -1.
         -5    1    3    3    0  502  0.29074830890E+02  0.10925109001E+03  0.26709067959E+03  0.29007010805E+03  0.47000000000E+01 0.  1.
          5    1    4    4  503    0 -0.77538546956E+02 -0.42241580927E+02  0.27223063393E+03  0.28623100020E+03  0.47000000000E+01 0. -1.
         -5    1    4    4    0  503  0.27725342152E+02 -0.53770987937E+02  0.12790507738E+03  0.14156910878E+03  0.47000000000E+01 0.  1.
<mgrwt>
<rscale>  0 0.14961798E+03</rscale>
<asrwt>0</asrwt>
<pdfrwt beam="1">  1        1 0.12718257E+00 0.15134182E+03</pdfrwt>
<pdfrwt beam="2">  1       -1 0.40755822E-02 0.15134182E+03</pdfrwt>
<totfact> 0.51128272E+03</totfact>
</mgrwt>
</event>
<event>
 8    1  0.9456677E-004  0.1220558E+03  0.7546771E-02  0.1239842E+00
          1   -1    0    0  501    0  0.00000000000E+00  0.00000000000E+00  0.21214801947E+03  0.21214801947E+03  0.00000000000E+00 0. -1.
         -1   -1    0    0    0  501 -0.00000000000E+00 -0.00000000000E+00 -0.74507442600E+02  0.74507442600E+02  0.00000000000E+00 0.  1.
         23    2    1    2    0    0 -0.30532357704E+01 -0.78716196675E+02  0.33954231287E+02  0.12669063648E+03  0.93231248417E+02 0.  0.
         23    2    1    2    0    0  0.30532357704E+01  0.78716196675E+02  0.10368634558E+03  0.15996482559E+03  0.92910307817E+02 0.  0.
          5    1    3    3  502    0  0.14489160027E+02  0.14379367788E+02 -0.87106732590E+01  0.22686291123E+02  0.47000000000E+01 0. -1.
         -5    1    3    3    0  502 -0.17542395798E+02 -0.93095564463E+02  0.42664904546E+02  0.10400434536E+03  0.47000000000E+01 0.  1.
          5    1    4    4  503    0  0.37657492857E+02  0.36436712318E+02  0.88680389476E+02  0.10311169793E+03  0.47000000000E+01 0. -1.
         -5    1    4    4    0  503 -0.34604257087E+02  0.42279484358E+02  0.15005956107E+02  0.56853127660E+02  0.47000000000E+01 0.  1.
<mgrwt>
<rscale>  0 0.12199455E+03</rscale>
<asrwt>0</asrwt>
<pdfrwt beam="1">  1        1 0.32638157E-01 0.12205584E+03</pdfrwt>
<pdfrwt beam="2">  1       -1 0.11462684E-01 0.12205584E+03</pdfrwt>
<totfact> 0.63296015E+03</totfact>
</mgrwt>
</event>
<event>
 8    1  0.9456677E-004  0.1211903E+03  0.7546771E-02  0.1245830E+00
         -1   -1    0    0    0  501 -0.00000000000E+00  0.00000000000E+00  0.19771043386E+03  0.19771043386E+03  0.00000000000E+00 0.  1.
          1   -1    0    0  501    0  0.00000000000E+00 -0.00000000000E+00 -0.69515088832E+02  0.69515088832E+02  0.00000000000E+00 0. -1.
         23    2    1    2    0    0 -0.33571480612E+02 -0.42518459972E+02  0.39774241228E+02  0.11720756480E+03  0.96024784469E+02 0.  0.
         23    2    1    2    0    0  0.33571480612E+02  0.42518459972E+02  0.88421103802E+02  0.15001795789E+03  0.10840771349E+03 0.  0.
          5    1    4    4  502    0 -0.33629568926E+02  0.13782329192E+02  0.19489371507E+01  0.36698622046E+02  0.47000000000E+01 0. -1.
         -5    1    3    3    0  503  0.28056565088E+02  0.82803175934E+01  0.53285858226E+01  0.30103460447E+02  0.47000000000E+01 0.  1.
          5    1    3    3  503    0 -0.61628045700E+02 -0.50798777565E+02  0.34445655405E+02  0.87104104354E+02  0.47000000000E+01 0. -1.
         -5    1    4    4    0  502  0.67201049538E+02  0.28736130780E+02  0.86472166651E+02  0.11331933585E+03  0.47000000000E+01 0.  1.
<mgrwt>
<rscale>  0 0.11835814E+03</rscale>
<asrwt>0</asrwt>
<pdfrwt beam="1">  1        1 0.10694629E-01 0.12119033E+03</pdfrwt>
<pdfrwt beam="2">  1       -1 0.30416990E-01 0.12119033E+03</pdfrwt>
<totfact> 0.55197819E+03</totfact>
</mgrwt>
</event>
<event>
 8    1  0.9456677E-004  0.2815403E+03  0.7546771E-02  0.1094924E+00
         -1   -1    0    0    0  501 -0.00000000000E+00  0.00000000000E+00  0.20711252847E+03  0.20711252847E+03  0.00000000000E+00 0.  1.
          1   -1    0    0  501    0  0.00000000000E+00 -0.00000000000E+00 -0.49048436755E+03  0.49048436755E+03  0.00000000000E+00 0. -1.
         23    2    1    2    0    0 -0.16117882628E+02  0.26586416672E+03 -0.30563460866E+03  0.41517772038E+03  0.89534821166E+02 0.  0.
         23    2    1    2    0    0  0.16117882628E+02 -0.26586416672E+03  0.22262769578E+02  0.28241917564E+03  0.91221809762E+02 0.  0.
          5    1    4    4  502    0 -0.12239564086E+02 -0.99133512517E+02  0.48616650207E+02  0.11118870856E+03  0.47000000000E+01 0. -1.
         -5    1    4    4    0  502  0.28357446714E+02 -0.16673065420E+03 -0.26353880629E+02  0.17123046708E+03  0.47000000000E+01 0.  1.
          5    1    3    3  503    0 -0.50531196857E+02  0.12806937755E+03 -0.13182176335E+03  0.19066786466E+03  0.47000000000E+01 0. -1.
         -5    1    3    3    0  503  0.34413314229E+02  0.13779478916E+03 -0.17381284532E+03  0.22450985571E+03  0.47000000000E+01 0.  1.
<mgrwt>
<rscale>  0 0.28140472E+03</rscale>
<asrwt>0</asrwt>
<pdfrwt beam="1">  1        1 0.75459133E-01 0.28154033E+03</pdfrwt>
<pdfrwt beam="2">  1       -1 0.31863466E-01 0.28154033E+03</pdfrwt>
<totfact> 0.42914149E+02</totfact>
</mgrwt>
</event>
<event>
 8    1  0.9456677E-004  0.1126599E+03  0.7546771E-02  0.1256156E+00
         -2   -1    0    0    0  501 -0.00000000000E+00  0.00000000000E+00  0.28602182098E+02  0.28602182098E+02  0.00000000000E+00 0.  1.
          2   -1    0    0  501    0  0.00000000000E+00 -0.00000000000E+00 -0.73004802295E+03  0.73004802295E+03  0.00000000000E+00 0. -1.
         23    2    1    2    0    0  0.58416699538E+02  0.25681177782E+02 -0.58892332258E+03  0.59942219390E+03  0.91674712908E+02 0.  0.
         23    2    1    2    0    0 -0.58416699538E+02 -0.25681177782E+02 -0.11252251827E+03  0.15922801115E+03  0.92845079234E+02 0.  0.
          5    1    4    4  502    0 -0.34055636513E+02 -0.32010827681E+02 -0.12292197356E+03  0.13159172106E+03  0.47000000000E+01 0. -1.
         -5    1    3    3    0  503  0.64494624451E+02  0.52369013769E+02 -0.41030866161E+03  0.41866138821E+03  0.47000000000E+01 0.  1.
          5    1    3    3  503    0 -0.60779249127E+01 -0.26687835987E+02 -0.17861466097E+03  0.18076080569E+03  0.47000000000E+01 0. -1.
         -5    1    4    4    0  502 -0.24361063025E+02  0.63296498984E+01  0.10399455288E+02  0.27636290088E+02  0.47000000000E+01 0.  1.
<mgrwt>
<rscale>  0 0.11241844E+03</rscale>
<asrwt>0</asrwt>
<pdfrwt beam="1">  1        2 0.11231508E+00 0.11265985E+03</pdfrwt>
<pdfrwt beam="2">  1       -2 0.44003358E-02 0.11265985E+03</pdfrwt>
<totfact> 0.89880282E+03</totfact>
</mgrwt>
</event>
<event>
 8    1  0.9456677E-004  0.1982495E+03  0.7546771E-02  0.1151399E+00
         -1   -1    0    0    0  501 -0.00000000000E+00  0.00000000000E+00  0.17904394460E+02  0.17904394460E+02  0.00000000000E+00 0.  1.
          1   -1    0    0  501    0  0.00000000000E+00 -0.00000000000E+00 -0.22553305042E+04  0.22553305042E+04  0.00000000000E+00 0. -1.
         23    2    1    2    0    0  0.16927865933E+03  0.46541904445E+02 -0.91735652131E+03  0.93836165261E+03  0.90322702097E+02 0.  0.
         23    2    1    2    0    0 -0.16927865933E+03 -0.46541904445E+02 -0.13200695884E+04  0.13348732461E+04  0.92094795523E+02 0.  0.
          5    1    3    3  502    0  0.50133039609E+02  0.14623023920E+02 -0.51068124211E+03  0.51336592751E+03  0.47000000000E+01 0. -1.
         -5    1    3    3    0  502  0.11914561972E+03  0.31918880525E+02 -0.40667527920E+03  0.42499572510E+03  0.47000000000E+01 0.  1.
          5    1    4    4  503    0 -0.14359136432E+03 -0.72922537166E+02 -0.10790614078E+04  0.10910232757E+04  0.47000000000E+01 0. -1.
         -5    1    4    4    0  503 -0.25687295014E+02  0.26380632721E+02 -0.24100818063E+03  0.24384997035E+03  0.47000000000E+01 0.  1.
<mgrwt>
<rscale>  0 0.19804494E+03</rscale>
<asrwt>0</asrwt>
<pdfrwt beam="1">  1        1 0.34697373E+00 0.19824950E+03</pdfrwt>
<pdfrwt beam="2">  1       -1 0.27545238E-02 0.19824950E+03</pdfrwt>
<totfact> 0.99186618E+02</totfact>
</mgrwt>
</event>
<event>
 8    1  0.9456677E-004  0.8962281E+02  0.7546771E-02  0.1312997E+00
          1   -1    0    0  501    0  0.00000000000E+00  0.00000000000E+00  0.71327063865E+02  0.71327063865E+02  0.00000000000E+00 0. -1.
         -1   -1    0    0    0  501 -0.00000000000E+00 -0.00000000000E+00 -0.95965532428E+02  0.95965532428E+02  0.00000000000E+00 0.  1.
         23    2    1    2    0    0  0.53368937553E+00 -0.29362001824E+02 -0.87531553033E+01  0.76272861990E+02  0.69846401289E+02 0.  0.
         23    2    1    2    0    0 -0.53368937553E+00  0.29362001824E+02 -0.15885313259E+02  0.91019734303E+02  0.84674889311E+02 0.  0.
          5    1    4    4  502    0 -0.42105354955E+02  0.10824036538E+02 -0.52625119783E+01  0.44043214178E+02  0.47000000000E+01 0. -1.
         -5    1    4    4    0  502  0.41571665579E+02  0.18537965285E+02 -0.10622801281E+02  0.46976520124E+02  0.47000000000E+01 0.  1.
          5    1    3    3  503    0 -0.31747233401E+02 -0.28788919394E+02 -0.39360412348E+01  0.43292853095E+02  0.47000000000E+01 0. -1.
         -5    1    3    3    0  503  0.32280922777E+02 -0.57308243009E+00 -0.48171140685E+01  0.32980008895E+02  0.47000000000E+01 0.  1.
<mgrwt>
<rscale>  0 0.85938295E+02</rscale>
<asrwt>0</asrwt>
<pdfrwt beam="1">  1        1 0.10973394E-01 0.89622814E+02</pdfrwt>
<pdfrwt beam="2">  1       -1 0.14763928E-01 0.89622814E+02</pdfrwt>
<totfact> 0.16586486E+04</totfact>
</mgrwt>
</event>
<event>
 8    1  0.9456677E-004  0.9362957E+02  0.7546771E-02  0.1294509E+00
         -1   -1    0    0    0  501 -0.00000000000E+00  0.00000000000E+00  0.15454109636E+02  0.15454109636E+02  0.00000000000E+00 0.  1.
          1   -1    0    0  501    0  0.00000000000E+00 -0.00000000000E+00 -0.76446145503E+03  0.76446145503E+03  0.00000000000E+00 0. -1.
         23    2    1    2    0    0 -0.15933173515E+02  0.60769002430E+01 -0.57425538090E+03  0.58183824089E+03  0.92063572200E+02 0.  0.
         23    2    1    2    0    0  0.15933173515E+02 -0.60769002430E+01 -0.17475196449E+03  0.19807732378E+03  0.91681963152E+02 0.  0.
          5    1    3    3  502    0  0.62175840493E+01 -0.38176134279E+02 -0.16313972852E+03  0.16772816281E+03  0.47000000000E+01 0. -1.
         -5    1    3    3    0  502 -0.22150757565E+02  0.44253034522E+02 -0.41111565239E+03  0.41411007807E+03  0.47000000000E+01 0.  1.
          5    1    4    4  503    0 -0.57687023689E+01 -0.45475720840E+02 -0.10829992136E+03  0.11769571819E+03  0.47000000000E+01 0. -1.
         -5    1    4    4    0  503  0.21701875884E+02  0.39398820597E+02 -0.66452043131E+02  0.80381605592E+02  0.47000000000E+01 0.  1.
<mgrwt>
<rscale>  0 0.93535627E+02</rscale>
<asrwt>0</asrwt>
<pdfrwt beam="1">  1        1 0.11760946E+00 0.93629568E+02</pdfrwt>
<pdfrwt beam="2">  1       -1 0.23775552E-02 0.93629568E+02</pdfrwt>
<totfact> 0.12218283E+04</totfact>
</mgrwt>
</event>
<event>
 8    1  0.9456677E-004  0.1003264E+03  0.7546771E-02  0.1281199E+00
         -2   -1    0    0    0  501 -0.00000000000E+00  0.00000000000E+00  0.12086144119E+03  0.12086144119E+03  0.00000000000E+00 0.  1.
          2   -1    0    0  501    0  0.00000000000E+00 -0.00000000000E+00 -0.14592942055E+03  0.14592942055E+03  0.00000000000E+00 0. -1.
         23    2    1    2    0    0  0.17771416198E+02 -0.25306608045E+02 -0.10152547880E+03  0.14065154343E+03  0.92299437588E+02 0.  0.
         23    2    1    2    0    0 -0.17771416198E+02  0.25306608045E+02  0.76457499439E+02  0.12613931832E+03  0.95441766337E+02 0.  0.
          5    1    4    4  502    0 -0.53070950254E+02  0.21573386922E+02  0.23247933142E+02  0.62003977127E+02  0.47000000000E+01 0. -1.
         -5    1    4    4    0  502  0.35299534056E+02  0.37332211222E+01  0.53209566297E+02  0.64135341194E+02  0.47000000000E+01 0.  1.
          5    1    3    3  503    0 -0.29939020273E+02 -0.34694183750E+02 -0.64934869604E+02  0.79615693249E+02  0.47000000000E+01 0. -1.
         -5    1    3    3    0  503  0.47710436471E+02  0.93875757053E+01 -0.36590609194E+02  0.61035850179E+02  0.47000000000E+01 0.  1.
<mgrwt>
<rscale>  0 0.99571759E+02</rscale>
<asrwt>0</asrwt>
<pdfrwt beam="1">  1        2 0.22450680E-01 0.10032636E+03</pdfrwt>
<pdfrwt beam="2">  1       -2 0.18594068E-01 0.10032636E+03</pdfrwt>
<totfact> 0.54022413E+03</totfact>
</mgrwt>
</event>
<event>
 8    1  0.9456677E-004  0.9309693E+02  0.7546771E-02  0.1296164E+00
          3   -1    0    0  501    0  0.00000000000E+00  0.00000000000E+00  0.61305199215E+03  0.61305199215E+03  0.00000000000E+00 0. -1.
         -3   -1    0    0    0  501 -0.00000000000E+00 -0.00000000000E+00 -0.13988255160E+02  0.13988255160E+02  0.00000000000E+00 0.  1.
         23    2    1    2    0    0 -0.17599186690E+02  0.38653994173E+01  0.29004732183E+03  0.30462187505E+03  0.91336548957E+02 0.  0.
         23    2    1    2    0    0  0.17599186690E+02 -0.38653994173E+01  0.30901641517E+03  0.32241837227E+03  0.90209695965E+02 0.  0.
          5    1    4    4  502    0 -0.10078141553E+02 -0.28299011439E+02  0.37104249767E+02  0.47971015586E+02  0.47000000000E+01 0. -1.
         -5    1    3    3    0  503  0.22799749028E+02  0.11666087682E+01  0.17767800990E+02  0.29308263063E+02  0.47000000000E+01 0.  1.
          5    1    3    3  503    0 -0.40398935718E+02  0.26987906491E+01  0.27227952084E+03  0.27531361199E+03  0.47000000000E+01 0. -1.
         -5    1    4    4    0  502  0.27677328243E+02  0.24433612022E+02  0.27191216540E+03  0.27444735668E+03  0.47000000000E+01 0.  1.
<mgrwt>
<rscale>  0 0.92819367E+02</rscale>
<asrwt>0</asrwt>
<pdfrwt beam="1">  1        3 0.94315670E-01 0.93096927E+02</pdfrwt>
<pdfrwt beam="2">  1       -3 0.21520397E-02 0.93096927E+02</pdfrwt>
<totfact> 0.18888504E+03</totfact>
</mgrwt>
</event>
<event>
 8    1  0.9456677E-004  0.9469303E+02  0.7546771E-02  0.1292143E+00
         -2   -1    0    0    0  501 -0.00000000000E+00  0.00000000000E+00  0.81404646243E+02  0.81404646243E+02  0.00000000000E+00 0.  1.
          2   -1    0    0  501    0  0.00000000000E+00 -0.00000000000E+00 -0.11078585963E+03  0.11078585963E+03  0.00000000000E+00 0. -1.
         23    2    1    2    0    0  0.24435658069E+02 -0.14046811933E+02 -0.47444768027E+01  0.94811811102E+02  0.90401079383E+02 0.  0.
         23    2    1    2    0    0 -0.24435658069E+02  0.14046811933E+02 -0.24636736584E+02  0.97378694770E+02  0.89895645584E+02 0.  0.
          5    1    3    3  502    0 -0.26943862109E+02 -0.45738859496E+01 -0.26187910029E+02  0.38141693325E+02  0.47000000000E+01 0. -1.
         -5    1    3    3    0  502  0.51379520178E+02 -0.94729259839E+01  0.21443433226E+02  0.56670117777E+02  0.47000000000E+01 0.  1.
          5    1    4    4  503    0 -0.24014618499E+02  0.46159612879E+02 -0.35485085694E+02  0.63156100811E+02  0.47000000000E+01 0. -1.
         -5    1    4    4    0  503 -0.42103956950E+00 -0.32112800946E+02  0.10848349111E+02  0.34222593960E+02  0.47000000000E+01 0.  1.
<mgrwt>
<rscale>  0 0.94572195E+02</rscale>
<asrwt>0</asrwt>
<pdfrwt beam="1">  1        2 0.17043978E-01 0.94693028E+02</pdfrwt>
<pdfrwt beam="2">  1       -2 0.12523792E-01 0.94693028E+02</pdfrwt>
<totfact> 0.13917585E+04</totfact>
</mgrwt>
</event>
<event>
 8    1  0.9456677E-004  0.1056037E+03  0.7546771E-02  0.1269791E+00
          1   -1    0    0  501    0  0.00000000000E+00  0.00000000000E+00  0.24988307106E+03  0.24988307106E+03  0.00000000000E+00 0. -1.
         -1   -1    0    0    0  501 -0.00000000000E+00 -0.00000000000E+00 -0.44496318805E+02  0.44496318805E+02  0.00000000000E+00 0.  1.
         23    2    1    2    0    0  0.47157176651E+02  0.11224510880E+02  0.86471482705E+02  0.13648979856E+03  0.93820886991E+02 0.  0.
         23    2    1    2    0    0 -0.47157176651E+02 -0.11224510880E+02  0.11891526955E+03  0.15788959130E+03  0.91861269075E+02 0.  0.
          5    1    3    3  502    0 -0.27698950394E+02  0.80363845828E+00  0.35183941536E+02  0.45031960092E+02  0.47000000000E+01 0. -1.
         -5    1    3    3    0  502  0.74856127045E+02  0.10420872422E+02  0.51287541169E+02  0.91457838469E+02  0.47000000000E+01 0.  1.
          5    1    4    4  503    0 -0.45200547176E+02  0.26749406888E+02  0.10431937490E+03  0.11688987216E+03  0.47000000000E+01 0. -1.
         -5    1    4    4    0  503 -0.19566294755E+01 -0.37973917768E+02  0.14595894654E+02  0.40999719149E+02  0.47000000000E+01 0.  1.
<mgrwt>
<rscale>  0 0.10516676E+03</rscale>
<asrwt>0</asrwt>
<pdfrwt beam="1">  1        1 0.38443549E-01 0.10560373E+03</pdfrwt>
<pdfrwt beam="2">  1       -1 0.68455877E-02 0.10560373E+03</pdfrwt>
<totfact> 0.11141976E+04</totfact>
</mgrwt>
</event>
<event>
 8    1  0.9456677E-004  0.1035542E+03  0.7546771E-02  0.1273221E+00
         -2   -1    0    0    0  501 -0.00000000000E+00  0.00000000000E+00  0.20335664219E+02  0.20335664219E+02  0.00000000000E+00 0.  1.
          2   -1    0    0  501    0  0.00000000000E+00 -0.00000000000E+00 -0.56154052030E+03  0.56154052030E+03  0.00000000000E+00 0. -1.
         23    2    1    2    0    0  0.39490035993E+02  0.21111570358E+02 -0.19587572415E+03  0.22135478241E+03  0.92873457118E+02 0.  0.
         23    2    1    2    0    0 -0.39490035993E+02 -0.21111570358E+02 -0.34532913193E+03  0.36052140211E+03  0.93371894465E+02 0.  0.
          5    1    4    4  502    0 -0.60631697720E+02  0.11953529227E+02 -0.24420045777E+03  0.25194253949E+03  0.47000000000E+01 0. -1.
         -5    1    4    4    0  502  0.21141661727E+02 -0.33065099585E+02 -0.10112867416E+03  0.10857886262E+03  0.47000000000E+01 0.  1.
          5    1    3    3  503    0 -0.16552417258E+01  0.34929234839E+02 -0.16280926612E+03  0.16658853024E+03  0.47000000000E+01 0. -1.
         -5    1    3    3    0  503  0.41145277719E+02 -0.13817664480E+02 -0.33066458035E+02  0.54766252174E+02  0.47000000000E+01 0.  1.
<mgrwt>
<rscale>  0 0.10344171E+03</rscale>
<asrwt>0</asrwt>
<pdfrwt beam="1">  1        2 0.86390860E-01 0.10355420E+03</pdfrwt>
<pdfrwt beam="2">  1       -2 0.31285633E-02 0.10355420E+03</pdfrwt>
<totfact> 0.19941284E+04</totfact>
</mgrwt>
</event>
<event>
 8    1  0.9456677E-004  0.1205361E+03  0.7546771E-02  0.1243300E+00
          2   -1    0    0  501    0  0.00000000000E+00  0.00000000000E+00  0.10051467004E+03  0.10051467004E+03  0.00000000000E+00 0. -1.
         -2   -1    0    0    0  501 -0.00000000000E+00 -0.00000000000E+00 -0.22152171911E+03  0.22152171911E+03  0.00000000000E+00 0.  1.
         23    2    1    2    0    0  0.33971064247E+02  0.67641248782E+02  0.35890041987E+02  0.12576581884E+03  0.93806046354E+02 0.  0.
         23    2    1    2    0    0 -0.33971064247E+02 -0.67641248782E+02 -0.15689709106E+03  0.19627057031E+03  0.90421611604E+02 0.  0.
          5    1    3    3  502    0  0.42444220727E+02  0.87535832727E+02  0.22709735996E+02  0.10000927954E+03  0.47000000000E+01 0. -1.
         -5    1    4    4    0  503 -0.57994244839E+02 -0.62092668573E+02 -0.14582629265E+03  0.16883787949E+03  0.47000000000E+01 0.  1.
          5    1    4    4  503    0  0.24023180592E+02 -0.55485802091E+01 -0.11070798414E+02  0.27432690820E+02  0.47000000000E+01 0. -1.
         -5    1    3    3    0  502 -0.84731564800E+01 -0.19894583945E+02  0.13180305992E+02  0.25756539307E+02  0.47000000000E+01 0.  1.
<mgrwt>
<rscale>  0 0.11987700E+03</rscale>
<asrwt>0</asrwt>
<pdfrwt beam="1">  1        2 0.15463795E-01 0.12053608E+03</pdfrwt>
<pdfrwt beam="2">  1       -2 0.34080264E-01 0.12053608E+03</pdfrwt>
<totfact> 0.29017435E+03</totfact>
</mgrwt>
</event>
<event>
 8    1  0.9456677E-004  0.9506877E+02  0.7546771E-02  0.1291590E+00
         -2   -1    0    0    0  501 -0.00000000000E+00  0.00000000000E+00  0.12518498480E+03  0.12518498480E+03  0.00000000000E+00 0.  1.
          2   -1    0    0  501    0  0.00000000000E+00 -0.00000000000E+00 -0.71492405857E+02  0.71492405857E+02  0.00000000000E+00 0. -1.
         23    2    1    2    0    0  0.23394948766E+02 -0.12507297736E+02  0.29736341909E+02  0.99610844909E+02  0.91292465565E+02 0.  0.
         23    2    1    2    0    0 -0.23394948766E+02  0.12507297736E+02  0.23956237036E+02  0.97066545750E+02  0.90245536657E+02 0.  0.
          5    1    4    4  502    0 -0.27808624123E+02  0.33537270555E+02 -0.19805645368E+02  0.48087645818E+02  0.47000000000E+01 0. -1.
         -5    1    4    4    0  502  0.44136753576E+01 -0.21029972819E+02  0.43761882404E+02  0.48978899931E+02  0.47000000000E+01 0.  1.
          5    1    3    3  503    0 -0.25951602359E+02  0.34208112236E+01 -0.15375949016E+02  0.30719658568E+02  0.47000000000E+01 0. -1.
         -5    1    3    3    0  503  0.49346551124E+02 -0.15928108960E+02  0.45112290926E+02  0.68891186341E+02  0.47000000000E+01 0.  1.
<mgrwt>
<rscale>  0 0.94816542E+02</rscale>
<asrwt>0</asrwt>
<pdfrwt beam="1">  1        2 0.10998832E-01 0.95068767E+02</pdfrwt>
<pdfrwt beam="2">  1       -2 0.19259228E-01 0.95068767E+02</pdfrwt>
<totfact> 0.11543838E+04</totfact>
</mgrwt>
</event>
<event>
 8    1  0.9456677E-004  0.9677166E+02  0.7546771E-02  0.1287709E+00
          1   -1    0    0  501    0  0.00000000000E+00  0.00000000000E+00  0.51075398568E+02  0.51075398568E+02  0.00000000000E+00 0. -1.
         -1   -1    0    0    0  501 -0.00000000000E+00 -0.00000000000E+00 -0.18174319017E+03  0.18174319017E+03  0.00000000000E+00 0.  1.
         23    2    1    2    0    0  0.76778546406E+01  0.29006436403E+02 -0.64021316335E+02  0.11531749236E+03  0.91099244203E+02 0.  0.
         23    2    1    2    0    0 -0.76778546406E+01 -0.29006436403E+02 -0.66646475264E+02  0.11750109638E+03  0.92002348773E+02 0.  0.
          5    1    3    3  502    0  0.41746778497E+02 -0.10668980449E+02 -0.31034693861E+02  0.53309125689E+02  0.47000000000E+01 0. -1.
         -5    1    4    4    0  503  0.10130150334E+02  0.23182297222E+02 -0.55318501788E+02  0.61010371990E+02  0.47000000000E+01 0.  1.
          5    1    4    4  503    0 -0.17808004975E+02 -0.52188733625E+02 -0.11327973476E+02  0.56490724385E+02  0.47000000000E+01 0. -1.
         -5    1    3    3    0  502 -0.34068923856E+02  0.39675416851E+02 -0.32986622474E+02  0.62008366672E+02  0.47000000000E+01 0.  1.
<mgrwt>
<rscale>  0 0.96556400E+02</rscale>
<asrwt>0</asrwt>
<pdfrwt beam="1">  1        1 0.78577537E-02 0.96771664E+02</pdfrwt>
<pdfrwt beam="2">  1       -1 0.27960490E-01 0.96771664E+02</pdfrwt>
<totfact> 0.93723918E+03</totfact>
</mgrwt>
</event>
<event>
 8    1  0.9456677E-004  0.9247258E+02  0.7546771E-02  0.1297802E+00
         -2   -1    0    0    0  501 -0.00000000000E+00  0.00000000000E+00  0.68495233542E+02  0.68495233542E+02  0.00000000000E+00 0.  1.
          2   -1    0    0  501    0  0.00000000000E+00 -0.00000000000E+00 -0.15163426396E+03  0.15163426396E+03  0.00000000000E+00 0. -1.
         23    2    1    2    0    0 -0.79347259373E+01 -0.43685011671E+01  0.65623928165E+01  0.91298120504E+02  0.90610364363E+02 0.  0.
         23    2    1    2    0    0  0.79347259373E+01  0.43685011671E+01 -0.89701423232E+02  0.12883137700E+03  0.92027901696E+02 0.  0.
          5    1    4    4  502    0  0.38782940699E+02  0.26599923541E+02 -0.24572819814E+02  0.53268995628E+02  0.47000000000E+01 0. -1.
         -5    1    3    3    0  503 -0.16799711433E+02  0.40432559054E+02 -0.39079176146E+01  0.44208414991E+02  0.47000000000E+01 0.  1.
          5    1    3    3  503    0  0.88649854962E+01 -0.44801060222E+02  0.10470310431E+02  0.47089705513E+02  0.47000000000E+01 0. -1.
         -5    1    4    4    0  502 -0.30848214762E+02 -0.22231422374E+02 -0.65128603418E+02  0.75562381367E+02  0.47000000000E+01 0.  1.
<mgrwt>
<rscale>  0 0.92117893E+02</rscale>
<asrwt>0</asrwt>
<pdfrwt beam="1">  1        2 0.23328348E-01 0.92472582E+02</pdfrwt>
<pdfrwt beam="2">  1       -2 0.10537728E-01 0.92472582E+02</pdfrwt>
<totfact> 0.12830250E+04</totfact>
</mgrwt>
</event>
<event>
 8    1  0.9456677E-004  0.1157343E+03  0.7546771E-02  0.1250522E+00
         -1   -1    0    0    0  501 -0.00000000000E+00  0.00000000000E+00  0.23376938749E+03  0.23376938749E+03  0.00000000000E+00 0.  1.
          1   -1    0    0  501    0  0.00000000000E+00 -0.00000000000E+00 -0.94063377633E+02  0.94063377633E+02  0.00000000000E+00 0. -1.
         23    2    1    2    0    0  0.70507222456E+02 -0.15211867437E+02 -0.33062274313E+02  0.11988248560E+03  0.89866718206E+02 0.  0.
         23    2    1    2    0    0 -0.70507222456E+02  0.15211867437E+02  0.17276828417E+03  0.20795027952E+03  0.90508394142E+02 0.  0.
          5    1    4    4  502    0 -0.52458379211E+02 -0.19555186174E+02  0.38759865566E+02  0.68254699725E+02  0.47000000000E+01 0. -1.
         -5    1    3    3    0  503  0.80794187723E+02  0.15396721132E+02 -0.20318012071E+02  0.84850877461E+02  0.47000000000E+01 0.  1.
          5    1    3    3  503    0 -0.10286965267E+02 -0.30608588569E+02 -0.12744262242E+02  0.35031608137E+02  0.47000000000E+01 0. -1.
         -5    1    4    4    0  502 -0.18048843245E+02  0.34767053611E+02  0.13400841860E+03  0.13969557980E+03  0.47000000000E+01 0.  1.
<mgrwt>
<rscale>  0 0.11560886E+03</rscale>
<asrwt>0</asrwt>
<pdfrwt beam="1">  1        1 0.14471289E-01 0.11573435E+03</pdfrwt>
<pdfrwt beam="2">  1       -1 0.35964521E-01 0.11573435E+03</pdfrwt>
<totfact> 0.27925800E+03</totfact>
</mgrwt>
</event>
<event>
 8    1  0.9456677E-004  0.9950325E+02  0.7546771E-02  0.1281531E+00
         -1   -1    0    0    0  501 -0.00000000000E+00  0.00000000000E+00  0.19965527607E+02  0.19965527607E+02  0.00000000000E+00 0.  1.
          1   -1    0    0  501    0  0.00000000000E+00 -0.00000000000E+00 -0.52701073902E+03  0.52701073902E+03  0.00000000000E+00 0. -1.
         23    2    1    2    0    0  0.10175334486E+02  0.46492662339E+01 -0.18564981452E+03  0.21063416317E+03  0.98872361934E+02 0.  0.
         23    2    1    2    0    0 -0.10175334486E+02 -0.46492662339E+01 -0.32139539689E+03  0.33634210345E+03  0.98518304419E+02 0.  0.
          5    1    4    4  502    0 -0.96464552815E+01  0.42661527563E+02 -0.21996506387E+03  0.22432070649E+03  0.47000000000E+01 0. -1.
         -5    1    4    4    0  502 -0.52887920424E+00 -0.47310793796E+02 -0.10143033301E+03  0.11202139696E+03  0.47000000000E+01 0.  1.
          5    1    3    3  503    0  0.41552347059E+02 -0.43170795910E+01 -0.30291538781E+02  0.51816040412E+02  0.47000000000E+01 0. -1.
         -5    1    3    3    0  503 -0.31377012573E+02  0.89663458249E+01 -0.15535827574E+03  0.15881812276E+03  0.47000000000E+01 0.  1.
<mgrwt>
<rscale>  0 0.99415184E+02</rscale>
<asrwt>0</asrwt>
<pdfrwt beam="1">  1        1 0.81078593E-01 0.99503252E+02</pdfrwt>
<pdfrwt beam="2">  1       -1 0.30716190E-02 0.99503252E+02</pdfrwt>
<totfact> 0.14139817E+04</totfact>
</mgrwt>
</event>
<event>
 8    1  0.9456677E-004  0.1060358E+03  0.7546771E-02  0.1268964E+00
         -1   -1    0    0    0  501 -0.00000000000E+00  0.00000000000E+00  0.74361237125E+02  0.74361237125E+02  0.00000000000E+00 0.  1.
          1   -1    0    0  501    0  0.00000000000E+00 -0.00000000000E+00 -0.30066818352E+03  0.30066818352E+03  0.00000000000E+00 0. -1.
         23    2    1    2    0    0 -0.48429028081E+02 -0.35518135149E+01 -0.24599912246E+03  0.26718060470E+03  0.92260073357E+02 0.  0.
         23    2    1    2    0    0  0.48429028081E+02  0.35518135149E+01  0.19692176064E+02  0.10784881595E+03  0.94263456137E+02 0.  0.
          5    1    3    3  502    0 -0.69460542536E+02 -0.91031048384E+01 -0.22797845867E+03  0.23854538584E+03  0.47000000000E+01 0. -1.
         -5    1    4    4    0  503  0.28837786520E+02  0.21880506946E+02  0.53292756844E+02  0.64595529626E+02  0.47000000000E+01 0.  1.
          5    1    4    4  503    0  0.19591241562E+02 -0.18328693431E+02 -0.33600580780E+02  0.43253286321E+02  0.47000000000E+01 0. -1.
         -5    1    3    3    0  502  0.21031514455E+02  0.55512913236E+01 -0.18020663783E+02  0.28635218854E+02  0.47000000000E+01 0.  1.
<mgrwt>
<rscale>  0 0.10558872E+03</rscale>
<asrwt>0</asrwt>
<pdfrwt beam="1">  1        1 0.46256645E-01 0.10603577E+03</pdfrwt>
<pdfrwt beam="2">  1       -1 0.11440190E-01 0.10603577E+03</pdfrwt>
<totfact> 0.40975767E+03</totfact>
</mgrwt>
</event>
<event>
 8    1  0.9456677E-004  0.9432932E+02  0.7546771E-02  0.1293323E+00
         -3   -1    0    0    0  501 -0.00000000000E+00  0.00000000000E+00  0.24063560463E+03  0.24063560463E+03  0.00000000000E+00 0.  1.
          3   -1    0    0  501    0  0.00000000000E+00 -0.00000000000E+00 -0.36579783158E+02  0.36579783158E+02  0.00000000000E+00 0. -1.
         23    2    1    2    0    0  0.16522561877E+02  0.79417628142E+01  0.10554559264E+03  0.14082519384E+03  0.91410045647E+02 0.  0.
         23    2    1    2    0    0 -0.16522561877E+02 -0.79417628142E+01  0.98510228827E+02  0.13639019395E+03  0.92530822835E+02 0.  0.
          5    1    4    4  502    0  0.37253125010E+02  0.62052916536E+01  0.46697465593E+02  0.60241549285E+02  0.47000000000E+01 0. -1.
         -5    1    3    3    0  503 -0.25633189981E+02  0.32139055723E+02  0.66407057460E+02  0.78242997207E+02  0.47000000000E+01 0.  1.
          5    1    3    3  503    0  0.42155751858E+02 -0.24197292909E+02  0.39138535184E+02  0.62582196631E+02  0.47000000000E+01 0. -1.
         -5    1    4    4    0  502 -0.53775686887E+02 -0.14147054468E+02  0.51812763234E+02  0.76148644664E+02  0.47000000000E+01 0.  1.
<mgrwt>
<rscale>  0 0.94053318E+02</rscale>
<asrwt>0</asrwt>
<pdfrwt beam="1">  1        3 0.56276591E-02 0.94329316E+02</pdfrwt>
<pdfrwt beam="2">  1       -3 0.37020861E-01 0.94329316E+02</pdfrwt>
<totfact> 0.28959179E+03</totfact>
</mgrwt>
</event>
<event>
 8    1  0.9456677E-004  0.1138061E+03  0.7546771E-02  0.1253863E+00
         -1   -1    0    0    0  501 -0.00000000000E+00  0.00000000000E+00  0.84201461344E+02  0.84201461344E+02  0.00000000000E+00 0.  1.
          1   -1    0    0  501    0  0.00000000000E+00 -0.00000000000E+00 -0.23090206138E+03  0.23090206138E+03  0.00000000000E+00 0. -1.
         23    2    1    2    0    0  0.31842875217E+02 -0.55841758507E+02  0.18097962903E+02  0.11482774950E+03  0.93410947425E+02 0.  0.
         23    2    1    2    0    0 -0.31842875217E+02  0.55841758507E+02 -0.16479856293E+03  0.20027577322E+03  0.93912450177E+02 0.  0.
          5    1    3    3  502    0  0.46325264553E+02  0.55283458430E+01 -0.57667727294E+01  0.47243395426E+02  0.47000000000E+01 0. -1.
         -5    1    4    4    0  503  0.89639577450E+00  0.26012911537E+02  0.30443831612E+01  0.26623924595E+02  0.47000000000E+01 0.  1.
          5    1    4    4  503    0 -0.32739270992E+02  0.29828846970E+02 -0.16784294610E+03  0.17365184862E+03  0.47000000000E+01 0. -1.
         -5    1    3    3    0  502 -0.14482389336E+02 -0.61370104350E+02  0.23864735632E+02  0.67584354074E+02  0.47000000000E+01 0.  1.
<mgrwt>
<rscale>  0 0.11370255E+03</rscale>
<asrwt>0</asrwt>
<pdfrwt beam="1">  1        1 0.35523394E-01 0.11380606E+03</pdfrwt>
<pdfrwt beam="2">  1       -1 0.12954071E-01 0.11380606E+03</pdfrwt>
<totfact> 0.47020355E+03</totfact>
</mgrwt>
</event>
<event>
 8    1  0.9456677E-004  0.1048485E+03  0.7546771E-02  0.1271454E+00
          2   -1    0    0  501    0  0.00000000000E+00  0.00000000000E+00  0.43427681601E+03  0.43427681601E+03  0.00000000000E+00 0. -1.
         -2   -1    0    0    0  501 -0.00000000000E+00 -0.00000000000E+00 -0.25373968678E+02  0.25373968678E+02  0.00000000000E+00 0.  1.
         23    2    1    2    0    0 -0.49721254518E+02  0.11507465252E+02  0.24055656369E+03  0.26241316335E+03  0.91589208205E+02 0.  0.
         23    2    1    2    0    0  0.49721254518E+02 -0.11507465252E+02  0.16834628364E+03  0.19723762133E+03  0.89205286537E+02 0.  0.
          5    1    4    4  502    0  0.28998755008E+02 -0.48825972045E+02  0.11818511862E+03  0.13120486119E+03  0.47000000000E+01 0. -1.
         -5    1    3    3    0  503 -0.65620991462E+02 -0.99976654050E+01  0.10609432482E+03  0.12523643077E+03  0.47000000000E+01 0.  1.
          5    1    3    3  503    0  0.15899736943E+02  0.21505130657E+02  0.13446223887E+03  0.13717673258E+03  0.47000000000E+01 0. -1.
         -5    1    4    4    0  502  0.20722499510E+02  0.37318506793E+02  0.50161165022E+02  0.66032760138E+02  0.47000000000E+01 0.  1.
<mgrwt>
<rscale>  0 0.10432563E+03</rscale>
<asrwt>0</asrwt>
<pdfrwt beam="1">  1        2 0.66811812E-01 0.10484850E+03</pdfrwt>
<pdfrwt beam="2">  1       -2 0.39036878E-02 0.10484850E+03</pdfrwt>
<totfact> 0.19069800E+04</totfact>
</mgrwt>
</event>
<event>
 8    1  0.1103757E-003  0.1063544E+03  0.7546771E-02  0.1269362E+00
         -1   -1    0    0    0  501 -0.00000000000E+00  0.00000000000E+00  0.44540146869E+03  0.44540146869E+03  0.00000000000E+00 0.  1.
          1   -1    0    0  501    0  0.00000000000E+00 -0.00000000000E+00 -0.93073531350E+02  0.93073531350E+02  0.00000000000E+00 0. -1.
         23    2    1    2    0    0 -0.35671687116E+02  0.32392574059E+02 -0.54093202990E+02  0.11932027429E+03  0.94813000848E+02 0.  0.
         23    2    1    2    0    0  0.35671687116E+02 -0.32392574059E+02  0.40642114033E+03  0.41915472575E+03  0.90502998291E+02 0.  0.
          5    1    4    4  502    0 -0.17079963464E+02 -0.26882659788E+02  0.55057740906E+02  0.63779678448E+02  0.47000000000E+01 0. -1.
         -5    1    4    4    0  502  0.52751650580E+02 -0.55099142715E+01  0.35136339942E+03  0.35537504730E+03  0.47000000000E+01 0.  1.
          5    1    3    3  503    0 -0.53211291192E+02 -0.84418480675E+01 -0.51302287522E+02  0.74543416974E+02  0.47000000000E+01 0. -1.
         -5    1    3    3    0  503  0.17539604076E+02  0.40834422126E+02 -0.27909154687E+01  0.44776857312E+02  0.47000000000E+01 0.  1.
<mgrwt>
<rscale>  0 0.10538529E+03</rscale>
<asrwt>0</asrwt>
<pdfrwt beam="1">  1        1 0.14319005E-01 0.10635438E+03</pdfrwt>
<pdfrwt beam="2">  1       -1 0.68523301E-01 0.10635438E+03</pdfrwt>
<totfact> 0.87287512E+02</totfact>
</mgrwt>
</event>
<event>
 8    1  0.9456677E-004  0.1339379E+03  0.7546771E-02  0.1222490E+00
         -1   -1    0    0    0  501 -0.00000000000E+00  0.00000000000E+00  0.34926134758E+02  0.34926134758E+02  0.00000000000E+00 0.  1.
          1   -1    0    0  501    0  0.00000000000E+00 -0.00000000000E+00 -0.50776959369E+03  0.50776959369E+03  0.00000000000E+00 0. -1.
         23    2    1    2    0    0  0.65152091851E+02 -0.68824904730E+02 -0.22027546932E+03  0.25779961316E+03  0.94645103299E+02 0.  0.
         23    2    1    2    0    0 -0.65152091851E+02  0.68824904730E+02 -0.25256798962E+03  0.28489611529E+03  0.91616289737E+02 0.  0.
          5    1    4    4  502    0  0.18984079767E+02  0.13176002780E+02 -0.18496664651E+02  0.29970300917E+02  0.47000000000E+01 0. -1.
         -5    1    3    3    0  503  0.69594736776E+01 -0.71690949866E+02 -0.14945378296E+03  0.16597153312E+03  0.47000000000E+01 0.  1.
          5    1    3    3  503    0  0.58192618173E+02  0.28660451361E+01 -0.70821686366E+02  0.91828080043E+02  0.47000000000E+01 0. -1.
         -5    1    4    4    0  502 -0.84136171618E+02  0.55648901949E+02 -0.23407132496E+03  0.25492581437E+03  0.47000000000E+01 0.  1.
<mgrwt>
<rscale>  0 0.13340400E+03</rscale>
<asrwt>0</asrwt>
<pdfrwt beam="1">  1        1 0.78118398E-01 0.13393789E+03</pdfrwt>
<pdfrwt beam="2">  1       -1 0.53732516E-02 0.13393789E+03</pdfrwt>
<totfact> 0.66940374E+03</totfact>
</mgrwt>
</event>
<event>
 8    1  0.9456677E-004  0.9889461E+02  0.7546771E-02  0.1283696E+00
          1   -1    0    0  501    0  0.00000000000E+00  0.00000000000E+00  0.28461053813E+03  0.28461053813E+03  0.00000000000E+00 0. -1.
         -1   -1    0    0    0  501 -0.00000000000E+00 -0.00000000000E+00 -0.90894958212E+02  0.90894958212E+02  0.00000000000E+00 0.  1.
         23    2    1    2    0    0 -0.15163065164E+02 -0.29327709572E+02 -0.51733938859E+02  0.11160888777E+03  0.93220761124E+02 0.  0.
         23    2    1    2    0    0  0.15163065164E+02  0.29327709572E+02  0.24544951878E+03  0.26389660858E+03  0.91136823821E+02 0.  0.
          5    1    4    4  502    0  0.15313875240E+02 -0.31787894166E+02  0.93876436804E+02  0.10039850784E+03  0.47000000000E+01 0. -1.
         -5    1    3    3    0  503  0.21044742901E+02  0.13030414667E+02 -0.49616207722E+02  0.55646482179E+02  0.47000000000E+01 0.  1.
          5    1    3    3  503    0 -0.36207808065E+02 -0.42358124238E+02 -0.21177311370E+01  0.55962405587E+02  0.47000000000E+01 0. -1.
         -5    1    4    4    0  502 -0.15081007610E+00  0.61115603738E+02  0.15157308198E+03  0.16349810073E+03  0.47000000000E+01 0.  1.
<mgrwt>
<rscale>  0 0.98400446E+02</rscale>
<asrwt>0</asrwt>
<pdfrwt beam="1">  1        1 0.43786236E-01 0.98894608E+02</pdfrwt>
<pdfrwt beam="2">  1       -1 0.13983840E-01 0.98894608E+02</pdfrwt>
<totfact> 0.32065169E+03</totfact>
</mgrwt>
</event>
<event>
 8    1  0.9456677E-004  0.2526820E+03  0.7546771E-02  0.1112453E+00
         -1   -1    0    0    0  501 -0.00000000000E+00  0.00000000000E+00  0.13231546015E+03  0.13231546015E+03  0.00000000000E+00 0.  1.
          1   -1    0    0  501    0  0.00000000000E+00 -0.00000000000E+00 -0.74008655153E+03  0.74008655153E+03  0.00000000000E+00 0. -1.
         23    2    1    2    0    0  0.13320072297E+03 -0.19046956567E+03 -0.43665924487E+02  0.25642722605E+03  0.99131837753E+02 0.  0.
         23    2    1    2    0    0 -0.13320072297E+03  0.19046956567E+03 -0.56410516690E+03  0.61597478563E+03  0.84789204268E+02 0.  0.
          5    1    3    3  502    0 -0.28065088127E+01 -0.71059354665E+02 -0.18547328964E+02  0.73643749150E+02  0.47000000000E+01 0. -1.
         -5    1    4    4    0  503  0.11844632675E+02  0.16284317356E+02 -0.45479125629E+02  0.49959135130E+02  0.47000000000E+01 0.  1.
          5    1    4    4  503    0 -0.14504535565E+03  0.17418524831E+03 -0.51862604127E+03  0.56601565050E+03  0.47000000000E+01 0. -1.
         -5    1    3    3    0  502  0.13600723178E+03 -0.11941021100E+03 -0.25118595522E+02  0.18278347691E+03  0.47000000000E+01 0.  1.
<mgrwt>
<rscale>  0 0.25135286E+03</rscale>
<asrwt>0</asrwt>
<pdfrwt beam="1">  1        1 0.11385947E+00 0.25268203E+03</pdfrwt>
<pdfrwt beam="2">  1       -1 0.20356225E-01 0.25268203E+03</pdfrwt>
<totfact> 0.51163639E+02</totfact>
</mgrwt>
</event>
<event>
 8    1  0.9456677E-004  0.2204629E+03  0.7546771E-02  0.1134290E+00
         -2   -1    0    0    0  501 -0.00000000000E+00  0.00000000000E+00  0.48371402544E+03  0.48371402544E+03  0.00000000000E+00 0.  1.
          2   -1    0    0  501    0  0.00000000000E+00 -0.00000000000E+00 -0.10804303163E+03  0.10804303163E+03  0.00000000000E+00 0. -1.
         23    2    1    2    0    0  0.13706635464E+03 -0.14649290797E+03  0.27343490877E+03  0.34874246805E+03  0.81285312487E+02 0.  0.
         23    2    1    2    0    0 -0.13706635464E+03  0.14649290797E+03  0.10223608504E+03  0.24301458902E+03  0.91413979949E+02 0.  0.
          5    1    4    4  502    0 -0.48571009237E+02  0.11690871068E+03  0.65591786968E+02  0.14265749924E+03  0.47000000000E+01 0. -1.
         -5    1    3    3    0  503  0.28789025008E+02  0.10722696064E+01  0.65373628363E+02  0.71594406264E+02  0.47000000000E+01 0.  1.
          5    1    3    3  503    0  0.10827732963E+03 -0.14756517758E+03  0.20806128041E+03  0.27714806179E+03  0.47000000000E+01 0. -1.
         -5    1    4    4    0  502 -0.88495345405E+02  0.29584197292E+02  0.36644298068E+02  0.10035708978E+03  0.47000000000E+01 0.  1.
<mgrwt>
<rscale>  0 0.21945510E+03</rscale>
<asrwt>0</asrwt>
<pdfrwt beam="1">  1        2 0.16622005E-01 0.22046286E+03</pdfrwt>
<pdfrwt beam="2">  1       -2 0.74417541E-01 0.22046286E+03</pdfrwt>
<totfact> 0.57508760E+02</totfact>
</mgrwt>
</event>
<event>
 8    1  0.9456677E-004  0.1074966E+03  0.7546771E-02  0.1265304E+00
         -3   -1    0    0    0  501 -0.00000000000E+00  0.00000000000E+00  0.60108253581E+02  0.60108253581E+02  0.00000000000E+00 0.  1.
          3   -1    0    0  501    0  0.00000000000E+00 -0.00000000000E+00 -0.23071779395E+03  0.23071779395E+03  0.00000000000E+00 0. -1.
         23    2    1    2    0    0 -0.56013768498E+02 -0.36066654243E+01 -0.25830095511E+02  0.11050245520E+03  0.91613582365E+02 0.  0.
         23    2    1    2    0    0  0.56013768498E+02  0.36066654243E+01 -0.14477944486E+03  0.18032359233E+03  0.91678568934E+02 0.  0.
          5    1    3    3  502    0  0.53325212330E+01 -0.32745605073E+02 -0.26020388918E+02  0.42424769578E+02  0.47000000000E+01 0. -1.
         -5    1    4    4    0  503  0.36603601387E+02  0.21359935786E+02 -0.11184278955E+02  0.44082293351E+02  0.47000000000E+01 0.  1.
          5    1    4    4  503    0  0.19410167111E+02 -0.17753270362E+02 -0.13359516590E+03  0.13624129898E+03  0.47000000000E+01 0. -1.
         -5    1    3    3    0  502 -0.61346289731E+02  0.29138939649E+02  0.19029340754E+00  0.68077685619E+02  0.47000000000E+01 0.  1.
<mgrwt>
<rscale>  0 0.10748270E+03</rscale>
<asrwt>0</asrwt>
<pdfrwt beam="1">  1        3 0.35495044E-01 0.10749656E+03</pdfrwt>
<pdfrwt beam="2">  1       -3 0.92474239E-02 0.10749656E+03</pdfrwt>
<totfact> 0.14495604E+03</totfact>
</mgrwt>
</event>
<event>
 8    1  0.9456677E-004  0.1211964E+03  0.7546771E-02  0.1243242E+00
         -3   -1    0    0    0  501 -0.00000000000E+00  0.00000000000E+00  0.69057605623E+03  0.69057605623E+03  0.00000000000E+00 0.  1.
          3   -1    0    0  501    0  0.00000000000E+00 -0.00000000000E+00 -0.45225001378E+02  0.45225001378E+02  0.00000000000E+00 0. -1.
         23    2    1    2    0    0  0.48490405165E+02 -0.51435649867E+02  0.53184077012E+02  0.13235225247E+03  0.98446062465E+02 0.  0.
         23    2    1    2    0    0 -0.48490405165E+02  0.51435649867E+02  0.59216697784E+03  0.60344880515E+03  0.92150883407E+02 0.  0.
          5    1    3    3  502    0  0.32625062294E+02 -0.71634036573E+02  0.68286997715E+01  0.79148916771E+02  0.47000000000E+01 0. -1.
         -5    1    4    4    0  503  0.20611597777E+02  0.34283046955E+02  0.30016175248E+03  0.30285199838E+03  0.47000000000E+01 0.  1.
          5    1    4    4  503    0 -0.69102002943E+02  0.17152602912E+02  0.29200522536E+03  0.30059680676E+03  0.47000000000E+01 0. -1.
         -5    1    3    3    0  502  0.15865342872E+02  0.20198386706E+02  0.46355377241E+02  0.53203335695E+02  0.47000000000E+01 0.  1.
<mgrwt>
<rscale>  0 0.11991230E+03</rscale>
<asrwt>0</asrwt>
<pdfrwt beam="1">  1        3 0.69576930E-02 0.12119642E+03</pdfrwt>
<pdfrwt beam="2">  1       -3 0.10624246E+00 0.12119642E+03</pdfrwt>
<totfact> 0.24242186E+02</totfact>
</mgrwt>
</event>
<event>
 8    1  0.9456677E-004  0.1123014E+03  0.7546771E-02  0.1256367E+00
          2   -1    0    0  501    0  0.00000000000E+00  0.00000000000E+00  0.23277323849E+03  0.23277323849E+03  0.00000000000E+00 0. -1.
         -2   -1    0    0    0  501 -0.00000000000E+00 -0.00000000000E+00 -0.66844487597E+02  0.66844487597E+02  0.00000000000E+00 0.  1.
         23    2    1    2    0    0  0.37571045010E+02  0.53710829296E+02  0.14817331414E+03  0.18592186034E+03  0.91187556833E+02 0.  0.
         23    2    1    2    0    0 -0.37571045010E+02 -0.53710829296E+02  0.17755436752E+02  0.11369586575E+03  0.91186938469E+02 0.  0.
          5    1    3    3  502    0  0.20677678598E+02  0.78849589284E+02  0.10782236152E+03  0.13525004904E+03  0.47000000000E+01 0. -1.
         -5    1    4    4    0  503 -0.46026418645E+00 -0.54242051229E+02 -0.22344965616E+02  0.58854052138E+02  0.47000000000E+01 0.  1.
          5    1    4    4  503    0 -0.37110780823E+02  0.53122193366E+00  0.40100402368E+02  0.54841813611E+02  0.47000000000E+01 0. -1.
         -5    1    3    3    0  502  0.16893366412E+02 -0.25138759988E+02  0.40350952623E+02  0.50671811296E+02  0.47000000000E+01 0.  1.
<mgrwt>
<rscale>  0 0.11230129E+03</rscale>
<asrwt>0</asrwt>
<pdfrwt beam="1">  1        2 0.35811267E-01 0.11230141E+03</pdfrwt>
<pdfrwt beam="2">  1       -2 0.10283767E-01 0.11230141E+03</pdfrwt>
<totfact> 0.85405816E+03</totfact>
</mgrwt>
</event>
<event>
 8    1  0.9456677E-004  0.1288164E+03  0.7546771E-02  0.1230777E+00
         -1   -1    0    0    0  501 -0.00000000000E+00  0.00000000000E+00  0.14572841788E+03  0.14572841788E+03  0.00000000000E+00 0.  1.
          1   -1    0    0  501    0  0.00000000000E+00 -0.00000000000E+00 -0.23723250276E+03  0.23723250276E+03  0.00000000000E+00 0. -1.
         23    2    1    2    0    0 -0.28614321000E+01 -0.86832304448E+02  0.94644488009E+02  0.15658740624E+03  0.89520946114E+02 0.  0.
         23    2    1    2    0    0  0.28614321000E+01  0.86832304448E+02 -0.18614857289E+03  0.22637351440E+03  0.95108569256E+02 0.  0.
          5    1    3    3  502    0  0.35233001279E+02 -0.60761697583E+02  0.82838585386E+02  0.10870910496E+03  0.47000000000E+01 0. -1.
         -5    1    3    3    0  502 -0.38094433379E+02 -0.26070606865E+02  0.11805902624E+02  0.47878301281E+02  0.47000000000E+01 0.  1.
          5    1    4    4  503    0 -0.38461067894E+02  0.64252861140E+02 -0.14665996534E+03  0.16473894300E+03  0.47000000000E+01 0. -1.
         -5    1    4    4    0  503  0.41322499994E+02  0.22579443308E+02 -0.39488607552E+02  0.61634571404E+02  0.47000000000E+01 0.  1.
<mgrwt>
<rscale>  0 0.12778703E+03</rscale>
<asrwt>0</asrwt>
<pdfrwt beam="1">  1        1 0.36497308E-01 0.12881645E+03</pdfrwt>
<pdfrwt beam="2">  1       -1 0.22419757E-01 0.12881645E+03</pdfrwt>
<totfact> 0.19235820E+03</totfact>
</mgrwt>
</event>
<event>
 8    1  0.9456677E-004  0.9169932E+02  0.7546771E-02  0.1298934E+00
          1   -1    0    0  501    0  0.00000000000E+00  0.00000000000E+00  0.19817903741E+03  0.19817903741E+03  0.00000000000E+00 0. -1.
         -1   -1    0    0    0  501 -0.00000000000E+00 -0.00000000000E+00 -0.10948690831E+03  0.10948690831E+03  0.00000000000E+00 0.  1.
         23    2    1    2    0    0 -0.10417834712E+02 -0.65478416684E+01 -0.76123293742E+02  0.11917852550E+03  0.90870014739E+02 0.  0.
         23    2    1    2    0    0  0.10417834712E+02  0.65478416684E+01  0.16481542284E+03  0.18848742023E+03  0.90619967274E+02 0.  0.
          5    1    3    3  502    0  0.20935066553E+02  0.26299647619E+02 -0.44931700688E+01  0.34237801531E+02  0.47000000000E+01 0. -1.
         -5    1    3    3    0  502 -0.31352901265E+02 -0.32847489287E+02 -0.71630123674E+02  0.84940723965E+02  0.47000000000E+01 0.  1.
          5    1    4    4  503    0 -0.12018350371E+02  0.44383584519E+02  0.98014462867E+02  0.10836636125E+03  0.47000000000E+01 0. -1.
         -5    1    4    4    0  503  0.22436185083E+02 -0.37835742851E+02  0.66800959971E+02  0.80121058974E+02  0.47000000000E+01 0.  1.
<mgrwt>
<rscale>  0 0.91637311E+02</rscale>
<asrwt>0</asrwt>
<pdfrwt beam="1">  1        1 0.30489083E-01 0.91699319E+02</pdfrwt>
<pdfrwt beam="2">  1       -1 0.16844140E-01 0.91699319E+02</pdfrwt>
<totfact> 0.37227045E+03</totfact>
</mgrwt>
</event>
<event>
 8    1  0.9456677E-004  0.9335315E+02  0.7546771E-02  0.1295550E+00
         -2   -1    0    0    0  501 -0.00000000000E+00  0.00000000000E+00  0.10116199490E+02  0.10116199490E+02  0.00000000000E+00 0.  1.
          2   -1    0    0  501    0  0.00000000000E+00 -0.00000000000E+00 -0.85299446623E+03  0.85299446623E+03  0.00000000000E+00 0. -1.
         23    2    1    2    0    0 -0.14764827620E+02  0.98424552827E+01 -0.40162873601E+03  0.41209408131E+03  0.90559462265E+02 0.  0.
         23    2    1    2    0    0  0.14764827620E+02 -0.98424552827E+01 -0.44124953074E+03  0.45101658441E+03  0.91651170080E+02 0.  0.
          5    1    4    4  502    0  0.38328169753E+02  0.28571662888E+02 -0.22425525129E+03  0.22934231238E+03  0.47000000000E+01 0. -1.
         -5    1    4    4    0  502 -0.23563342133E+02 -0.38414118171E+02 -0.21699427945E+03  0.22167427203E+03  0.47000000000E+01 0.  1.
          5    1    3    3  503    0  0.29406846104E+02 -0.19886001551E+02 -0.21500881671E+03  0.21797040377E+03  0.47000000000E+01 0. -1.
         -5    1    3    3    0  503 -0.44171673724E+02  0.29728456834E+02 -0.18661991930E+03  0.19412367754E+03  0.47000000000E+01 0.  1.
<mgrwt>
<rscale>  0 0.93084099E+02</rscale>
<asrwt>0</asrwt>
<pdfrwt beam="1">  1        2 0.13122994E+00 0.93353152E+02</pdfrwt>
<pdfrwt beam="2">  1       -2 0.15563381E-02 0.93353152E+02</pdfrwt>
<totfact> 0.33147438E+04</totfact>
</mgrwt>
</event>
<event>
 8    1  0.9456677E-004  0.1157453E+03  0.7546771E-02  0.1251080E+00
          2   -1    0    0  501    0  0.00000000000E+00  0.00000000000E+00  0.11980728853E+04  0.11980728853E+04  0.00000000000E+00 0. -1.
         -2   -1    0    0    0  501 -0.00000000000E+00 -0.00000000000E+00 -0.11029714193E+02  0.11029714193E+02  0.00000000000E+00 0.  1.
         23    2    1    2    0    0 -0.59233134915E+02 -0.35439397706E+02  0.62563068019E+03  0.63624737763E+03  0.92911045421E+02 0.  0.
         23    2    1    2    0    0  0.59233134915E+02  0.35439397706E+02  0.56141249092E+03  0.57285522186E+03  0.90634458562E+02 0.  0.
          5    1    3    3  502    0 -0.62244665412E+02  0.97306518753E+01  0.46573250998E+03  0.46999781362E+03  0.47000000000E+01 0. -1.
         -5    1    4    4    0  503  0.34728406563E+02 -0.23473142040E+02  0.33268766759E+03  0.33535089800E+03  0.47000000000E+01 0.  1.
          5    1    4    4  503    0  0.24504728351E+02  0.58912539746E+02  0.22872482332E+03  0.23750432386E+03  0.47000000000E+01 0. -1.
         -5    1    3    3    0  502  0.30115304974E+01 -0.45170049582E+02  0.15989817021E+03  0.16624956400E+03  0.47000000000E+01 0.  1.
<mgrwt>
<rscale>  0 0.11528776E+03</rscale>
<asrwt>0</asrwt>
<pdfrwt beam="1">  1        2 0.18431880E+00 0.11574531E+03</pdfrwt>
<pdfrwt beam="2">  1       -2 0.16968801E-02 0.11574531E+03</pdfrwt>
<totfact> 0.18712591E+04</totfact>
</mgrwt>
</event>
<event>
 8    1  0.9456677E-004  0.9407811E+02  0.7546771E-02  0.1294065E+00
          2   -1    0    0  501    0  0.00000000000E+00  0.00000000000E+00  0.89052394119E+02  0.89052394119E+02  0.00000000000E+00 0. -1.
         -2   -1    0    0    0  501 -0.00000000000E+00 -0.00000000000E+00 -0.10044410485E+03  0.10044410485E+03  0.00000000000E+00 0.  1.
         23    2    1    2    0    0  0.15426028741E+02 -0.28532653815E+01 -0.20658774969E+02  0.94963068191E+02  0.91351496162E+02 0.  0.
         23    2    1    2    0    0 -0.15426028741E+02  0.28532653815E+01  0.92670642342E+01  0.94533430781E+02  0.92760916176E+02 0.  0.
          5    1    3    3  502    0 -0.11261046690E+02 -0.24124504680E+02  0.25636045522E+02  0.37257210424E+02  0.47000000000E+01 0. -1.
         -5    1    4    4    0  503 -0.23492384201E+02 -0.21701071620E+02  0.41722163540E+02  0.52779328864E+02  0.47000000000E+01 0.  1.
          5    1    4    4  503    0  0.80663554599E+01  0.24554337002E+02 -0.32455099306E+02  0.41754101917E+02  0.47000000000E+01 0. -1.
         -5    1    3    3    0  502  0.26687075431E+02  0.21271239298E+02 -0.46294820491E+02  0.57705857767E+02  0.47000000000E+01 0.  1.
<mgrwt>
<rscale>  0 0.93728824E+02</rscale>
<asrwt>0</asrwt>
<pdfrwt beam="1">  1        2 0.13700368E-01 0.94078111E+02</pdfrwt>
<pdfrwt beam="2">  1       -2 0.15452939E-01 0.94078111E+02</pdfrwt>
<totfact> 0.12770755E+04</totfact>
</mgrwt>
</event>
<event>
 8    1  0.9456677E-004  0.9467567E+02  0.7546771E-02  0.1294676E+00
         -1   -1    0    0    0  501 -0.00000000000E+00  0.00000000000E+00  0.84100534448E+02  0.84100534448E+02  0.00000000000E+00 0.  1.
          1   -1    0    0  501    0  0.00000000000E+00 -0.00000000000E+00 -0.18601209387E+03  0.18601209387E+03  0.00000000000E+00 0. -1.
         23    2    1    2    0    0 -0.17211790762E+02 -0.15525683862E+02  0.40890032184E+02  0.98777351805E+02  0.86877372756E+02 0.  0.
         23    2    1    2    0    0  0.17211790762E+02  0.15525683862E+02 -0.14280159161E+03  0.17133527651E+03  0.91794279843E+02 0.  0.
          5    1    4    4  502    0  0.15891707069E+01 -0.36013273851E+02 -0.33680693648E+02  0.49557648064E+02  0.47000000000E+01 0. -1.
         -5    1    3    3    0  503  0.20276642145E+02 -0.33045801472E+02 -0.18549123010E+01  0.39098566614E+02  0.47000000000E+01 0. -1.
          5    1    3    3  503    0 -0.37488432907E+02  0.17520117610E+02  0.42744944485E+02  0.59678785191E+02  0.47000000000E+01 0.  1.
         -5    1    4    4    0  502  0.15622620055E+02  0.51538957713E+02 -0.10912089796E+03  0.12177762845E+03  0.47000000000E+01 0.  1.
<mgrwt>
<rscale>  0 0.93462758E+02</rscale>
<asrwt>0</asrwt>
<pdfrwt beam="1">  1        1 0.28617245E-01 0.94675670E+02</pdfrwt>
<pdfrwt beam="2">  1       -1 0.12938544E-01 0.94675670E+02</pdfrwt>
<totfact> 0.60698858E+03</totfact>
</mgrwt>
</event>
<event>
 8    1  0.9456677E-004  0.1278536E+03  0.7546771E-02  0.1233628E+00
         -1   -1    0    0    0  501 -0.00000000000E+00  0.00000000000E+00  0.38100905096E+03  0.38100905096E+03  0.00000000000E+00 0.  1.
          1   -1    0    0  501    0  0.00000000000E+00 -0.00000000000E+00 -0.52968124606E+02  0.52968124606E+02  0.00000000000E+00 0. -1.
         23    2    1    2    0    0 -0.46011360753E+02  0.69640136682E+02  0.26583076686E+03  0.29179191404E+03  0.86658701436E+02 0.  0.
         23    2    1    2    0    0  0.46011360753E+02 -0.69640136682E+02  0.62210159492E+02  0.14218526152E+03  0.96849113031E+02 0.  0.
          5    1    3    3  502    0 -0.52312768340E+02  0.30065322013E+02  0.73187561518E+02  0.94968723694E+02  0.47000000000E+01 0. -1.
         -5    1    3    3    0  502  0.63014075865E+01  0.39574814669E+02  0.19264320535E+03  0.19682319035E+03  0.47000000000E+01 0.  1.
          5    1    4    4  503    0  0.30153942631E+02 -0.91870678454E+02  0.33897017292E+02  0.10256987666E+03  0.47000000000E+01 0. -1.
         -5    1    4    4    0  503  0.15857418122E+02  0.22230541772E+02  0.28313142200E+02  0.39615384868E+02  0.47000000000E+01 0.  1.
<mgrwt>
<rscale>  0 0.12592669E+03</rscale>
<asrwt>0</asrwt>
<pdfrwt beam="1">  1        1 0.81489425E-02 0.12785361E+03</pdfrwt>
<pdfrwt beam="2">  1       -1 0.58616775E-01 0.12785361E+03</pdfrwt>
<totfact> 0.24867393E+03</totfact>
</mgrwt>
</event>
<event>
 8    1  0.9456677E-004  0.1259518E+03  0.7546771E-02  0.1247085E+00
          1   -1    0    0  501    0  0.00000000000E+00  0.00000000000E+00  0.25141685778E+03  0.25141685778E+03  0.00000000000E+00 0. -1.
         -1   -1    0    0    0  501 -0.00000000000E+00 -0.00000000000E+00 -0.58545443923E+02  0.58545443923E+02  0.00000000000E+00 0.  1.
         23    2    1    2    0    0 -0.24964670099E+02 -0.19721435767E+02  0.14794502515E+03  0.17623779978E+03  0.90331953506E+02 0.  0.
         23    2    1    2    0    0  0.24964670099E+02  0.19721435767E+02  0.44926388705E+02  0.13372450192E+03  0.12186751917E+03 0.  0.
          5    1    3    3  502    0  0.15304719079E+02  0.24795206541E+02  0.80942226256E+02  0.86155502928E+02  0.47000000000E+01 0. -1.
         -5    1    4    4    0  503 -0.14233188763E+01 -0.38400685887E+02 -0.19121004508E+02  0.43178019021E+02  0.47000000000E+01 0.  1.
          5    1    4    4  503    0  0.26387988975E+02  0.58122121654E+02  0.64047393213E+02  0.90546482897E+02  0.47000000000E+01 0. -1.
         -5    1    3    3    0  502 -0.40269389178E+02 -0.44516642308E+02  0.67002798895E+02  0.90082296857E+02  0.47000000000E+01 0.  1.
<mgrwt>
<rscale>  0 0.11761468E+03</rscale>
<asrwt>0</asrwt>
<pdfrwt beam="1">  1        1 0.38679516E-01 0.12595182E+03</pdfrwt>
<pdfrwt beam="2">  1       -1 0.90069915E-02 0.12595182E+03</pdfrwt>
<totfact> 0.74277481E+03</totfact>
</mgrwt>
</event>
<event>
 8    1  0.9456677E-004  0.9252296E+02  0.7546771E-02  0.1297341E+00
          3   -1    0    0  501    0  0.00000000000E+00  0.00000000000E+00  0.20028766721E+03  0.20028766721E+03  0.00000000000E+00 0. -1.
         -3   -1    0    0    0  501 -0.00000000000E+00 -0.00000000000E+00 -0.47660092927E+02  0.47660092927E+02  0.00000000000E+00 0.  1.
         23    2    1    2    0    0  0.17729099082E+02  0.14355913185E+02  0.34661125711E+02  0.98025840914E+02  0.88810239577E+02 0.  0.
         23    2    1    2    0    0 -0.17729099082E+02 -0.14355913185E+02  0.11796644857E+03  0.14992191922E+03  0.89666524842E+02 0.  0.
          5    1    3    3  502    0  0.54205478171E+01  0.41604606518E+02  0.48877468449E+02  0.64586550799E+02  0.47000000000E+01 0. -1.
         -5    1    3    3    0  502  0.12308551264E+02 -0.27248693333E+02 -0.14216342737E+02  0.33439290115E+02  0.47000000000E+01 0.  1.
          5    1    4    4  503    0 -0.29253432405E+02  0.28446068933E+02  0.28582223950E+02  0.50039740917E+02  0.47000000000E+01 0. -1.
         -5    1    4    4    0  503  0.11524333323E+02 -0.42801982118E+02  0.89384224621E+02  0.99882178305E+02  0.47000000000E+01 0.  1.
<mgrwt>
<rscale>  0 0.92314861E+02</rscale>
<asrwt>0</asrwt>
<pdfrwt beam="1">  1        3 0.30813487E-01 0.92522964E+02</pdfrwt>
<pdfrwt beam="2">  1       -3 0.73323221E-02 0.92522964E+02</pdfrwt>
<totfact> 0.26662896E+03</totfact>
</mgrwt>
</event>
<event>
 8    1  0.9456677E-004  0.9645811E+02  0.7546771E-02  0.1289241E+00
         -1   -1    0    0    0  501 -0.00000000000E+00  0.00000000000E+00  0.24244979831E+03  0.24244979831E+03  0.00000000000E+00 0.  1.
          1   -1    0    0  501    0  0.00000000000E+00 -0.00000000000E+00 -0.37452821763E+02  0.37452821763E+02  0.00000000000E+00 0. -1.
         23    2    1    2    0    0 -0.13196244631E+02  0.13205234118E+02  0.10326860698E+03  0.13971407842E+03  0.92233938666E+02 0.  0.
         23    2    1    2    0    0  0.13196244631E+02 -0.13205234118E+02  0.10172836957E+03  0.14018854165E+03  0.94634280017E+02 0.  0.
          5    1    4    4  502    0  0.40220217035E+02 -0.63306111360E+01  0.10403430284E+03  0.11181667435E+03  0.47000000000E+01 0.  1.
         -5    1    3    3    0  503  0.55441005890E+01 -0.38117246593E+02  0.36070155309E+02  0.52979313351E+02  0.47000000000E+01 0.  1.
          5    1    3    3  503    0 -0.18740345220E+02  0.51322480711E+02  0.67198451667E+02  0.86734765070E+02  0.47000000000E+01 0. -1.
         -5    1    4    4    0  502 -0.27023972404E+02 -0.68746229824E+01 -0.23059332727E+01  0.28371867297E+02  0.47000000000E+01 0. -1.
<mgrwt>
<rscale>  0 0.95864190E+02</rscale>
<asrwt>0</asrwt>
<pdfrwt beam="1">  1        1 0.57619727E-02 0.96458105E+02</pdfrwt>
<pdfrwt beam="2">  1       -1 0.37299968E-01 0.96458105E+02</pdfrwt>
<totfact> 0.87380117E+03</totfact>
</mgrwt>
</event>
<event>
 8    1  0.9456677E-004  0.1317176E+03  0.7546771E-02  0.1225076E+00
          1   -1    0    0  501    0  0.00000000000E+00  0.00000000000E+00  0.17570859222E+02  0.17570859222E+02  0.00000000000E+00 0. -1.
         -1   -1    0    0    0  501 -0.00000000000E+00 -0.00000000000E+00 -0.99798473110E+03  0.99798473110E+03  0.00000000000E+00 0.  1.
         23    2    1    2    0    0  0.93725489826E+02  0.20195222763E+02 -0.54874154007E+03  0.56423472673E+03  0.89728672077E+02 0.  0.
         23    2    1    2    0    0 -0.93725489826E+02 -0.20195222763E+02 -0.43167233181E+03  0.45132086359E+03  0.90317248591E+02 0.  0.
          5    1    3    3  502    0 -0.11299944295E+02  0.22646227168E+02 -0.12678391698E+03  0.12937075385E+03  0.47000000000E+01 0. -1.
         -5    1    3    3    0  502  0.10502543412E+03 -0.24510044045E+01 -0.42195762309E+03  0.43486397289E+03  0.47000000000E+01 0.  1.
          5    1    4    4  503    0 -0.12446694584E+02  0.31674174262E+02 -0.92307198906E+02  0.98493058086E+02  0.47000000000E+01 0. -1.
         -5    1    4    4    0  503 -0.81278795242E+02 -0.51869397025E+02 -0.33936513291E+03  0.35282780551E+03  0.47000000000E+01 0.  1.
<mgrwt>
<rscale>  0 0.13161674E+03</rscale>
<asrwt>0</asrwt>
<pdfrwt beam="1">  1        1 0.27032089E-02 0.13171758E+03</pdfrwt>
<pdfrwt beam="2">  1       -1 0.15353613E+00 0.13171758E+03</pdfrwt>
<totfact> 0.13683940E+03</totfact>
</mgrwt>
</event>
<event>
 8    1  0.9456677E-004  0.9432699E+02  0.7546771E-02  0.1292741E+00
         -1   -1    0    0    0  501 -0.00000000000E+00  0.00000000000E+00  0.53347240823E+03  0.53347240823E+03  0.00000000000E+00 0.  1.
          1   -1    0    0  501    0  0.00000000000E+00 -0.00000000000E+00 -0.16699709497E+02  0.16699709497E+02  0.00000000000E+00 0. -1.
         23    2    1    2    0    0 -0.55101530375E+01 -0.26848110047E+02  0.27091768040E+03  0.28686925642E+03  0.90257398188E+02 0.  0.
         23    2    1    2    0    0  0.55101530375E+01  0.26848110047E+02  0.24585501833E+03  0.26330286130E+03  0.90180507494E+02 0.  0.
          5    1    4    4  502    0  0.26075955962E+02  0.34033074822E+01  0.15676904999E+02  0.30974075152E+02  0.47000000000E+01 0. -1.
         -5    1    4    4    0  502 -0.20565802925E+02  0.23444802565E+02  0.23017811333E+03  0.23232878615E+03  0.47000000000E+01 0.  1.
          5    1    3    3  503    0  0.39691779875E+02 -0.20113681117E+02  0.94345710577E+02  0.10441839235E+03  0.47000000000E+01 0. -1.
         -5    1    3    3    0  503 -0.45201932912E+02 -0.67344289303E+01  0.17657196982E+03  0.18245086407E+03  0.47000000000E+01 0.  1.
<mgrwt>
<rscale>  0 0.94308590E+02</rscale>
<asrwt>0</asrwt>
<pdfrwt beam="1">  1        1 0.25691865E-02 0.94326988E+02</pdfrwt>
<pdfrwt beam="2">  1       -1 0.82072665E-01 0.94326988E+02</pdfrwt>
<totfact> 0.60511337E+03</totfact>
</mgrwt>
</event>
<event>
 8    1  0.9456677E-004  0.9878375E+02  0.7546771E-02  0.1283967E+00
          1   -1    0    0  501    0  0.00000000000E+00  0.00000000000E+00  0.11255643071E+04  0.11255643071E+04  0.00000000000E+00 0. -1.
         -1   -1    0    0    0  501 -0.00000000000E+00 -0.00000000000E+00 -0.86373995487E+01  0.86373995487E+01  0.00000000000E+00 0.  1.
         23    2    1    2    0    0 -0.11255009036E+02  0.27270314672E+02  0.49085378996E+03  0.50069518961E+03  0.94275577349E+02 0.  0.
         23    2    1    2    0    0  0.11255009036E+02 -0.27270314672E+02  0.62607311755E+03  0.63350651700E+03  0.92155375727E+02 0.  0.
          5    1    4    4  502    0 -0.22353892793E+02 -0.47124895255E+02  0.25272902521E+03  0.25809785442E+03  0.47000000000E+01 0. -1.
         -5    1    4    4    0  502  0.33608901829E+02  0.19854580583E+02  0.37334409234E+03  0.37540866258E+03  0.47000000000E+01 0.  1.
          5    1    3    3  503    0 -0.14445725337E+01 -0.30177066022E+02  0.28694816076E+03  0.28857248495E+03  0.47000000000E+01 0. -1.
         -5    1    3    3    0  503 -0.98104365023E+01  0.57447380694E+02  0.20390562920E+03  0.21212270466E+03  0.47000000000E+01 0.  1.
<mgrwt>
<rscale>  0 0.98274485E+02</rscale>
<asrwt>0</asrwt>
<pdfrwt beam="1">  1        1 0.17316362E+00 0.98783753E+02</pdfrwt>
<pdfrwt beam="2">  1       -1 0.13288316E-02 0.98783753E+02</pdfrwt>
<totfact> 0.15123078E+04</totfact>
</mgrwt>
</event>
<event>
 8    1  0.9456677E-004  0.9203446E+02  0.7546771E-02  0.1298060E+00
          1   -1    0    0  501    0  0.00000000000E+00  0.00000000000E+00  0.33036022949E+03  0.33036022949E+03  0.00000000000E+00 0. -1.
         -1   -1    0    0    0  501 -0.00000000000E+00 -0.00000000000E+00 -0.25823833556E+02  0.25823833556E+02  0.00000000000E+00 0.  1.
         23    2    1    2    0    0 -0.98912780187E+01  0.85051596290E+01  0.16854432937E+03  0.19203523606E+03  0.91105245764E+02 0.  0.
         23    2    1    2    0    0  0.98912780187E+01 -0.85051596290E+01  0.13599206656E+03  0.16414882698E+03  0.90999011591E+02 0.  0.
          5    1    4    4  502    0 -0.22001495347E+02  0.30834553563E+02  0.79156036812E+02  0.87878345767E+02  0.47000000000E+01 0. -1.
         -5    1    3    3    0  503 -0.32307983731E+02 -0.22157975441E+02  0.13659464776E+03  0.14217935675E+03  0.47000000000E+01 0.  1.
          5    1    3    3  503    0  0.22416705712E+02  0.30663135070E+02  0.31949681608E+02  0.49855879314E+02  0.47000000000E+01 0. -1.
         -5    1    4    4    0  502  0.31892773366E+02 -0.39339713192E+02  0.56836029749E+02  0.76270481214E+02  0.47000000000E+01 0.  1.
<mgrwt>
<rscale>  0 0.92008154E+02</rscale>
<asrwt>0</asrwt>
<pdfrwt beam="1">  1        1 0.50824647E-01 0.92034455E+02</pdfrwt>
<pdfrwt beam="2">  1       -1 0.39728977E-02 0.92034455E+02</pdfrwt>
<totfact> 0.17382637E+04</totfact>
</mgrwt>
</event>
<event>
 8    1  0.9456677E-004  0.9712937E+02  0.7546771E-02  0.1286949E+00
          2   -1    0    0  501    0  0.00000000000E+00  0.00000000000E+00  0.64872476567E+03  0.64872476567E+03  0.00000000000E+00 0. -1.
         -2   -1    0    0    0  501 -0.00000000000E+00 -0.00000000000E+00 -0.15861095282E+02  0.15861095282E+02  0.00000000000E+00 0.  1.
         23    2    1    2    0    0 -0.15311320149E+02  0.27652030531E+02  0.41838290300E+03  0.42950945010E+03  0.91842489538E+02 0.  0.
         23    2    1    2    0    0  0.15311320149E+02 -0.27652030531E+02  0.21448076739E+03  0.23507641085E+03  0.90883706148E+02 0.  0.
          5    1    3    3  502    0  0.30635812609E+02  0.17513498310E+02  0.29885449045E+03  0.30096739375E+03  0.47000000000E+01 0. -1.
         -5    1    3    3    0  502 -0.45947132758E+02  0.10138532221E+02  0.11952841255E+03  0.12854205635E+03  0.47000000000E+01 0.  1.
          5    1    4    4  503    0  0.15406943522E+02 -0.47785508759E+02  0.20705667985E+03  0.21310886285E+03  0.47000000000E+01 0. -1.
         -5    1    4    4    0  503 -0.95623373091E-01  0.20133478229E+02  0.74240875402E+01  0.21967548002E+02  0.47000000000E+01 0.  1.
<mgrwt>
<rscale>  0 0.96902049E+02</rscale>
<asrwt>0</asrwt>
<pdfrwt beam="1">  1        2 0.99803789E-01 0.97129368E+02</pdfrwt>
<pdfrwt beam="2">  1       -2 0.24401690E-02 0.97129368E+02</pdfrwt>
<totfact> 0.24180275E+04</totfact>
</mgrwt>
</event>
<event>
 8    1  0.9456677E-004  0.9794848E+02  0.7546771E-02  0.1284734E+00
          1   -1    0    0  501    0  0.00000000000E+00  0.00000000000E+00  0.11694684131E+03  0.11694684131E+03  0.00000000000E+00 0. -1.
         -1   -1    0    0    0  501 -0.00000000000E+00 -0.00000000000E+00 -0.82699956087E+02  0.82699956087E+02  0.00000000000E+00 0.  1.
         23    2    1    2    0    0 -0.34629334829E+02 -0.11843679188E+02  0.75458234419E+01  0.98238710147E+02  0.90853955074E+02 0.  0.
         23    2    1    2    0    0  0.34629334829E+02  0.11843679188E+02  0.26701061780E+02  0.10140808725E+03  0.90725905297E+02 0.  0.
          5    1    4    4  502    0  0.29224404271E+02 -0.21792440315E+02  0.48376826603E+02  0.60756757748E+02  0.47000000000E+01 0. -1.
         -5    1    4    4    0  502  0.54049305580E+01  0.33636119503E+02 -0.21675764823E+02  0.40651329502E+02  0.47000000000E+01 0.  1.
          5    1    3    3  503    0 -0.13784291559E+02 -0.51024070830E+02  0.54640031911E+00  0.53064593197E+02  0.47000000000E+01 0. -1.
         -5    1    3    3    0  503 -0.20845043270E+02  0.39180391642E+02  0.69994231228E+01  0.45174116950E+02  0.47000000000E+01 0.  1.
<mgrwt>
<rscale>  0 0.97918776E+02</rscale>
<asrwt>0</asrwt>
<pdfrwt beam="1">  1        1 0.17991822E-01 0.97948480E+02</pdfrwt>
<pdfrwt beam="2">  1       -1 0.12723070E-01 0.97948480E+02</pdfrwt>
<totfact> 0.11151167E+04</totfact>
</mgrwt>
</event>
<event>
 8    1  0.9456677E-004  0.1707776E+03  0.7546771E-02  0.1177414E+00
         -2   -1    0    0    0  501 -0.00000000000E+00  0.00000000000E+00  0.93015967594E+03  0.93015967594E+03  0.00000000000E+00 0.  1.
          2   -1    0    0  501    0  0.00000000000E+00 -0.00000000000E+00 -0.38345231359E+02  0.38345231359E+02  0.00000000000E+00 0. -1.
         23    2    1    2    0    0  0.13912552941E+03 -0.35188674850E+02  0.65805264414E+03  0.67985166398E+03  0.92578867905E+02 0.  0.
         23    2    1    2    0    0 -0.13912552941E+03  0.35188674850E+02  0.23376180044E+03  0.28865324332E+03  0.89899720602E+02 0.  0.
          5    1    4    4  502    0 -0.12180958065E+03  0.60920595590E+02  0.17257321762E+03  0.21989201519E+03  0.47000000000E+01 0. -1.
         -5    1    3    3    0  503  0.12910466339E+03 -0.73382168383E+01  0.60711613286E+03  0.62075273041E+03  0.47000000000E+01 0.  1.
          5    1    3    3  503    0  0.10020866014E+02 -0.27850458011E+02  0.50936511282E+02  0.59098933567E+02  0.47000000000E+01 0. -1.
         -5    1    4    4    0  502 -0.17315948756E+02 -0.25731920740E+02  0.61188582821E+02  0.68761228131E+02  0.47000000000E+01 0.  1.
<mgrwt>
<rscale>  0 0.17041715E+03</rscale>
<asrwt>0</asrwt>
<pdfrwt beam="1">  1        2 0.58992671E-02 0.17077764E+03</pdfrwt>
<pdfrwt beam="2">  1       -2 0.14310147E+00 0.17077764E+03</pdfrwt>
<totfact> 0.44726560E+02</totfact>
</mgrwt>
</event>
<event>
 8    1  0.9456677E-004  0.1009575E+03  0.7546771E-02  0.1281864E+00
         -2   -1    0    0    0  501 -0.00000000000E+00  0.00000000000E+00  0.17806948267E+03  0.17806948267E+03  0.00000000000E+00 0.  1.
          2   -1    0    0  501    0  0.00000000000E+00 -0.00000000000E+00 -0.53813211819E+02  0.53813211819E+02  0.00000000000E+00 0. -1.
         23    2    1    2    0    0 -0.28801884654E+02 -0.18035069069E+02  0.68246831174E+02  0.11642931527E+03  0.87996268177E+02 0.  0.
         23    2    1    2    0    0  0.28801884654E+02  0.18035069069E+02  0.56009439680E+02  0.11545337922E+03  0.95066361899E+02 0.  0.
          5    1    3    3  502    0  0.15640958297E+02 -0.40954796209E+02  0.30913203619E+02  0.53848408212E+02  0.47000000000E+01 0. -1.
         -5    1    3    3    0  502 -0.44442842951E+02  0.22919727141E+02  0.37333627555E+02  0.62580907058E+02  0.47000000000E+01 0.  1.
          5    1    4    4  503    0  0.21664343209E+02 -0.12215442373E+02 -0.20607106700E+02  0.32638989654E+02  0.47000000000E+01 0. -1.
         -5    1    4    4    0  503  0.71375414453E+01  0.30250511442E+02  0.76616546380E+02  0.82814389569E+02  0.47000000000E+01 0.  1.
<mgrwt>
<rscale>  0 0.99258242E+02</rscale>
<asrwt>0</asrwt>
<pdfrwt beam="1">  1        2 0.82789557E-02 0.10095754E+03</pdfrwt>
<pdfrwt beam="2">  1       -2 0.27395305E-01 0.10095754E+03</pdfrwt>
<totfact> 0.89815847E+03</totfact>
</mgrwt>
</event>
<event>
 8    1  0.9456677E-004  0.1367049E+03  0.7546771E-02  0.1221125E+00
         -1   -1    0    0    0  501 -0.00000000000E+00  0.00000000000E+00  0.52206389967E+02  0.52206389967E+02  0.00000000000E+00 0.  1.
          1   -1    0    0  501    0  0.00000000000E+00 -0.00000000000E+00 -0.41763556241E+03  0.41763556241E+03  0.00000000000E+00 0. -1.
         23    2    1    2    0    0 -0.62153469607E+02 -0.33845096519E+02 -0.82972372658E+02  0.15991447590E+03  0.11696016688E+03 0.  0.
         23    2    1    2    0    0  0.62153469607E+02  0.33845096519E+02 -0.28245679978E+03  0.30992747647E+03  0.10613506766E+03 0.  0.
          5    1    3    3  502    0 -0.75335997391E+02  0.97659589209E+01 -0.14414334948E+02  0.77464504829E+02  0.47000000000E+01 0. -1.
         -5    1    3    3    0  502  0.13182527783E+02 -0.43611055439E+02 -0.68558037710E+02  0.82449971073E+02  0.47000000000E+01 0.  1.
          5    1    4    4  503    0 -0.16711098818E+02  0.35496757768E+02 -0.15503775315E+03  0.15999398594E+03  0.47000000000E+01 0. -1.
         -5    1    4    4    0  503  0.78864568426E+02 -0.16516612490E+01 -0.12741904663E+03  0.14993349053E+03  0.47000000000E+01 0.  1.
<mgrwt>
<rscale>  0 0.13436066E+03</rscale>
<asrwt>0</asrwt>
<pdfrwt beam="1">  1        1 0.64251628E-01 0.13670488E+03</pdfrwt>
<pdfrwt beam="2">  1       -1 0.80317520E-02 0.13670488E+03</pdfrwt>
<totfact> 0.47233986E+03</totfact>
</mgrwt>
</event>
<event>
 8    1  0.9456677E-004  0.1058269E+03  0.7546771E-02  0.1270891E+00
          1   -1    0    0  501    0  0.00000000000E+00  0.00000000000E+00  0.16098024848E+03  0.16098024848E+03  0.00000000000E+00 0. -1.
         -1   -1    0    0    0  501 -0.00000000000E+00 -0.00000000000E+00 -0.66461685509E+02  0.66461685509E+02  0.00000000000E+00 0.  1.
         23    2    1    2    0    0  0.35192299929E+02 -0.34074099158E+02  0.47510338189E+02  0.11600247767E+03  0.93807251229E+02 0.  0.
         23    2    1    2    0    0 -0.35192299929E+02  0.34074099158E+02  0.47008224781E+02  0.11143945632E+03  0.88371019114E+02 0.  0.
          5    1    3    3  502    0  0.29994325558E+02 -0.64799750830E+02  0.44676127871E+02  0.84360616847E+02  0.47000000000E+01 0. -1.
         -5    1    3    3    0  502  0.51979743713E+01  0.30725651672E+02  0.28342103173E+01  0.31641860823E+02  0.47000000000E+01 0.  1.
          5    1    4    4  503    0  0.24915759980E+02  0.26168730584E+02  0.33680927743E+01  0.36592780773E+02  0.47000000000E+01 0. -1.
         -5    1    4    4    0  503 -0.60108059909E+02  0.79053685739E+01  0.43640132006E+02  0.74846675543E+02  0.47000000000E+01 0.  1.
<mgrwt>
<rscale>  0 0.10460923E+03</rscale>
<asrwt>0</asrwt>
<pdfrwt beam="1">  1        1 0.24766192E-01 0.10582695E+03</pdfrwt>
<pdfrwt beam="2">  1       -1 0.10224875E-01 0.10582695E+03</pdfrwt>
<totfact> 0.10494498E+04</totfact>
</mgrwt>
</event>
<event>
 8    1  0.9456677E-004  0.1050779E+03  0.7546771E-02  0.1271783E+00
          4   -1    0    0  501    0  0.00000000000E+00  0.00000000000E+00  0.12618096293E+03  0.12618096293E+03  0.00000000000E+00 0. -1.
         -4   -1    0    0    0  501 -0.00000000000E+00 -0.00000000000E+00 -0.10970702154E+03  0.10970702154E+03  0.00000000000E+00 0.  1.
         23    2    1    2    0    0  0.31419245097E+02 -0.42826365214E+02 -0.48165427212E+02  0.11559097012E+03  0.90664753207E+02 0.  0.
         23    2    1    2    0    0 -0.31419245097E+02  0.42826365214E+02  0.64639368610E+02  0.12029701435E+03  0.86439904954E+02 0.  0.
          5    1    3    3  502    0 -0.74679015459E+01 -0.58199084204E+02 -0.43625869364E+02  0.73268065577E+02  0.47000000000E+01 0. -1.
         -5    1    3    3    0  502  0.38887146643E+02  0.15372718990E+02 -0.45395578481E+01  0.42322904540E+02  0.47000000000E+01 0.  1.
          5    1    4    4  503    0 -0.31361516175E+02  0.67475267601E+02  0.57661650410E+02  0.94251856017E+02  0.47000000000E+01 0. -1.
         -5    1    4    4    0  503 -0.57728921927E-01 -0.24648902387E+02  0.69777181996E+01  0.26045158337E+02  0.47000000000E+01 0.  1.
<mgrwt>
<rscale>  0 0.10416023E+03</rscale>
<asrwt>0</asrwt>
<pdfrwt beam="1">  1        4 0.19412456E-01 0.10507789E+03</pdfrwt>
<pdfrwt beam="2">  1       -4 0.16878003E-01 0.10507789E+03</pdfrwt>
<totfact> 0.11341827E+03</totfact>
</mgrwt>
</event>
<event>
 8    1  0.9456677E-004  0.9245674E+02  0.7546771E-02  0.1297149E+00
          1   -1    0    0  501    0  0.00000000000E+00  0.00000000000E+00  0.30995593883E+03  0.30995593883E+03  0.00000000000E+00 0. -1.
         -1   -1    0    0    0  501 -0.00000000000E+00 -0.00000000000E+00 -0.28075549066E+02  0.28075549066E+02  0.00000000000E+00 0.  1.
         23    2    1    2    0    0  0.81100013430E+01 -0.89980370813E+01  0.16516324714E+03  0.18928060360E+03  0.91659761634E+02 0.  0.
         23    2    1    2    0    0 -0.81100013430E+01  0.89980370813E+01  0.11671714263E+03  0.14875088429E+03  0.91417708359E+02 0.  0.
          5    1    3    3  502    0 -0.94739388138E+01  0.36106283533E+02  0.10722007331E+03  0.11362945634E+03  0.47000000000E+01 0. -1.
         -5    1    4    4    0  503 -0.43626492017E+02  0.18263504824E+01  0.26201246687E+02  0.51139042714E+02  0.47000000000E+01 0.  1.
          5    1    4    4  503    0  0.35516490674E+02  0.71716865989E+01  0.90515895939E+02  0.97611841577E+02  0.47000000000E+01 0. -1.
         -5    1    3    3    0  502  0.17583940157E+02 -0.45104320614E+02  0.57943173830E+02  0.75651147269E+02  0.47000000000E+01 0.  1.
<mgrwt>
<rscale>  0 0.92396691E+02</rscale>
<asrwt>0</asrwt>
<pdfrwt beam="1">  1        1 0.47685527E-01 0.92456740E+02</pdfrwt>
<pdfrwt beam="2">  1       -1 0.43193154E-02 0.92456740E+02</pdfrwt>
<totfact> 0.16649983E+04</totfact>
</mgrwt>
</event>
<event>
 8    1  0.9456677E-004  0.9261407E+02  0.7546771E-02  0.1301692E+00
         -2   -1    0    0    0  501 -0.00000000000E+00  0.00000000000E+00  0.11132461961E+02  0.11132461961E+02  0.00000000000E+00 0.  1.
          2   -1    0    0  501    0  0.00000000000E+00 -0.00000000000E+00 -0.75924400036E+03  0.75924400036E+03  0.00000000000E+00 0. -1.
         23    2    1    2    0    0 -0.10465002644E+02 -0.33511630634E+01 -0.49452594043E+03  0.50312351456E+03  0.91959874788E+02 0.  0.
         23    2    1    2    0    0  0.10465002644E+02  0.33511630634E+01 -0.25358559797E+03  0.26725294776E+03  0.83652471662E+02 0.  0.
          5    1    4    4  502    0 -0.19585110768E+01  0.25096379397E+02 -0.23325128836E+03  0.23465275951E+03  0.47000000000E+01 0. -1.
         -5    1    3    3    0  503  0.40774619201E+02  0.85545525438E-01 -0.21910193222E+03  0.22291326473E+03  0.47000000000E+01 0.  1.
          5    1    3    3  503    0 -0.51239621845E+02 -0.34367085888E+01 -0.27542400820E+03  0.28021024983E+03  0.47000000000E+01 0. -1.
         -5    1    4    4    0  502  0.12423513721E+02 -0.21745216334E+02 -0.20334309607E+02  0.32600188247E+02  0.47000000000E+01 0.  1.
<mgrwt>
<rscale>  0 0.90480739E+02</rscale>
<asrwt>0</asrwt>
<pdfrwt beam="1">  1        2 0.11680677E+00 0.92614066E+02</pdfrwt>
<pdfrwt beam="2">  1       -2 0.17126865E-02 0.92614066E+02</pdfrwt>
<totfact> 0.33314879E+04</totfact>
</mgrwt>
</event>
<event>
 8    1  0.9456677E-004  0.1032929E+03  0.7546771E-02  0.1274416E+00
          1   -1    0    0  501    0  0.00000000000E+00  0.00000000000E+00  0.56634854994E+03  0.56634854994E+03  0.00000000000E+00 0. -1.
         -1   -1    0    0    0  501 -0.00000000000E+00 -0.00000000000E+00 -0.22763417420E+02  0.22763417420E+02  0.00000000000E+00 0.  1.
         23    2    1    2    0    0 -0.45462539974E+02  0.14444383072E+02  0.40088919645E+03  0.41398257074E+03  0.91618438652E+02 0.  0.
         23    2    1    2    0    0  0.45462539974E+02 -0.14444383072E+02  0.14269593607E+03  0.17512939662E+03  0.89625290220E+02 0.  0.
          5    1    4    4  502    0  0.11294005565E+02  0.29616433501E+02  0.14336890798E+02  0.35104474541E+02  0.47000000000E+01 0. -1.
         -5    1    4    4    0  502  0.34168534410E+02 -0.44060816573E+02  0.12835904527E+03  0.14002492208E+03  0.47000000000E+01 0.  1.
          5    1    3    3  503    0 -0.56800432821E+02 -0.12367645385E+02  0.35268435411E+03  0.35747390318E+03  0.47000000000E+01 0. -1.
         -5    1    3    3    0  503  0.11337892847E+02  0.26812028456E+02  0.48204842345E+02  0.56508667562E+02  0.47000000000E+01 0.  1.
<mgrwt>
<rscale>  0 0.10284911E+03</rscale>
<asrwt>0</asrwt>
<pdfrwt beam="1">  1        1 0.87130536E-01 0.10329289E+03</pdfrwt>
<pdfrwt beam="2">  1       -1 0.35020646E-02 0.10329289E+03</pdfrwt>
<totfact> 0.10670796E+04</totfact>
</mgrwt>
</event>
<event>
 8    1  0.9456677E-004  0.9398502E+02  0.7546771E-02  0.1295455E+00
          2   -1    0    0  501    0  0.00000000000E+00  0.00000000000E+00  0.30348317633E+03  0.30348317633E+03  0.00000000000E+00 0. -1.
         -2   -1    0    0    0  501 -0.00000000000E+00 -0.00000000000E+00 -0.44743995621E+02  0.44743995621E+02  0.00000000000E+00 0.  1.
         23    2    1    2    0    0  0.13397582049E+02  0.12612802607E+01  0.24567700531E+02  0.97142969389E+02  0.93016657431E+02 0.  0.
         23    2    1    2    0    0 -0.13397582049E+02 -0.12612802607E+01  0.23417148018E+03  0.25108420256E+03  0.89587435585E+02 0.  0.
          5    1    4    4  502    0  0.93777068320E+01 -0.38785848755E+02  0.15815102323E+03  0.16317511942E+03  0.47000000000E+01 0. -1.
         -5    1    3    3    0  503 -0.37120405088E+02 -0.22417133822E+01  0.27050914354E+02  0.46225444511E+02  0.47000000000E+01 0.  1.
          5    1    3    3  503    0  0.50517987137E+02  0.35029936429E+01 -0.24832138229E+01  0.50917524878E+02  0.47000000000E+01 0. -1.
         -5    1    4    4    0  502 -0.22775288881E+02  0.37524568494E+02  0.76020456949E+02  0.87909083143E+02  0.47000000000E+01 0.  1.
<mgrwt>
<rscale>  0 0.93125155E+02</rscale>
<asrwt>0</asrwt>
<pdfrwt beam="1">  1        2 0.46689718E-01 0.93985023E+02</pdfrwt>
<pdfrwt beam="2">  1       -2 0.68836918E-02 0.93985023E+02</pdfrwt>
<totfact> 0.11806388E+04</totfact>
</mgrwt>
</event>
<event>
 8    1  0.9456677E-004  0.1096579E+03  0.7546771E-02  0.1265061E+00
         -1   -1    0    0    0  501 -0.00000000000E+00  0.00000000000E+00  0.46703038907E+02  0.46703038907E+02  0.00000000000E+00 0.  1.
          1   -1    0    0  501    0  0.00000000000E+00 -0.00000000000E+00 -0.37411675653E+03  0.37411675653E+03  0.00000000000E+00 0. -1.
         23    2    1    2    0    0  0.35770619270E+02  0.51977196282E+02 -0.28610326902E+03  0.30363866819E+03  0.79750825321E+02 0.  0.
         23    2    1    2    0    0 -0.35770619270E+02 -0.51977196282E+02 -0.41310448605E+02  0.11718112725E+03  0.89686661680E+02 0.  0.
          5    1    3    3  502    0  0.37248163341E+02  0.28870781465E+02 -0.27206569347E+03  0.27615716406E+03  0.47000000000E+01 0. -1.
         -5    1    3    3    0  502 -0.14775440710E+01  0.23106414817E+02 -0.14037575548E+02  0.27481504133E+02  0.47000000000E+01 0.  1.
          5    1    4    4  503    0  0.12762857982E+02 -0.46733782668E+02 -0.47183947392E+02  0.67789024759E+02  0.47000000000E+01 0. -1.
         -5    1    4    4    0  503 -0.48533477252E+02 -0.52434136143E+01  0.58734987870E+01  0.49392102491E+02  0.47000000000E+01 0.  1.
<mgrwt>
<rscale>  0 0.10760991E+03</rscale>
<asrwt>0</asrwt>
<pdfrwt beam="1">  1        1 0.57556425E-01 0.10965794E+03</pdfrwt>
<pdfrwt beam="2">  1       -1 0.71850828E-02 0.10965794E+03</pdfrwt>
<totfact> 0.63261035E+03</totfact>
</mgrwt>
</event>
<event>
 8    1  0.9456677E-004  0.1071562E+03  0.7546771E-02  0.1273351E+00
         -4   -1    0    0    0  501 -0.00000000000E+00  0.00000000000E+00  0.61253686610E+02  0.61253686610E+02  0.00000000000E+00 0.  1.
          4   -1    0    0  501    0  0.00000000000E+00 -0.00000000000E+00 -0.16736644674E+03  0.16736644674E+03  0.00000000000E+00 0. -1.
         23    2    1    2    0    0 -0.22927960332E+02  0.77682013941E+01 -0.38811074474E+02  0.11396816562E+03  0.10438585611E+03 0.  0.
         23    2    1    2    0    0  0.22927960332E+02 -0.77682013941E+01 -0.67301685656E+02  0.11465196773E+03  0.89607591720E+02 0.  0.
          5    1    4    4  502    0 -0.30669546853E+02  0.33416288390E+01 -0.50296919274E+01  0.31609735658E+02  0.47000000000E+01 0. -1.
         -5    1    3    3    0  503  0.26604489523E+02  0.22315488651E+02  0.16004868871E+02  0.38523054449E+02  0.47000000000E+01 0.  1.
          5    1    3    3  503    0 -0.49532449855E+02 -0.14547287257E+02 -0.54815943345E+02  0.75445111173E+02  0.47000000000E+01 0. -1.
         -5    1    4    4    0  502  0.53597507185E+02 -0.11109830233E+02 -0.62271993729E+02  0.83042232070E+02  0.47000000000E+01 0.  1.
<mgrwt>
<rscale>  0 0.10337685E+03</rscale>
<asrwt>0</asrwt>
<pdfrwt beam="1">  1        4 0.25748684E-01 0.10715616E+03</pdfrwt>
<pdfrwt beam="2">  1       -4 0.94236441E-02 0.10715616E+03</pdfrwt>
<totfact> 0.18503190E+03</totfact>
</mgrwt>
</event>
<event>
 8    1  0.9456677E-004  0.1087297E+03  0.7546771E-02  0.1264034E+00
          1   -1    0    0  501    0  0.00000000000E+00  0.00000000000E+00  0.61368400082E+02  0.61368400082E+02  0.00000000000E+00 0. -1.
         -1   -1    0    0    0  501 -0.00000000000E+00 -0.00000000000E+00 -0.25287342811E+03  0.25287342811E+03  0.00000000000E+00 0.  1.
         23    2    1    2    0    0  0.45127710595E+02 -0.42391649733E+02 -0.17573231090E+03  0.20664946141E+03  0.89378926904E+02 0.  0.
         23    2    1    2    0    0 -0.45127710595E+02  0.42391649733E+02 -0.15772717127E+02  0.10759236679E+03  0.86566601842E+02 0.  0.
          5    1    4    4  502    0 -0.67485294497E+02  0.40824708712E+02  0.13085437607E+01  0.79023566748E+02  0.47000000000E+01 0. -1.
         -5    1    4    4    0  502  0.22357583902E+02  0.15669410213E+01 -0.17081260888E+02  0.28568800039E+02  0.47000000000E+01 0.  1.
          5    1    3    3  503    0 -0.79293186436E+01  0.21034658303E+02 -0.20881391151E+02  0.31039546396E+02  0.47000000000E+01 0. -1.
         -5    1    3    3    0  503  0.53057029239E+02 -0.63426308036E+02 -0.15485091975E+03  0.17560991501E+03  0.47000000000E+01 0.  1.
<mgrwt>
<rscale>  0 0.10815018E+03</rscale>
<asrwt>0</asrwt>
<pdfrwt beam="1">  1        1 0.94412921E-02 0.10872973E+03</pdfrwt>
<pdfrwt beam="2">  1       -1 0.38903605E-01 0.10872973E+03</pdfrwt>
<totfact> 0.42450444E+03</totfact>
</mgrwt>
</event>
<event>
 8    1  0.9456677E-004  0.9927927E+02  0.7546771E-02  0.1284130E+00
          3   -1    0    0  501    0  0.00000000000E+00  0.00000000000E+00  0.15007934710E+03  0.15007934710E+03  0.00000000000E+00 0. -1.
         -3   -1    0    0    0  501 -0.00000000000E+00 -0.00000000000E+00 -0.97015612767E+02  0.97015612767E+02  0.00000000000E+00 0.  1.
         23    2    1    2    0    0  0.11842986089E+02  0.22223374405E+02 -0.46352967826E+02  0.10956720150E+03  0.96032491004E+02 0.  0.
         23    2    1    2    0    0 -0.11842986089E+02 -0.22223374405E+02  0.99416702163E+02  0.13752775837E+03  0.91630065835E+02 0.  0.
          5    1    3    3  502    0  0.29836406492E+02 -0.21959363292E+02 -0.48940336636E+02  0.61560306519E+02  0.47000000000E+01 0. -1.
         -5    1    3    3    0  502 -0.17993420403E+02  0.44182737697E+02  0.25873688104E+01  0.48006894980E+02  0.47000000000E+01 0.  1.
          5    1    4    4  503    0  0.29546373733E+02 -0.39731125821E+02  0.55338651257E+02  0.74404347203E+02  0.47000000000E+01 0. -1.
         -5    1    4    4    0  503 -0.41389359822E+02  0.17507751416E+02  0.44078050906E+02  0.63123411171E+02  0.47000000000E+01 0.  1.
<mgrwt>
<rscale>  0 0.98198789E+02</rscale>
<asrwt>0</asrwt>
<pdfrwt beam="1">  1        3 0.23089130E-01 0.99279273E+02</pdfrwt>
<pdfrwt beam="2">  1       -3 0.14925479E-01 0.99279273E+02</pdfrwt>
<totfact> 0.14128125E+03</totfact>
</mgrwt>
</event>
<event>
 8    1  0.9456677E-004  0.1162787E+03  0.7546771E-02  0.1249498E+00
         -1   -1    0    0    0  501 -0.00000000000E+00  0.00000000000E+00  0.16681938286E+02  0.16681938286E+02  0.00000000000E+00 0.  1.
          1   -1    0    0  501    0  0.00000000000E+00 -0.00000000000E+00 -0.81263626355E+03  0.81263626355E+03  0.00000000000E+00 0. -1.
         23    2    1    2    0    0 -0.60699805053E+02 -0.37826000113E+02 -0.36842902252E+03  0.38634270982E+03  0.91681362193E+02 0.  0.
         23    2    1    2    0    0  0.60699805053E+02  0.37826000113E+02 -0.42752530274E+03  0.44297549202E+03  0.91291453206E+02 0.  0.
          5    1    4    4  502    0  0.38799495781E+02  0.51879579656E+02 -0.39830666854E+03  0.40356806596E+03  0.47000000000E+01 0. -1.
         -5    1    4    4    0  502  0.21900309272E+02 -0.14053579543E+02 -0.29218634201E+02  0.39407426061E+02  0.47000000000E+01 0.  1.
          5    1    3    3  503    0  0.13928569375E+02  0.17346592276E+02 -0.57800898944E+02  0.62112343597E+02  0.47000000000E+01 0. -1.
         -5    1    3    3    0  503 -0.74628374429E+02 -0.55172592389E+02 -0.31062812358E+03  0.32423036622E+03  0.47000000000E+01 0.  1.
<mgrwt>
<rscale>  0 0.11620187E+03</rscale>
<asrwt>0</asrwt>
<pdfrwt beam="1">  1        1 0.12502096E+00 0.11627874E+03</pdfrwt>
<pdfrwt beam="2">  1       -1 0.25664521E-02 0.11627874E+03</pdfrwt>
<totfact> 0.10156346E+04</totfact>
</mgrwt>
</event>
<event>
 8    1  0.9456677E-004  0.1111921E+03  0.7546771E-02  0.1259593E+00
          2   -1    0    0  501    0  0.00000000000E+00  0.00000000000E+00  0.92446336564E+03  0.92446336564E+03  0.00000000000E+00 0. -1.
         -2   -1    0    0    0  501 -0.00000000000E+00 -0.00000000000E+00 -0.17926477957E+02  0.17926477957E+02  0.00000000000E+00 0.  1.
         23    2    1    2    0    0 -0.26275400563E+02 -0.59512519431E+02  0.20382215229E+03  0.23093240775E+03  0.86914731437E+02 0.  0.
         23    2    1    2    0    0  0.26275400563E+02  0.59512519431E+02  0.70271473539E+03  0.71145743585E+03  0.90175091025E+02 0.  0.
          5    1    4    4  502    0  0.52733425052E+02  0.48432320079E+02  0.61218572802E+03  0.61637647533E+03  0.47000000000E+01 0. -1.
         -5    1    4    4    0  502 -0.26458024489E+02  0.11080199353E+02  0.90529007370E+02  0.95080960518E+02  0.47000000000E+01 0.  1.
          5    1    3    3  503    0  0.16914446231E+02 -0.23572630454E+02  0.15045005344E+03  0.15329408331E+03  0.47000000000E+01 0. -1.
         -5    1    3    3    0  503 -0.43189846794E+02 -0.35939888978E+02  0.53372098847E+02  0.77638324435E+02  0.47000000000E+01 0.  1.
<mgrwt>
<rscale>  0 0.11052937E+03</rscale>
<asrwt>0</asrwt>
<pdfrwt beam="1">  1        2 0.14222510E+00 0.11119210E+03</pdfrwt>
<pdfrwt beam="2">  1       -2 0.27579204E-02 0.11119210E+03</pdfrwt>
<totfact> 0.13295811E+04</totfact>
</mgrwt>
</event>
<event>
 8    1  0.9456677E-004  0.9868985E+02  0.7546771E-02  0.1285062E+00
         -1   -1    0    0    0  501 -0.00000000000E+00  0.00000000000E+00  0.17300121756E+02  0.17300121756E+02  0.00000000000E+00 0.  1.
          1   -1    0    0  501    0  0.00000000000E+00 -0.00000000000E+00 -0.54471859918E+03  0.54471859918E+03  0.00000000000E+00 0. -1.
         23    2    1    2    0    0  0.14156833832E+02  0.23553893101E+02 -0.25037681555E+03  0.26912494697E+03  0.94786525916E+02 0.  0.
         23    2    1    2    0    0 -0.14156833832E+02 -0.23553893101E+02 -0.27704166188E+03  0.29289377396E+03  0.90991640203E+02 0.  0.
          5    1    4    4  502    0  0.31770022932E+02  0.14032759550E+02 -0.11707978271E+03  0.12221300347E+03  0.47000000000E+01 0. -1.
         -5    1    3    3    0  503 -0.39523252417E+02  0.18682420533E+02 -0.12734617353E+03  0.13472289424E+03  0.47000000000E+01 0.  1.
          5    1    3    3  503    0  0.53680086249E+02  0.48714725684E+01 -0.12303064202E+03  0.13440205274E+03  0.47000000000E+01 0. -1.
         -5    1    4    4    0  502 -0.45926856764E+02 -0.37586652651E+02 -0.15996187917E+03  0.17068077050E+03  0.47000000000E+01 0.  1.
<mgrwt>
<rscale>  0 0.97767268E+02</rscale>
<asrwt>0</asrwt>
<pdfrwt beam="1">  1        1 0.83802863E-01 0.98689854E+02</pdfrwt>
<pdfrwt beam="2">  1       -1 0.26615572E-02 0.98689854E+02</pdfrwt>
<totfact> 0.16637904E+04</totfact>
</mgrwt>
</event>
<event>
 8    1  0.9456677E-004  0.1769708E+03  0.7546771E-02  0.1171180E+00
         -2   -1    0    0    0  501 -0.00000000000E+00  0.00000000000E+00  0.34614415258E+02  0.34614415258E+02  0.00000000000E+00 0.  1.
          2   -1    0    0  501    0  0.00000000000E+00 -0.00000000000E+00 -0.10149227337E+04  0.10149227337E+04  0.00000000000E+00 0. -1.
         23    2    1    2    0    0 -0.15233489307E+01  0.15174062991E+03 -0.30871863180E+03  0.35502195285E+03  0.87782993958E+02 0.  0.
         23    2    1    2    0    0  0.15233489307E+01 -0.15174062991E+03 -0.67158968661E+03  0.69451519607E+03  0.91055538327E+02 0.  0.
          5    1    3    3  502    0  0.37956173757E+02  0.37041437999E+02 -0.80278075675E+02  0.96329635572E+02  0.47000000000E+01 0. -1.
         -5    1    3    3    0  502 -0.39479522688E+02  0.11469919191E+03 -0.22844055612E+03  0.25869231728E+03  0.47000000000E+01 0.  1.
          5    1    4    4  503    0 -0.36913952929E+02 -0.11466700617E+03 -0.40377402593E+03  0.42138665883E+03  0.47000000000E+01 0. -1.
         -5    1    4    4    0  503  0.38437301859E+02 -0.37073623740E+02 -0.26781566068E+03  0.27312853725E+03  0.47000000000E+01 0.  1.
<mgrwt>
<rscale>  0 0.17655396E+03</rscale>
<asrwt>0</asrwt>
<pdfrwt beam="1">  1        2 0.15614198E+00 0.17697076E+03</pdfrwt>
<pdfrwt beam="2">  1       -2 0.53252940E-02 0.17697076E+03</pdfrwt>
<totfact> 0.45099858E+03</totfact>
</mgrwt>
</event>
<event>
 8    1  0.9456677E-004  0.1031777E+03  0.7546771E-02  0.1275081E+00
          2   -1    0    0  501    0  0.00000000000E+00  0.00000000000E+00  0.81481619607E+02  0.81481619607E+02  0.00000000000E+00 0. -1.
         -2   -1    0    0    0  501 -0.00000000000E+00 -0.00000000000E+00 -0.13133867920E+03  0.13133867920E+03  0.00000000000E+00 0.  1.
         23    2    1    2    0    0 -0.17405969305E+02  0.45687256299E+02 -0.43708767687E+02  0.11205397105E+03  0.90858917561E+02 0.  0.
         23    2    1    2    0    0  0.17405969305E+02 -0.45687256299E+02 -0.61482919098E+01  0.10076632776E+03  0.87896292077E+02 0.  0.
          5    1    4    4  502    0 -0.69227091004E+01 -0.55875443431E+02  0.23157193803E+02  0.61060090933E+02  0.47000000000E+01 0. -1.
         -5    1    3    3    0  503 -0.50158623765E+02  0.35198204411E+02 -0.46740136983E+02  0.77210954773E+02  0.47000000000E+01 0.  1.
          5    1    3    3  503    0  0.32752654460E+02  0.10489051888E+02  0.30313692954E+01  0.34843016280E+02  0.47000000000E+01 0. -1.
         -5    1    4    4    0  502  0.24328678406E+02  0.10188187132E+02 -0.29305485713E+02  0.39706236826E+02  0.47000000000E+01 0.  1.
<mgrwt>
<rscale>  0 0.10252168E+03</rscale>
<asrwt>0</asrwt>
<pdfrwt beam="1">  1        2 0.12535634E-01 0.10317769E+03</pdfrwt>
<pdfrwt beam="2">  1       -2 0.20205951E-01 0.10317769E+03</pdfrwt>
<totfact> 0.91823525E+03</totfact>
</mgrwt>
</event>
<event>
 8    1  0.9456677E-004  0.1022574E+03  0.7546771E-02  0.1276560E+00
         -1   -1    0    0    0  501 -0.00000000000E+00  0.00000000000E+00  0.28135266814E+02  0.28135266814E+02  0.00000000000E+00 0.  1.
          1   -1    0    0  501    0  0.00000000000E+00 -0.00000000000E+00 -0.40715152550E+03  0.40715152550E+03  0.00000000000E+00 0. -1.
         23    2    1    2    0    0  0.26699284317E+02  0.31966751199E+02 -0.11798959497E+03  0.15494504203E+03  0.91387617109E+02 0.  0.
         23    2    1    2    0    0 -0.26699284317E+02 -0.31966751199E+02 -0.26102666371E+03  0.28034175029E+03  0.93390860480E+02 0.  0.
          5    1    3    3  502    0  0.13425075631E+02 -0.16252458022E+02 -0.98861366344E+02  0.10119305709E+03  0.47000000000E+01 0. -1.
         -5    1    3    3    0  502  0.13274208686E+02  0.48219209221E+02 -0.19128228630E+02  0.53751984937E+02  0.47000000000E+01 0.  1.
          5    1    4    4  503    0 -0.49907840226E+02 -0.13889567508E+02 -0.23529557663E+03  0.24097678516E+03  0.47000000000E+01 0. -1.
         -5    1    4    4    0  503  0.23208555909E+02 -0.18077183690E+02 -0.25731087079E+02  0.39364965132E+02  0.47000000000E+01 0.  1.
<mgrwt>
<rscale>  0 0.10179776E+03</rscale>
<asrwt>0</asrwt>
<pdfrwt beam="1">  1        1 0.62638700E-01 0.10225741E+03</pdfrwt>
<pdfrwt beam="2">  1       -1 0.43285024E-02 0.10225741E+03</pdfrwt>
<totfact> 0.11962652E+04</totfact>
</mgrwt>
</event>
<event>
 8    1  0.9456677E-004  0.1235255E+03  0.7546771E-02  0.1237456E+00
         -2   -1    0    0    0  501 -0.00000000000E+00  0.00000000000E+00  0.10500163437E+02  0.10500163437E+02  0.00000000000E+00 0.  1.
          2   -1    0    0  501    0  0.00000000000E+00 -0.00000000000E+00 -0.15179027835E+04  0.15179027835E+04  0.00000000000E+00 0. -1.
         23    2    1    2    0    0  0.59874172256E+02 -0.58167786986E+02 -0.59311178041E+03  0.60580536415E+03  0.90830321034E+02 0.  0.
         23    2    1    2    0    0 -0.59874172256E+02  0.58167786986E+02 -0.91429083965E+03  0.92259758279E+03  0.91050273776E+02 0.  0.
          5    1    4    4  502    0 -0.13201450257E+02  0.72983425525E+02 -0.54280706307E+03  0.54787083916E+03  0.47000000000E+01 0. -1.
         -5    1    4    4    0  502 -0.46672721999E+02 -0.14815638539E+02 -0.37148377659E+03  0.37472674363E+03  0.47000000000E+01 0.  1.
          5    1    3    3  503    0  0.31506624202E+02  0.19395459424E+02 -0.25546772089E+03  0.25817571077E+03  0.47000000000E+01 0. -1.
         -5    1    3    3    0  503  0.28367548054E+02 -0.77563246410E+02 -0.33764405953E+03  0.34762965338E+03  0.47000000000E+01 0.  1.
<mgrwt>
<rscale>  0 0.12348502E+03</rscale>
<asrwt>0</asrwt>
<pdfrwt beam="1">  1        2 0.23352341E+00 0.12352555E+03</pdfrwt>
<pdfrwt beam="2">  1       -2 0.16154104E-02 0.12352555E+03</pdfrwt>
<totfact> 0.13641900E+04</totfact>
</mgrwt>
</event>
<event>
 8    1  0.9456677E-004  0.9474233E+02  0.7546771E-02  0.1292261E+00
         -1   -1    0    0    0  501 -0.00000000000E+00  0.00000000000E+00  0.61672020450E+03  0.61672020450E+03  0.00000000000E+00 0.  1.
          1   -1    0    0  501    0  0.00000000000E+00 -0.00000000000E+00 -0.31996378137E+02  0.31996378137E+02  0.00000000000E+00 0. -1.
         23    2    1    2    0    0 -0.16602508817E+02  0.12702075577E+01  0.53339096330E+03  0.54173981602E+03  0.93267635370E+02 0.  0.
         23    2    1    2    0    0  0.16602508817E+02 -0.12702075577E+01  0.51332863064E+02  0.10697676662E+03  0.92367250902E+02 0.  0.
          5    1    3    3  502    0 -0.21135980784E+02 -0.41355016495E+02  0.18993036573E+03  0.19558272137E+03  0.47000000000E+01 0. -1.
         -5    1    4    4    0  503  0.35086556792E+02  0.36290069528E+02  0.35871454616E+02  0.62103839416E+02  0.47000000000E+01 0.  1.
          5    1    4    4  503    0 -0.18484047976E+02 -0.37560277086E+02  0.15461408448E+02  0.44872927200E+02  0.47000000000E+01 0. -1.
         -5    1    3    3    0  502  0.45334719676E+01  0.42625224052E+02  0.34346059757E+03  0.34615709465E+03  0.47000000000E+01 0.  1.
<mgrwt>
<rscale>  0 0.94519987E+02</rscale>
<asrwt>0</asrwt>
<pdfrwt beam="1">  1        1 0.49225202E-02 0.94742327E+02</pdfrwt>
<pdfrwt beam="2">  1       -1 0.94880023E-01 0.94742327E+02</pdfrwt>
<totfact> 0.18403359E+03</totfact>
</mgrwt>
</event>
<event>
 8    1  0.9456677E-004  0.9509780E+02  0.7546771E-02  0.1293670E+00
          2   -1    0    0  501    0  0.00000000000E+00  0.00000000000E+00  0.52038739313E+02  0.52038739313E+02  0.00000000000E+00 0. -1.
         -2   -1    0    0    0  501 -0.00000000000E+00 -0.00000000000E+00 -0.19545774915E+03  0.19545774915E+03  0.00000000000E+00 0.  1.
         23    2    1    2    0    0  0.55092270027E+01 -0.14166743776E+01 -0.21587452923E+02  0.92943843826E+02  0.90222954025E+02 0.  0.
         23    2    1    2    0    0 -0.55092270027E+01  0.14166743776E+01 -0.12183155692E+03  0.15455264464E+03  0.94927515273E+02 0.  0.
          5    1    4    4  502    0  0.30655005367E+02  0.38343238781E+01 -0.43908950451E+01  0.31556320333E+02  0.47000000000E+01 0. -1.
         -5    1    3    3    0  503  0.35815454043E+02 -0.30226117534E+02 -0.18994333005E+02  0.50786214821E+02  0.47000000000E+01 0.  1.
          5    1    3    3  503    0 -0.30306227041E+02  0.28809443156E+02 -0.25931199174E+01  0.42157629005E+02  0.47000000000E+01 0. -1.
         -5    1    4    4    0  502 -0.36164232370E+02 -0.24176495005E+01 -0.11744066187E+03  0.12299632431E+03  0.47000000000E+01 0.  1.
<mgrwt>
<rscale>  0 0.93901491E+02</rscale>
<asrwt>0</asrwt>
<pdfrwt beam="1">  1        2 0.80059599E-02 0.95097801E+02</pdfrwt>
<pdfrwt beam="2">  1       -2 0.30070423E-01 0.95097801E+02</pdfrwt>
<totfact> 0.78939780E+03</totfact>
</mgrwt>
</event>
<event>
 8    1  0.9456677E-004  0.9361061E+02  0.7546771E-02  0.1298122E+00
         -4   -1    0    0    0  501 -0.00000000000E+00  0.00000000000E+00  0.16505476216E+03  0.16505476216E+03  0.00000000000E+00 0.  1.
          4   -1    0    0  501    0  0.00000000000E+00 -0.00000000000E+00 -0.71197749210E+02  0.71197749210E+02  0.00000000000E+00 0. -1.
         23    2    1    2    0    0 -0.39876670368E+01  0.11673269787E+02  0.11317912055E+03  0.14687566111E+03  0.92794287437E+02 0.  0.
         23    2    1    2    0    0  0.39876670368E+01 -0.11673269787E+02 -0.19322107606E+02  0.89376850258E+02  0.86386982838E+02 0.  0.
          5    1    4    4  502    0 -0.18254808811E+02 -0.23316133559E+02  0.24456419563E+02  0.38692203177E+02  0.47000000000E+01 0. -1.
         -5    1    3    3    0  503  0.24293209085E+02 -0.72144374785E+01  0.10933257321E+03  0.11232946933E+03  0.47000000000E+01 0.  1.
          5    1    3    3  503    0 -0.28280876122E+02  0.18887707265E+02  0.38465473461E+01  0.34546191779E+02  0.47000000000E+01 0. -1.
         -5    1    4    4    0  502  0.22242475848E+02  0.11642863773E+02 -0.43778527169E+02  0.50684647081E+02  0.47000000000E+01 0.  1.
<mgrwt>
<rscale>  0 0.91981752E+02</rscale>
<asrwt>0</asrwt>
<pdfrwt beam="1">  1        4 0.10953500E-01 0.93610611E+02</pdfrwt>
<pdfrwt beam="2">  1       -4 0.25393040E-01 0.93610611E+02</pdfrwt>
<totfact> 0.14266224E+03</totfact>
</mgrwt>
</event>
<event>
 8    1  0.9456677E-004  0.1115292E+03  0.7546771E-02  0.1265936E+00
         -1   -1    0    0    0  501 -0.00000000000E+00  0.00000000000E+00  0.87238606087E+02  0.87238606087E+02  0.00000000000E+00 0.  1.
          1   -1    0    0  501    0  0.00000000000E+00 -0.00000000000E+00 -0.15922163529E+03  0.15922163529E+03  0.00000000000E+00 0. -1.
         23    2    1    2    0    0  0.18947113743E+01 -0.24502426372E+02 -0.93006472662E+02  0.13296684322E+03  0.91793347310E+02 0.  0.
         23    2    1    2    0    0 -0.18947113743E+01  0.24502426372E+02  0.21023443454E+02  0.11349339816E+03  0.10878790108E+03 0.  0.
          5    1    3    3  502    0 -0.14443328721E+02  0.28989118858E+02 -0.58636784875E+02  0.67151629147E+02  0.47000000000E+01 0. -1.
         -5    1    4    4    0  503  0.39065557944E+02 -0.20012743066E+02 -0.10124675460E+02  0.45290470915E+02  0.47000000000E+01 0.  1.
          5    1    4    4  503    0 -0.40960269319E+02  0.44515169438E+02  0.31148118914E+02  0.68202927244E+02  0.47000000000E+01 0. -1.
         -5    1    3    3    0  502  0.16338040096E+02 -0.53491545230E+02 -0.34369687787E+02  0.65815214076E+02  0.47000000000E+01 0.  1.
<mgrwt>
<rscale>  0 0.10715250E+03</rscale>
<asrwt>0</asrwt>
<pdfrwt beam="1">  1        1 0.24495636E-01 0.11152922E+03</pdfrwt>
<pdfrwt beam="2">  1       -1 0.13421324E-01 0.11152922E+03</pdfrwt>
<totfact> 0.70442202E+03</totfact>
</mgrwt>
</event>
<event>
 8    1  0.9456677E-004  0.1164465E+03  0.7546771E-02  0.1250378E+00
          1   -1    0    0  501    0  0.00000000000E+00  0.00000000000E+00  0.10713763658E+03  0.10713763658E+03  0.00000000000E+00 0. -1.
         -1   -1    0    0    0  501 -0.00000000000E+00 -0.00000000000E+00 -0.12856958041E+03  0.12856958041E+03  0.00000000000E+00 0.  1.
         23    2    1    2    0    0 -0.64102150001E+02 -0.14701822708E+02  0.12925353494E+02  0.11716160874E+03  0.96096558590E+02 0.  0.
         23    2    1    2    0    0  0.64102150001E+02  0.14701822708E+02 -0.34357297320E+02  0.11854560826E+03  0.92452193767E+02 0.  0.
          5    1    3    3  502    0 -0.41332378952E+02 -0.53016448466E+02  0.23038437351E+02  0.71217757289E+02  0.47000000000E+01 0. -1.
         -5    1    3    3    0  502 -0.22769771049E+02  0.38314625758E+02 -0.10113083857E+02  0.45943851446E+02  0.47000000000E+01 0.  1.
          5    1    4    4  503    0 -0.15263883953E+02 -0.20525760522E+02 -0.12632301368E+02  0.28912938906E+02  0.47000000000E+01 0. -1.
         -5    1    4    4    0  503  0.79366033954E+02  0.35227583231E+02 -0.21724995952E+02  0.89632669351E+02  0.47000000000E+01 0.  1.
<mgrwt>
<rscale>  0 0.11569195E+03</rscale>
<asrwt>0</asrwt>
<pdfrwt beam="1">  1        1 0.16482713E-01 0.11644646E+03</pdfrwt>
<pdfrwt beam="2">  1       -1 0.19779935E-01 0.11644646E+03</pdfrwt>
<totfact> 0.63419937E+03</totfact>
</mgrwt>
</event>
<event>
 8    1  0.9456677E-004  0.1222306E+03  0.7546771E-02  0.1246203E+00
         -2   -1    0    0    0  501 -0.00000000000E+00  0.00000000000E+00  0.10949278580E+03  0.10949278580E+03  0.00000000000E+00 0. -1.
          2   -1    0    0  501    0  0.00000000000E+00 -0.00000000000E+00 -0.17702406391E+03  0.17702406391E+03  0.00000000000E+00 0.  1.
         23    2    1    2    0    0 -0.43644247762E+02 -0.67754953576E+02 -0.11366368247E+03  0.15587026714E+03  0.69860957399E+02 0.  0.
         23    2    1    2    0    0  0.43644247762E+02  0.67754953576E+02  0.46132404361E+02  0.13064658257E+03  0.91895466201E+02 0.  0.
          5    1    3    3  502    0 -0.48236696143E+02 -0.16605062186E+02 -0.77428255789E+02  0.92842510411E+02  0.47000000000E+01 0. -1.
         -5    1    4    4    0  503  0.66176375039E+02  0.25454121516E+02  0.13118346368E+02  0.72259296474E+02  0.47000000000E+01 0.  1.
          5    1    4    4  503    0 -0.22532127277E+02  0.42300832059E+02  0.33014057992E+02  0.58387286096E+02  0.47000000000E+01 0. -1.
         -5    1    3    3    0  502  0.45924483811E+01 -0.51149891390E+02 -0.36235426677E+02  0.63027756725E+02  0.47000000000E+01 0.  1.
<mgrwt>
<rscale>  0 0.11813655E+03</rscale>
<asrwt>0</asrwt>
<pdfrwt beam="1">  1        2 0.27234471E-01 0.12223065E+03</pdfrwt>
<pdfrwt beam="2">  1       -2 0.16845044E-01 0.12223065E+03</pdfrwt>
<totfact> 0.52184295E+03</totfact>
</mgrwt>
</event>
<event>
 8    1  0.9456677E-004  0.1094781E+03  0.7546771E-02  0.1262056E+00
          2   -1    0    0  501    0  0.00000000000E+00  0.00000000000E+00  0.68751268839E+02  0.68751268839E+02  0.00000000000E+00 0. -1.
         -2   -1    0    0    0  501 -0.00000000000E+00 -0.00000000000E+00 -0.17566360701E+03  0.17566360701E+03  0.00000000000E+00 0.  1.
         23    2    1    2    0    0  0.26276120449E+02 -0.52332688086E+02 -0.69919048086E+02  0.12990043614E+03  0.92500298785E+02 0.  0.
         23    2    1    2    0    0 -0.26276120449E+02  0.52332688086E+02 -0.36993290087E+02  0.11451443971E+03  0.91191604016E+02 0.  0.
          5    1    3    3  502    0 -0.31409163632E+01  0.22873148819E+02 -0.34065328197E+02  0.41419595334E+02  0.47000000000E+01 0. -1.
         -5    1    3    3    0  502  0.29417036812E+02 -0.75205836905E+02 -0.35853719890E+02  0.88480840804E+02  0.47000000000E+01 0.  1.
          5    1    4    4  503    0 -0.46611009118E+02  0.16731081283E+02  0.11277198848E+02  0.51007651051E+02  0.47000000000E+01 0. -1.
         -5    1    4    4    0  503  0.20334888669E+02  0.35601606804E+02 -0.48270488934E+02  0.63506788662E+02  0.47000000000E+01 0.  1.
<mgrwt>
<rscale>  0 0.10920116E+03</rscale>
<asrwt>0</asrwt>
<pdfrwt beam="1">  1        2 0.10577118E-01 0.10947808E+03</pdfrwt>
<pdfrwt beam="2">  1       -2 0.27025170E-01 0.10947808E+03</pdfrwt>
<totfact> 0.68621757E+03</totfact>
</mgrwt>
</event>
<event>
 8    1  0.9456677E-004  0.9634550E+02  0.7546771E-02  0.1288367E+00
          4   -1    0    0  501    0  0.00000000000E+00  0.00000000000E+00  0.13896048216E+03  0.13896048216E+03  0.00000000000E+00 0. -1.
         -4   -1    0    0    0  501 -0.00000000000E+00 -0.00000000000E+00 -0.70012012889E+02  0.70012012889E+02  0.00000000000E+00 0.  1.
         23    2    1    2    0    0 -0.25423248473E+02 -0.17374336800E+02  0.11323795041E+02  0.97008680642E+02  0.91292095186E+02 0.  0.
         23    2    1    2    0    0  0.25423248473E+02  0.17374336800E+02  0.57624674234E+02  0.11196381441E+03  0.90923503645E+02 0.  0.
          5    1    4    4  502    0 -0.25570061075E+02  0.27725662160E+02  0.43656379570E+02  0.57883588717E+02  0.47000000000E+01 0. -1.
         -5    1    4    4    0  502  0.50993309549E+02 -0.10351325360E+02  0.13968294664E+02  0.54080225695E+02  0.47000000000E+01 0.  1.
          5    1    3    3  503    0  0.17545414157E+02  0.20439236519E+02  0.26000784332E+02  0.37732409588E+02  0.47000000000E+01 0. -1.
         -5    1    3    3    0  503 -0.42968662630E+02 -0.37813573319E+02 -0.14676989291E+02  0.59276271054E+02  0.47000000000E+01 0.  1.
<mgrwt>
<rscale>  0 0.96258087E+02</rscale>
<asrwt>0</asrwt>
<pdfrwt beam="1">  1        4 0.21378536E-01 0.96345502E+02</pdfrwt>
<pdfrwt beam="2">  1       -4 0.10771079E-01 0.96345502E+02</pdfrwt>
<totfact> 0.20206018E+03</totfact>
</mgrwt>
</event>
<event>
 8    1  0.9456677E-004  0.1311599E+03  0.7546771E-02  0.1225841E+00
          2   -1    0    0  501    0  0.00000000000E+00  0.00000000000E+00  0.21027242110E+03  0.21027242110E+03  0.00000000000E+00 0. -1.
         -2   -1    0    0    0  501 -0.00000000000E+00 -0.00000000000E+00 -0.90655086643E+02  0.90655086643E+02  0.00000000000E+00 0.  1.
         23    2    1    2    0    0  0.44526822422E+02  0.83191803800E+02  0.12439283821E+02  0.13174846294E+03  0.91101084359E+02 0.  0.
         23    2    1    2    0    0 -0.44526822422E+02 -0.83191803800E+02  0.10717805063E+03  0.16917904480E+03  0.90724310560E+02 0.  0.
          5    1    4    4  502    0 -0.24748568106E+02 -0.92579447526E+02  0.50902261010E+02  0.10861204309E+03  0.47000000000E+01 0. -1.
         -5    1    4    4    0  502 -0.19778254315E+02  0.93876437265E+01  0.56275789623E+02  0.60567001710E+02  0.47000000000E+01 0.  1.
          5    1    3    3  503    0 -0.17819928444E+02  0.11627355126E+02 -0.21718907599E+02  0.30765990708E+02  0.47000000000E+01 0. -1.
         -5    1    3    3    0  503  0.62346750865E+02  0.71564448674E+02  0.34158191420E+02  0.10098247223E+03  0.47000000000E+01 0.  1.
<mgrwt>
<rscale>  0 0.13109451E+03</rscale>
<asrwt>0</asrwt>
<pdfrwt beam="1">  1        2 0.32349603E-01 0.13115991E+03</pdfrwt>
<pdfrwt beam="2">  1       -2 0.13946936E-01 0.13115991E+03</pdfrwt>
<totfact> 0.59263546E+03</totfact>
</mgrwt>
</event>
<event>
 8    1  0.9456677E-004  0.1677078E+03  0.7546771E-02  0.1181140E+00
          2   -1    0    0  501    0  0.00000000000E+00  0.00000000000E+00  0.65172666860E+02  0.65172666860E+02  0.00000000000E+00 0. -1.
         -2   -1    0    0    0  501 -0.00000000000E+00 -0.00000000000E+00 -0.50663461349E+03  0.50663461349E+03  0.00000000000E+00 0.  1.
         23    2    1    2    0    0 -0.81851874334E+02 -0.10958730347E+03 -0.10285700366E+03  0.19394593268E+03  0.91248864040E+02 0.  0.
         23    2    1    2    0    0  0.81851874334E+02  0.10958730347E+03 -0.33860494298E+03  0.37786134767E+03  0.97040116656E+02 0.  0.
          5    1    4    4  502    0  0.42489068175E+02  0.56317904001E+01 -0.17343745878E+03  0.17871675939E+03  0.47000000000E+01 0. -1.
         -5    1    3    3    0  503 -0.49240850128E+02 -0.85595642459E+02 -0.18944865056E+02  0.10065919353E+03  0.47000000000E+01 0. -1.
          5    1    3    3  503    0 -0.32611024206E+02 -0.23991661013E+02 -0.83912138602E+02  0.93286739157E+02  0.47000000000E+01 0.  1.
         -5    1    4    4    0  502  0.39362806159E+02  0.10395551307E+03 -0.16516748419E+03  0.19914458828E+03  0.47000000000E+01 0.  1.
<mgrwt>
<rscale>  0 0.16688088E+03</rscale>
<asrwt>0</asrwt>
<pdfrwt beam="1">  1        2 0.10026564E-01 0.16770775E+03</pdfrwt>
<pdfrwt beam="2">  1       -2 0.77943785E-01 0.16770775E+03</pdfrwt>
<totfact> 0.94887505E+02</totfact>
</mgrwt>
</event>
<event>
 8    1  0.9456677E-004  0.1400820E+03  0.7546771E-02  0.1213585E+00
         -1   -1    0    0    0  501 -0.00000000000E+00  0.00000000000E+00  0.18521619445E+03  0.18521619445E+03  0.00000000000E+00 0.  1.
          1   -1    0    0  501    0  0.00000000000E+00 -0.00000000000E+00 -0.36652659518E+03  0.36652659518E+03  0.00000000000E+00 0. -1.
         23    2    1    2    0    0  0.10072960158E+03  0.34510454364E+02 -0.32372865519E+03  0.35273673081E+03  0.91024914048E+02 0.  0.
         23    2    1    2    0    0 -0.10072960158E+03 -0.34510454364E+02  0.14241825447E+03  0.19900605882E+03  0.89347793171E+02 0.  0.
          5    1    3    3  502    0  0.70642954673E+02  0.42570144171E+02 -0.30521788792E+03  0.31620040058E+03  0.47000000000E+01 0. -1.
         -5    1    4    4    0  503 -0.75587900178E+02 -0.18552937699E+02  0.14898176687E+03  0.16815290367E+03  0.47000000000E+01 0.  1.
          5    1    4    4  503    0 -0.25141701404E+02 -0.15957516665E+02 -0.65635124058E+01  0.30853155150E+02  0.47000000000E+01 0. -1.
         -5    1    3    3    0  502  0.30086646909E+02 -0.80596898062E+01 -0.18510767270E+02  0.36536330234E+02  0.47000000000E+01 0.  1.
<mgrwt>
<rscale>  0 0.13981020E+03</rscale>
<asrwt>0</asrwt>
<pdfrwt beam="1">  1        1 0.56388707E-01 0.14008197E+03</pdfrwt>
<pdfrwt beam="2">  1       -1 0.28494799E-01 0.14008197E+03</pdfrwt>
<totfact> 0.75762188E+02</totfact>
</mgrwt>
</event>
<event>
 8    1  0.9456677E-004  0.9186947E+02  0.7546771E-02  0.1300097E+00
          1   -1    0    0  501    0  0.00000000000E+00  0.00000000000E+00  0.13363082920E+03  0.13363082920E+03  0.00000000000E+00 0. -1.
         -1   -1    0    0    0  501 -0.00000000000E+00 -0.00000000000E+00 -0.91293326074E+02  0.91293326074E+02  0.00000000000E+00 0.  1.
         23    2    1    2    0    0 -0.28664564344E+01  0.22547929168E+01  0.85944138034E+02  0.12580299606E+03  0.91797049470E+02 0.  0.
         23    2    1    2    0    0  0.28664564344E+01 -0.22547929168E+01 -0.43606634907E+02  0.99121159216E+02  0.88939108005E+02 0.  0.
          5    1    4    4  502    0  0.25362633889E+02  0.35948745757E+02 -0.18527569930E+02  0.47968076538E+02  0.47000000000E+01 0. -1.
         -5    1    3    3    0  503  0.22106565242E+02 -0.68844351224E+01  0.94552231317E+02  0.97459274165E+02  0.47000000000E+01 0.  1.
          5    1    3    3  503    0 -0.24973021676E+02  0.91392280393E+01 -0.86080932832E+01  0.28343721894E+02  0.47000000000E+01 0. -1.
         -5    1    4    4    0  502 -0.22496177455E+02 -0.38203538674E+02 -0.25079064978E+02  0.51153082678E+02  0.47000000000E+01 0.  1.
<mgrwt>
<rscale>  0 0.91147087E+02</rscale>
<asrwt>0</asrwt>
<pdfrwt beam="1">  1        1 0.20558589E-01 0.91869467E+02</pdfrwt>
<pdfrwt beam="2">  1       -1 0.14045127E-01 0.91869467E+02</pdfrwt>
<totfact> 0.80495909E+03</totfact>
</mgrwt>
</event>
<event>
 8    1  0.9456677E-004  0.9722912E+02  0.7546771E-02  0.1287238E+00
          2   -1    0    0  501    0  0.00000000000E+00  0.00000000000E+00  0.31012247407E+03  0.31012247407E+03  0.00000000000E+00 0. -1.
         -2   -1    0    0    0  501 -0.00000000000E+00 -0.00000000000E+00 -0.30748500441E+02  0.30748500441E+02  0.00000000000E+00 0.  1.
         23    2    1    2    0    0  0.24315379574E+02 -0.18013386840E+02  0.11033608602E+03  0.14586505315E+03  0.90481169658E+02 0.  0.
         23    2    1    2    0    0 -0.24315379574E+02  0.18013386840E+02  0.16903788760E+03  0.19500592136E+03  0.92400119747E+02 0.  0.
          5    1    4    4  502    0 -0.44846619247E+02 -0.14111514186E+02  0.45352953905E+02  0.65493011218E+02  0.47000000000E+01 0. -1.
         -5    1    4    4    0  502  0.20531239673E+02  0.32124901027E+02  0.12368493370E+03  0.12951291014E+03  0.47000000000E+01 0.  1.
          5    1    3    3  503    0  0.20869747322E+02 -0.43252540476E+02  0.10982351347E+03  0.11995675355E+03  0.47000000000E+01 0. -1.
         -5    1    3    3    0  503  0.34456322523E+01  0.25239153635E+02  0.51257255563E+00  0.25908299606E+02  0.47000000000E+01 0.  1.
<mgrwt>
<rscale>  0 0.96770442E+02</rscale>
<asrwt>0</asrwt>
<pdfrwt beam="1">  1        2 0.47711148E-01 0.97229121E+02</pdfrwt>
<pdfrwt beam="2">  1       -2 0.47305387E-02 0.97229121E+02</pdfrwt>
<totfact> 0.20314507E+04</totfact>
</mgrwt>
</event>
<event>
 8    1  0.9456677E-004  0.9944659E+02  0.7546771E-02  0.1282103E+00
         -3   -1    0    0    0  501 -0.00000000000E+00  0.00000000000E+00  0.34802588305E+02  0.34802588305E+02  0.00000000000E+00 0.  1.
          3   -1    0    0  501    0  0.00000000000E+00 -0.00000000000E+00 -0.28647040203E+03  0.28647040203E+03  0.00000000000E+00 0. -1.
         23    2    1    2    0    0  0.65323454506E+01 -0.39028771885E+02 -0.10238206438E+03  0.14189668252E+03  0.89925885223E+02 0.  0.
         23    2    1    2    0    0 -0.65323454506E+01  0.39028771885E+02 -0.14928574934E+03  0.17937630781E+03  0.91234359064E+02 0.  0.
          5    1    3    3  502    0 -0.15756486928E+02 -0.36383518065E+02 -0.11056128508E+03  0.11754962792E+03  0.47000000000E+01 0. -1.
         -5    1    4    4    0  503  0.10354301141E+02 -0.24021386968E+02 -0.16343392156E+02  0.31199920691E+02  0.47000000000E+01 0.  1.
          5    1    4    4  503    0 -0.16886646591E+02  0.63050158853E+02 -0.13294235719E+03  0.14817638712E+03  0.47000000000E+01 0. -1.
         -5    1    3    3    0  502  0.22288832378E+02 -0.26452538196E+01  0.81792206977E+01  0.24347054602E+02  0.47000000000E+01 0.  1.
<mgrwt>
<rscale>  0 0.99145468E+02</rscale>
<asrwt>0</asrwt>
<pdfrwt beam="1">  1        3 0.44072368E-01 0.99446593E+02</pdfrwt>
<pdfrwt beam="2">  1       -3 0.53542445E-02 0.99446593E+02</pdfrwt>
<totfact> 0.22683680E+03</totfact>
</mgrwt>
</event>
<event>
 8    1  0.9456677E-004  0.9832234E+02  0.7546771E-02  0.1286726E+00
          2   -1    0    0  501    0  0.00000000000E+00  0.00000000000E+00  0.28922969924E+03  0.28922969924E+03  0.00000000000E+00 0. -1.
         -2   -1    0    0    0  501 -0.00000000000E+00 -0.00000000000E+00 -0.43602424209E+02  0.43602424209E+02  0.00000000000E+00 0.  1.
         23    2    1    2    0    0 -0.18634377612E+02 -0.29491038049E+02  0.20736425725E+03  0.22732694870E+03  0.86375025696E+02 0.  0.
         23    2    1    2    0    0  0.18634377612E+02  0.29491038049E+02  0.38263017780E+02  0.10550517475E+03  0.91925633074E+02 0.  0.
          5    1    4    4  502    0  0.30699254010E+02 -0.24823637687E+02  0.39178407273E+01  0.39951178465E+02  0.47000000000E+01 0. -1.
         -5    1    4    4    0  502 -0.12064876398E+02  0.54314675735E+02  0.34345177053E+02  0.65553996290E+02  0.47000000000E+01 0.  1.
          5    1    3    3  503    0 -0.29542521109E+02 -0.10124304905E+02  0.20136892452E+03  0.20383031145E+03  0.47000000000E+01 0. -1.
         -5    1    3    3    0  503  0.10908143498E+02 -0.19366733144E+02  0.59953327287E+01  0.23496637244E+02  0.47000000000E+01 0.  1.
<mgrwt>
<rscale>  0 0.97003893E+02</rscale>
<asrwt>0</asrwt>
<pdfrwt beam="1">  1        2 0.44496876E-01 0.98322344E+02</pdfrwt>
<pdfrwt beam="2">  1       -2 0.67080654E-02 0.98322344E+02</pdfrwt>
<totfact> 0.12963766E+04</totfact>
</mgrwt>
</event>
<event>
 8    1  0.9456677E-004  0.2679615E+03  0.7546771E-02  0.1102466E+00
          2   -1    0    0  501    0  0.00000000000E+00  0.00000000000E+00  0.22633094498E+04  0.22633094498E+04  0.00000000000E+00 0. -1.
         -2   -1    0    0    0  501 -0.00000000000E+00 -0.00000000000E+00 -0.31935478967E+02  0.31935478967E+02  0.00000000000E+00 0.  1.
         23    2    1    2    0    0  0.75049002114E+02  0.24081848051E+03  0.10198176026E+04  0.10544096489E+04  0.90143617753E+02 0.  0.
         23    2    1    2    0    0 -0.75049002114E+02 -0.24081848051E+03  0.12115563682E+04  0.12408352799E+04  0.90429337701E+02 0.  0.
          5    1    4    4  502    0 -0.83796655510E+02 -0.19592484930E+03  0.84771527866E+03  0.87410051466E+03  0.47000000000E+01 0. -1.
         -5    1    4    4    0  502  0.87476533963E+01 -0.44893631215E+02  0.36384108958E+03  0.36673476524E+03  0.47000000000E+01 0.  1.
          5    1    3    3  503    0  0.35173116624E+02  0.50086272201E+02  0.39956747353E+03  0.40425491796E+03  0.47000000000E+01 0. -1.
         -5    1    3    3    0  503  0.39875885490E+02  0.19073220831E+03  0.62025012909E+03  0.65015473094E+03  0.47000000000E+01 0.  1.
<mgrwt>
<rscale>  0 0.26793741E+03</rscale>
<asrwt>0</asrwt>
<pdfrwt beam="1">  1        2 0.34820133E+00 0.26796149E+03</pdfrwt>
<pdfrwt beam="2">  1       -2 0.49131524E-02 0.26796149E+03</pdfrwt>
<totfact> 0.10837095E+03</totfact>
</mgrwt>
</event>
<event>
 8    1  0.9456677E-004  0.9623542E+02  0.7546771E-02  0.1289701E+00
          2   -1    0    0  501    0  0.00000000000E+00  0.00000000000E+00  0.62932481651E+03  0.62932481651E+03  0.00000000000E+00 0. -1.
         -2   -1    0    0    0  501 -0.00000000000E+00 -0.00000000000E+00 -0.39994221312E+02  0.39994221312E+02  0.00000000000E+00 0.  1.
         23    2    1    2    0    0 -0.81866111852E+01 -0.15125518430E+02  0.25515460405E+02  0.97349841436E+02  0.92358816566E+02 0.  0.
         23    2    1    2    0    0  0.81866111852E+01  0.15125518430E+02  0.56381513479E+03  0.57196919639E+03  0.94686078606E+02 0.  0.
          5    1    3    3  502    0 -0.34244611922E+02  0.25376373780E+02  0.23547557951E+02  0.48920663092E+02  0.47000000000E+01 0. -1.
         -5    1    4    4    0  503  0.33935469492E+02 -0.28637928984E+02  0.29498463389E+03  0.29834505409E+03  0.47000000000E+01 0.  1.
          5    1    4    4  503    0 -0.25748858307E+02  0.43763447414E+02  0.26883050090E+03  0.27362414230E+03  0.47000000000E+01 0. -1.
         -5    1    3    3    0  502  0.26058000737E+02 -0.40501892210E+02  0.19679024546E+01  0.48429178344E+02  0.47000000000E+01 0.  1.
<mgrwt>
<rscale>  0 0.95658022E+02</rscale>
<asrwt>0</asrwt>
<pdfrwt beam="1">  1        2 0.96819196E-01 0.96235417E+02</pdfrwt>
<pdfrwt beam="2">  1       -2 0.61529576E-02 0.96235417E+02</pdfrwt>
<totfact> 0.64080152E+03</totfact>
</mgrwt>
</event>
<event>
 8    1  0.9456677E-004  0.1486699E+03  0.7546771E-02  0.1202481E+00
          1   -1    0    0  501    0  0.00000000000E+00  0.00000000000E+00  0.65371529886E+03  0.65371529886E+03  0.00000000000E+00 0. -1.
         -1   -1    0    0    0  501 -0.00000000000E+00 -0.00000000000E+00 -0.49342978997E+02  0.49342978997E+02  0.00000000000E+00 0.  1.
         23    2    1    2    0    0 -0.90134217334E+02  0.74465438594E+02  0.10409735831E+03  0.18149103984E+03  0.91833865517E+02 0.  0.
         23    2    1    2    0    0  0.90134217334E+02 -0.74465438594E+02  0.50027496155E+03  0.52156723802E+03  0.89933686327E+02 0.  0.
          5    1    4    4  502    0  0.51869717786E+02 -0.59935870250E+02  0.15808459294E+03  0.17690563781E+03  0.47000000000E+01 0. -1.
         -5    1    3    3    0  503 -0.10106670881E+03  0.34839994733E+02  0.69901457557E+02  0.12781474340E+03  0.47000000000E+01 0.  1.
          5    1    3    3  503    0  0.10932491474E+02  0.39625443861E+02  0.34195900752E+02  0.53676296438E+02  0.47000000000E+01 0. -1.
         -5    1    4    4    0  502  0.38264499548E+02 -0.14529568344E+02  0.34219036861E+03  0.34466160020E+03  0.47000000000E+01 0.  1.
<mgrwt>
<rscale>  0 0.14837749E+03</rscale>
<asrwt>0</asrwt>
<pdfrwt beam="1">  1        1 0.10057158E+00 0.14866989E+03</pdfrwt>
<pdfrwt beam="2">  1       -1 0.75912280E-02 0.14866989E+03</pdfrwt>
<totfact> 0.28523151E+03</totfact>
</mgrwt>
</event>
<event>
 8    1  0.9456677E-004  0.1124923E+03  0.7546771E-02  0.1256957E+00
         -2   -1    0    0    0  501 -0.00000000000E+00  0.00000000000E+00  0.67920955692E+03  0.67920955692E+03  0.00000000000E+00 0.  1.
          2   -1    0    0  501    0  0.00000000000E+00 -0.00000000000E+00 -0.22295488571E+02  0.22295488571E+02  0.00000000000E+00 0. -1.
         23    2    1    2    0    0 -0.54712693880E+02 -0.34840736806E+02  0.47459662546E+03  0.48727579354E+03  0.89377772754E+02 0.  0.
         23    2    1    2    0    0  0.54712693880E+02  0.34840736806E+02  0.18231744289E+03  0.21422925195E+03  0.91908468574E+02 0.  0.
          5    1    4    4  502    0  0.74954025330E+02  0.67298550917E+01  0.10394135218E+03  0.12841063646E+03  0.47000000000E+01 0. -1.
         -5    1    3    3    0  503 -0.49156686746E+02 -0.56403196333E+02  0.43657062694E+03  0.44296015928E+03  0.47000000000E+01 0.  1.
          5    1    3    3  503    0 -0.55560071349E+01  0.21562459527E+02  0.38025998518E+02  0.44315634255E+02  0.47000000000E+01 0. -1.
         -5    1    4    4    0  502 -0.20241331450E+02  0.28110881714E+02  0.78376090707E+02  0.85818615487E+02  0.47000000000E+01 0.  1.
<mgrwt>
<rscale>  0 0.11197426E+03</rscale>
<asrwt>0</asrwt>
<pdfrwt beam="1">  1        2 0.34300757E-02 0.11249232E+03</pdfrwt>
<pdfrwt beam="2">  1       -2 0.10449376E+00 0.11249232E+03</pdfrwt>
<totfact> 0.19121432E+03</totfact>
</mgrwt>
</event>
<event>
 8    1  0.9456677E-004  0.9945656E+02  0.7546771E-02  0.1284440E+00
         -2   -1    0    0    0  501 -0.00000000000E+00  0.00000000000E+00  0.10917811179E+03  0.10917811179E+03  0.00000000000E+00 0.  1.
          2   -1    0    0  501    0  0.00000000000E+00 -0.00000000000E+00 -0.90689602936E+02  0.90689602936E+02  0.00000000000E+00 0. -1.
         23    2    1    2    0    0  0.39819418530E+02 -0.61443980594E+01  0.32498369020E+02  0.99429256018E+02  0.84892244898E+02 0.  0.
         23    2    1    2    0    0 -0.39819418530E+02  0.61443980594E+01 -0.14009860163E+02  0.10043845871E+03  0.90930017524E+02 0.  0.
          5    1    4    4  502    0 -0.52233345153E+02 -0.28190155143E+02 -0.20676239564E+02  0.63028597282E+02  0.47000000000E+01 0. -1.
         -5    1    4    4    0  502  0.12413926624E+02  0.34334553202E+02  0.66663794017E+01  0.37409861429E+02  0.47000000000E+01 0.  1.
          5    1    3    3  503    0  0.26860577541E+00 -0.34960867843E+02 -0.74852406938E+01  0.36061797760E+02  0.47000000000E+01 0. -1.
         -5    1    3    3    0  503  0.39550812754E+02  0.28816469784E+02  0.39983609714E+02  0.63367458258E+02  0.47000000000E+01 0.  1.
<mgrwt>
<rscale>  0 0.98055142E+02</rscale>
<asrwt>0</asrwt>
<pdfrwt beam="1">  1        2 0.13952247E-01 0.99456562E+02</pdfrwt>
<pdfrwt beam="2">  1       -2 0.16796633E-01 0.99456562E+02</pdfrwt>
<totfact> 0.10968339E+04</totfact>
</mgrwt>
</event>
<event>
 8    1  0.9456677E-004  0.1242185E+03  0.7546771E-02  0.1236877E+00
          1   -1    0    0  501    0  0.00000000000E+00  0.00000000000E+00  0.98889572104E+02  0.98889572104E+02  0.00000000000E+00 0. -1.
         -1   -1    0    0    0  501 -0.00000000000E+00 -0.00000000000E+00 -0.21458309320E+03  0.21458309320E+03  0.00000000000E+00 0.  1.
         23    2    1    2    0    0  0.17140218507E+02  0.81866418246E+02  0.25050182652E+02  0.12671919541E+03  0.91838691772E+02 0.  0.
         23    2    1    2    0    0 -0.17140218507E+02 -0.81866418246E+02 -0.14074370375E+03  0.18675346990E+03  0.89845260576E+02 0.  0.
          5    1    3    3  502    0 -0.23672769183E+01  0.60186707161E+02  0.57101716366E+02  0.83130859076E+02  0.47000000000E+01 0. -1.
         -5    1    4    4    0  503  0.19168723861E+02 -0.71843568159E+02 -0.53844088765E+02  0.91925046398E+02  0.47000000000E+01 0.  1.
          5    1    4    4  503    0 -0.36308942368E+02 -0.10022850088E+02 -0.86899614984E+02  0.94828423504E+02  0.47000000000E+01 0. -1.
         -5    1    3    3    0  502  0.19507495425E+02  0.21679711086E+02 -0.32051533714E+02  0.43588336329E+02  0.47000000000E+01 0.  1.
<mgrwt>
<rscale>  0 0.12385028E+03</rscale>
<asrwt>0</asrwt>
<pdfrwt beam="1">  1        1 0.15213780E-01 0.12421853E+03</pdfrwt>
<pdfrwt beam="2">  1       -1 0.33012783E-01 0.12421853E+03</pdfrwt>
<totfact> 0.30413167E+03</totfact>
</mgrwt>
</event>
<event>
 8    1  0.9456677E-004  0.1263154E+03  0.7546771E-02  0.1240279E+00
          1   -1    0    0  501    0  0.00000000000E+00  0.00000000000E+00  0.12863368153E+04  0.12863368153E+04  0.00000000000E+00 0. -1.
         -1   -1    0    0    0  501 -0.00000000000E+00 -0.00000000000E+00 -0.10759794328E+02  0.10759794328E+02  0.00000000000E+00 0.  1.
         23    2    1    2    0    0 -0.56711284827E+02 -0.64530875099E+02  0.69795499086E+03  0.70929313834E+03  0.92602284830E+02 0.  0.
         23    2    1    2    0    0  0.56711284827E+02  0.64530875099E+02  0.57762203015E+03  0.58780347133E+03  0.66972438559E+02 0.  0.
          5    1    3    3  502    0 -0.47615821585E+02 -0.10249093815E+01  0.47017501008E+03  0.47260442974E+03  0.47000000000E+01 0. -1.
         -5    1    3    3    0  502 -0.90954632414E+01 -0.63505965718E+02  0.22777998078E+03  0.23668870860E+03  0.47000000000E+01 0.  1.
          5    1    4    4  503    0  0.14460907691E+02  0.51260651119E+02  0.18225423646E+03  0.18993543353E+03  0.47000000000E+01 0. -1.
         -5    1    4    4    0  503  0.42250377135E+02  0.13270223980E+02  0.39536779369E+03  0.39786803780E+03  0.47000000000E+01 0.  1.
<mgrwt>
<rscale>  0 0.12172478E+03</rscale>
<asrwt>0</asrwt>
<pdfrwt beam="1">  1        1 0.19789785E+00 0.12631543E+03</pdfrwt>
<pdfrwt beam="2">  1       -1 0.16553540E-02 0.12631543E+03</pdfrwt>
<totfact> 0.87311019E+03</totfact>
</mgrwt>
</event>
<event>
 7    1  0.9456677E-004  0.2476257E+03  0.7546771E-02  0.1125926E+00
          2   -1    0    0  501    0  0.00000000000E+00  0.00000000000E+00  0.31792669065E+03  0.31792669065E+03  0.00000000000E+00 0. -1.
         -2   -1    0    0    0  501 -0.00000000000E+00 -0.00000000000E+00 -0.19818762622E+03  0.19818762622E+03  0.00000000000E+00 0.  1.
         23    2    1    2    0    0  0.13452092397E+02  0.16504889083E+03 -0.74055174833E+02  0.20167087421E+03  0.88118541918E+02 0.  0.
          5    1    1    2  502    0  0.49209091872E+02 -0.15810077585E+03  0.18859019043E+03  0.25100944200E+03  0.47000000000E+01 0. -1.
         -5    1    3    3    0  503  0.24838925546E+02  0.92269608936E+02 -0.83843357017E+02  0.12721026480E+03  0.47000000000E+01 0.  1.
          5    1    3    3  503    0 -0.11386833149E+02  0.72779281895E+02  0.97881821844E+01  0.74460609403E+02  0.47000000000E+01 0. -1.
         -5    1    1    2    0  502 -0.62661184269E+02 -0.69481149786E+01  0.52040488375E+01  0.63434000663E+02  0.47000000000E+01 0.  1.
<mgrwt>
<rscale>  0 0.23101729E+03</rscale>
<asrwt>0</asrwt>
<pdfrwt beam="1">  1        2 0.48911798E-01 0.24762567E+03</pdfrwt>
<pdfrwt beam="2">  1       -2 0.30490404E-01 0.24762567E+03</pdfrwt>
<totfact> 0.10189294E+03</totfact>
</mgrwt>
</event>
<event>
 8    1  0.9456677E-004  0.1250833E+03  0.7546771E-02  0.1236230E+00
         -3   -1    0    0    0  501 -0.00000000000E+00  0.00000000000E+00  0.43347054207E+03  0.43347054207E+03  0.00000000000E+00 0.  1.
          3   -1    0    0  501    0  0.00000000000E+00 -0.00000000000E+00 -0.36933054415E+02  0.36933054415E+02  0.00000000000E+00 0. -1.
         23    2    1    2    0    0 -0.72521689284E+02 -0.32898229710E+02  0.25229053830E+03  0.28159606528E+03  0.96457966659E+02 0.  0.
         23    2    1    2    0    0  0.72521689284E+02  0.32898229710E+02  0.14424694935E+03  0.18880753120E+03  0.92192258384E+02 0.  0.
          5    1    3    3  502    0  0.22717959328E+02  0.24360869689E+01  0.43617946393E+02  0.49463678020E+02  0.47000000000E+01 0. -1.
         -5    1    3    3    0  502 -0.95239648611E+02 -0.35334316679E+02  0.20867259190E+03  0.23213238726E+03  0.47000000000E+01 0.  1.
          5    1    4    4  503    0  0.33701314270E+02  0.11547783195E+02 -0.19363739788E+01  0.35985683604E+02  0.47000000000E+01 0. -1.
         -5    1    4    4    0  503  0.38820375014E+02  0.21350446515E+02  0.14618332333E+03  0.15282184760E+03  0.47000000000E+01 0.  1.
<mgrwt>
<rscale>  0 0.12426039E+03</rscale>
<asrwt>0</asrwt>
<pdfrwt beam="1">  1        3 0.56820087E-02 0.12508329E+03</pdfrwt>
<pdfrwt beam="2">  1       -3 0.66687772E-01 0.12508329E+03</pdfrwt>
<totfact> 0.93347596E+02</totfact>
</mgrwt>
</event>
<event>
 8    1  0.9456677E-004  0.9458799E+02  0.7546771E-02  0.1293609E+00
         -1   -1    0    0    0  501 -0.00000000000E+00  0.00000000000E+00  0.10646697857E+03  0.10646697857E+03  0.00000000000E+00 0.  1.
          1   -1    0    0  501    0  0.00000000000E+00 -0.00000000000E+00 -0.82343850590E+02  0.82343850590E+02  0.00000000000E+00 0. -1.
         23    2    1    2    0    0 -0.19550707313E+02 -0.10892057818E+02  0.20051380174E+02  0.94135237336E+02  0.89210526181E+02 0.  0.
         23    2    1    2    0    0  0.19550707313E+02  0.10892057818E+02  0.40717478090E+01  0.94675591827E+02  0.91902238697E+02 0.  0.
          5    1    3    3  502    0 -0.14424708690E+02 -0.46952606201E+02 -0.51262848006E+01  0.49608348549E+02  0.47000000000E+01 0. -1.
         -5    1    3    3    0  502 -0.51259986229E+01  0.36060548383E+02  0.25177664974E+02  0.44526888788E+02  0.47000000000E+01 0.  1.
          5    1    4    4  503    0 -0.21251452650E+02 -0.45902209790E+01 -0.31234127075E+02  0.38345209121E+02  0.47000000000E+01 0. -1.
         -5    1    4    4    0  503  0.40802159963E+02  0.15482278797E+02  0.35305874884E+02  0.56330382706E+02  0.47000000000E+01 0.  1.
<mgrwt>
<rscale>  0 0.93927845E+02</rscale>
<asrwt>0</asrwt>
<pdfrwt beam="1">  1        1 0.12668285E-01 0.94587994E+02</pdfrwt>
<pdfrwt beam="2">  1       -1 0.16379535E-01 0.94587994E+02</pdfrwt>
<totfact> 0.11777832E+04</totfact>
</mgrwt>
</event>
<event>
 8    1  0.9456677E-004  0.1030465E+03  0.7546771E-02  0.1279108E+00
         -4   -1    0    0    0  501 -0.00000000000E+00  0.00000000000E+00  0.12833450390E+02  0.12833450390E+02  0.00000000000E+00 0.  1.
          4   -1    0    0  501    0  0.00000000000E+00 -0.00000000000E+00 -0.76370764222E+03  0.76370764222E+03  0.00000000000E+00 0. -1.
         23    2    1    2    0    0 -0.22448764735E+02 -0.45140121964E+02 -0.34622113675E+03  0.36123076591E+03  0.89872204063E+02 0.  0.
         23    2    1    2    0    0  0.22448764735E+02  0.45140121964E+02 -0.40465305508E+03  0.41531032670E+03  0.78720993538E+02 0.  0.
          5    1    4    4  502    0  0.46581716750E+02  0.68906748829E+01 -0.23144687996E+03  0.23623523442E+03  0.47000000000E+01 0. -1.
         -5    1    4    4    0  502 -0.24132952015E+02  0.38249447081E+02 -0.17320617512E+03  0.17907509228E+03  0.47000000000E+01 0.  1.
          5    1    3    3  503    0 -0.38853412620E+02 -0.17614740873E+02 -0.30868577771E+03  0.31165504348E+03  0.47000000000E+01 0.  1.
         -5    1    3    3    0  503  0.16404647885E+02 -0.27525381091E+02 -0.37535359036E+02  0.49575722429E+02  0.47000000000E+01 0. -1.
<mgrwt>
<rscale>  0 0.10056692E+03</rscale>
<asrwt>0</asrwt>
<pdfrwt beam="1">  1        4 0.11749347E+00 0.10304655E+03</pdfrwt>
<pdfrwt beam="2">  1       -4 0.19743772E-02 0.10304655E+03</pdfrwt>
<totfact> 0.94492127E+02</totfact>
</mgrwt>
</event>
<event>
 8    1  0.9456677E-004  0.1043073E+03  0.7546771E-02  0.1272641E+00
         -1   -1    0    0    0  501 -0.00000000000E+00  0.00000000000E+00  0.51811661680E+02  0.51811661680E+02  0.00000000000E+00 0.  1.
          1   -1    0    0  501    0  0.00000000000E+00 -0.00000000000E+00 -0.36661564831E+03  0.36661564831E+03  0.00000000000E+00 0. -1.
         23    2    1    2    0    0  0.38893960267E+02  0.31619041547E+02 -0.29710524784E+03  0.31488338572E+03  0.91474118592E+02 0.  0.
         23    2    1    2    0    0 -0.38893960267E+02 -0.31619041547E+02 -0.17698738791E+02  0.10354392427E+03  0.88857160464E+02 0.  0.
          5    1    4    4  502    0  0.72307894687E+01 -0.35077210145E+02  0.22097829297E+02  0.42345000266E+02  0.47000000000E+01 0. -1.
         -5    1    3    3    0  503 -0.24872870433E+02  0.26713466825E+02 -0.14925070199E+03  0.15372095185E+03  0.47000000000E+01 0.  1.
          5    1    3    3  503    0  0.63766830700E+02  0.49055747225E+01 -0.14785454585E+03  0.16116243386E+03  0.47000000000E+01 0. -1.
         -5    1    4    4    0  502 -0.46124749736E+02  0.34581685975E+01 -0.39796568088E+02  0.61198924009E+02  0.47000000000E+01 0.  1.
<mgrwt>
<rscale>  0 0.10373075E+03</rscale>
<asrwt>0</asrwt>
<pdfrwt beam="1">  1        1 0.56402405E-01 0.10430733E+03</pdfrwt>
<pdfrwt beam="2">  1       -1 0.79710252E-02 0.10430733E+03</pdfrwt>
<totfact> 0.55360674E+03</totfact>
</mgrwt>
</event>
<event>
 8    1  0.9456677E-004  0.1025520E+03  0.7546771E-02  0.1275651E+00
         -3   -1    0    0    0  501 -0.00000000000E+00  0.00000000000E+00  0.38669805000E+02  0.38669805000E+02  0.00000000000E+00 0.  1.
          3   -1    0    0  501    0  0.00000000000E+00 -0.00000000000E+00 -0.26909928689E+03  0.26909928689E+03  0.00000000000E+00 0. -1.
         23    2    1    2    0    0  0.39805458698E+02 -0.19748161655E+02 -0.10861157471E+03  0.14853179395E+03  0.91053584336E+02 0.  0.
         23    2    1    2    0    0 -0.39805458698E+02  0.19748161655E+02 -0.12181790717E+03  0.15923729794E+03  0.92425375931E+02 0.  0.
          5    1    3    3  502    0 -0.23695839803E+02  0.13942819755E+02 -0.41987014202E+02  0.50407285270E+02  0.47000000000E+01 0. -1.
         -5    1    3    3    0  502  0.63501298501E+02 -0.33690981410E+02 -0.66624560510E+02  0.98124508676E+02  0.47000000000E+01 0.  1.
          5    1    4    4  503    0 -0.33984349807E+02  0.42019875192E+02 -0.12429049809E+03  0.13561277174E+03  0.47000000000E+01 0. -1.
         -5    1    4    4    0  503 -0.58211088915E+01 -0.22271713537E+02  0.24725909130E+01  0.23624526205E+02  0.47000000000E+01 0.  1.
<mgrwt>
<rscale>  0 0.10224196E+03</rscale>
<asrwt>0</asrwt>
<pdfrwt beam="1">  1        3 0.41399890E-01 0.10255201E+03</pdfrwt>
<pdfrwt beam="2">  1       -3 0.59492007E-02 0.10255201E+03</pdfrwt>
<totfact> 0.21801247E+03</totfact>
</mgrwt>
</event>
<event>
 8    1  0.9456677E-004  0.1171406E+03  0.7546771E-02  0.1248332E+00
          1   -1    0    0  501    0  0.00000000000E+00  0.00000000000E+00  0.76306596912E+03  0.76306596912E+03  0.00000000000E+00 0. -1.
         -1   -1    0    0    0  501 -0.00000000000E+00 -0.00000000000E+00 -0.18111302524E+02  0.18111302524E+02  0.00000000000E+00 0.  1.
         23    2    1    2    0    0 -0.38721262947E+02  0.62498184751E+02  0.42001709746E+03  0.43576976922E+03  0.89864177002E+02 0.  0.
         23    2    1    2    0    0  0.38721262947E+02 -0.62498184751E+02  0.32493756913E+03  0.34540750242E+03  0.91195173072E+02 0.  0.
          5    1    3    3  502    0  0.23893960951E+02  0.21412893152E+02  0.21540253081E+03  0.21782968953E+03  0.47000000000E+01 0. -1.
         -5    1    4    4    0  503 -0.18802312768E+02 -0.28265273997E+02  0.39995343552E+02  0.52670391924E+02  0.47000000000E+01 0.  1.
          5    1    4    4  503    0  0.57523575715E+02 -0.34232910753E+02  0.28494222558E+03  0.29273711049E+03  0.47000000000E+01 0. -1.
         -5    1    3    3    0  502 -0.62615223898E+02  0.41085291598E+02  0.20461456665E+03  0.21794007969E+03  0.47000000000E+01 0.  1.
<mgrwt>
<rscale>  0 0.11688144E+03</rscale>
<asrwt>0</asrwt>
<pdfrwt beam="1">  1        1 0.11739474E+00 0.11714059E+03</pdfrwt>
<pdfrwt beam="2">  1       -1 0.27863548E-02 0.11714059E+03</pdfrwt>
<totfact> 0.99081578E+03</totfact>
</mgrwt>
</event>
<event>
 8    1  0.9456677E-004  0.1000373E+03  0.7546771E-02  0.1281015E+00
         -1   -1    0    0    0  501 -0.00000000000E+00  0.00000000000E+00  0.93508532937E+02  0.93508532937E+02  0.00000000000E+00 0.  1.
          1   -1    0    0  501    0  0.00000000000E+00 -0.00000000000E+00 -0.19957196018E+03  0.19957196018E+03  0.00000000000E+00 0. -1.
         23    2    1    2    0    0  0.32589264253E+02 -0.21324718247E+02  0.47407404657E+02  0.11070195486E+03  0.92144761329E+02 0.  0.
         23    2    1    2    0    0 -0.32589264253E+02  0.21324718247E+02 -0.15347083190E+03  0.18237853826E+03  0.90508735605E+02 0.  0.
          5    1    3    3  502    0  0.13672881447E+02 -0.56167618205E+02  0.16762142844E+02  0.60372249043E+02  0.47000000000E+01 0. -1.
         -5    1    3    3    0  502  0.18916382805E+02  0.34842899957E+02  0.30645261813E+02  0.50329705815E+02  0.47000000000E+01 0.  1.
          5    1    4    4  503    0 -0.25521430664E+02 -0.22810325546E+02 -0.12378348247E+03  0.12851495986E+03  0.47000000000E+01 0. -1.
         -5    1    4    4    0  503 -0.70678335882E+01  0.44135043794E+02 -0.29687349435E+02  0.53863578407E+02  0.47000000000E+01 0.  1.
<mgrwt>
<rscale>  0 0.99658933E+02</rscale>
<asrwt>0</asrwt>
<pdfrwt beam="1">  1        1 0.30703379E-01 0.10003730E+03</pdfrwt>
<pdfrwt beam="2">  1       -1 0.14385928E-01 0.10003730E+03</pdfrwt>
<totfact> 0.47445022E+03</totfact>
</mgrwt>
</event>
<event>
 8    1  0.9456677E-004  0.1444451E+03  0.7546771E-02  0.1207742E+00
         -4   -1    0    0    0  501 -0.00000000000E+00  0.00000000000E+00  0.22723766916E+02  0.22723766916E+02  0.00000000000E+00 0.  1.
          4   -1    0    0  501    0  0.00000000000E+00 -0.00000000000E+00 -0.91288145127E+03  0.91288145127E+03  0.00000000000E+00 0. -1.
         23    2    1    2    0    0  0.79254973265E+02  0.70668543584E+02 -0.44724075774E+03  0.46972991784E+03  0.96677331851E+02 0.  0.
         23    2    1    2    0    0 -0.79254973265E+02 -0.70668543584E+02 -0.44291692662E+03  0.46587530034E+03  0.97923427986E+02 0.  0.
          5    1    4    4  502    0  0.16738788121E+02 -0.26608978580E+02 -0.17478504565E+03  0.17765170123E+03  0.47000000000E+01 0. -1.
         -5    1    3    3    0  503 -0.69366282036E+01  0.22180623155E+02 -0.22729255500E+03  0.22852591191E+03  0.47000000000E+01 0.  1.
          5    1    3    3  503    0  0.86191601469E+02  0.48487920429E+02 -0.21994820274E+03  0.24120400593E+03  0.47000000000E+01 0. -1.
         -5    1    4    4    0  502 -0.95993761386E+02 -0.44059565005E+02 -0.26813188097E+03  0.28822359911E+03  0.47000000000E+01 0.  1.
<mgrwt>
<rscale>  0 0.14423419E+03</rscale>
<asrwt>0</asrwt>
<pdfrwt beam="1">  1        4 0.14044328E+00 0.14444512E+03</pdfrwt>
<pdfrwt beam="2">  1       -4 0.34959647E-02 0.14444512E+03</pdfrwt>
<totfact> 0.26922660E+02</totfact>
</mgrwt>
</event>
<event>
 8    1  0.9456677E-004  0.1476279E+03  0.7546771E-02  0.1206085E+00
          1   -1    0    0  501    0  0.00000000000E+00  0.00000000000E+00  0.86991736382E+03  0.86991736382E+03  0.00000000000E+00 0. -1.
         -1   -1    0    0    0  501 -0.00000000000E+00 -0.00000000000E+00 -0.35456794941E+02  0.35456794941E+02  0.00000000000E+00 0.  1.
         23    2    1    2    0    0 -0.52489921528E+02  0.91128038331E+02  0.67011929765E+03  0.68446232530E+03  0.91483826159E+02 0.  0.
         23    2    1    2    0    0  0.52489921528E+02 -0.91128038331E+02  0.16434127123E+03  0.22091183346E+03  0.10360730428E+03 0.  0.
          5    1    4    4  502    0  0.27278793044E+02 -0.13058358588E+02  0.12702780793E+03  0.13066295292E+03  0.47000000000E+01 0. -1.
         -5    1    3    3    0  503 -0.20349989945E+02  0.69632521007E+02  0.59882812844E+03  0.60322469071E+03  0.47000000000E+01 0.  1.
          5    1    3    3  503    0 -0.32139931583E+02  0.21495517324E+02  0.71291169204E+02  0.81237634589E+02  0.47000000000E+01 0. -1.
         -5    1    4    4    0  502  0.25211128484E+02 -0.78069679743E+02  0.37313463303E+02  0.90248880537E+02  0.47000000000E+01 0.  1.
<mgrwt>
<rscale>  0 0.14552312E+03</rscale>
<asrwt>0</asrwt>
<pdfrwt beam="1">  1        1 0.13383342E+00 0.14762786E+03</pdfrwt>
<pdfrwt beam="2">  1       -1 0.54548922E-02 0.14762786E+03</pdfrwt>
<totfact> 0.30657712E+03</totfact>
</mgrwt>
</event>
<event>
 8    1  0.9456677E-004  0.9446734E+02  0.7546771E-02  0.1293135E+00
         -2   -1    0    0    0  501 -0.00000000000E+00  0.00000000000E+00  0.30579494587E+02  0.30579494587E+02  0.00000000000E+00 0.  1.
          2   -1    0    0  501    0  0.00000000000E+00 -0.00000000000E+00 -0.34529806181E+03  0.34529806181E+03  0.00000000000E+00 0. -1.
         23    2    1    2    0    0 -0.82706230631E+01  0.19622853590E+02 -0.23499182494E+03  0.25326909679E+03  0.92035960437E+02 0.  0.
         23    2    1    2    0    0  0.82706230631E+01 -0.19622853590E+02 -0.79726742290E+02  0.12260845961E+03  0.90680876388E+02 0.  0.
          5    1    4    4  502    0  0.16013735092E+02 -0.53135661837E+02 -0.34204360154E+02  0.65359517471E+02  0.47000000000E+01 0.  1.
         -5    1    4    4    0  502 -0.77431120287E+01  0.33512808247E+02 -0.45522382136E+02  0.57248942137E+02  0.47000000000E+01 0. -1.
          5    1    3    3  503    0  0.26565634757E+01  0.49679675172E+02 -0.19769787246E+03  0.20391583124E+03  0.47000000000E+01 0. -1.
         -5    1    3    3    0  503 -0.10927186539E+02 -0.30056821582E+02 -0.37293952474E+02  0.49353265549E+02  0.47000000000E+01 0.  1.
<mgrwt>
<rscale>  0 0.94135667E+02</rscale>
<asrwt>0</asrwt>
<pdfrwt beam="1">  1        2 0.53122778E-01 0.94467336E+02</pdfrwt>
<pdfrwt beam="2">  1       -2 0.47045377E-02 0.94467336E+02</pdfrwt>
<totfact> 0.18248333E+04</totfact>
</mgrwt>
</event>
<event>
 8    1  0.9456677E-004  0.9734620E+02  0.7546771E-02  0.1288297E+00
         -2   -1    0    0    0  501 -0.00000000000E+00  0.00000000000E+00  0.22540565649E+02  0.22540565649E+02  0.00000000000E+00 0.  1.
          2   -1    0    0  501    0  0.00000000000E+00 -0.00000000000E+00 -0.40608692566E+03  0.40608692566E+03  0.00000000000E+00 0. -1.
         23    2    1    2    0    0 -0.13830575313E+02 -0.12667896006E+02 -0.17620934862E+03  0.20131074558E+03  0.95522360441E+02 0.  0.
         23    2    1    2    0    0  0.13830575313E+02  0.12667896006E+02 -0.20733701139E+03  0.22731674573E+03  0.91282562363E+02 0.  0.
          5    1    3    3  502    0 -0.33437723046E+02  0.25926531919E+02 -0.13425870289E+03  0.14084656788E+03  0.47000000000E+01 0. -1.
         -5    1    3    3    0  502  0.19607147733E+02 -0.38594427925E+02 -0.41950645726E+02  0.60464177709E+02  0.47000000000E+01 0.  1.
          5    1    4    4  503    0 -0.38570550772E+02  0.10395394574E+02 -0.80749369899E+02  0.90212539895E+02  0.47000000000E+01 0. -1.
         -5    1    4    4    0  503  0.52401126085E+02  0.22725014314E+01 -0.12658764149E+03  0.13710420583E+03  0.47000000000E+01 0.  1.
<mgrwt>
<rscale>  0 0.96289932E+02</rscale>
<asrwt>0</asrwt>
<pdfrwt beam="1">  1        2 0.62474903E-01 0.97346195E+02</pdfrwt>
<pdfrwt beam="2">  1       -2 0.34677798E-02 0.97346195E+02</pdfrwt>
<totfact> 0.24189661E+04</totfact>
</mgrwt>
</event>
<event>
 8    1  0.9456677E-004  0.9747441E+02  0.7546771E-02  0.1287069E+00
          1   -1    0    0  501    0  0.00000000000E+00  0.00000000000E+00  0.40502374278E+03  0.40502374278E+03  0.00000000000E+00 0. -1.
         -1   -1    0    0    0  501 -0.00000000000E+00 -0.00000000000E+00 -0.18887396254E+03  0.18887396254E+03  0.00000000000E+00 0.  1.
         23    2    1    2    0    0  0.18070224004E+02 -0.15693882282E+02 -0.17014885520E+03  0.19609154563E+03  0.94490372013E+02 0.  0.
         23    2    1    2    0    0 -0.18070224004E+02  0.15693882282E+02  0.38629863543E+03  0.39780615969E+03  0.91925372007E+02 0.  0.
          5    1    4    4  502    0  0.25337259719E+02 -0.23495189634E+02  0.17899651075E+03  0.18236184230E+03  0.47000000000E+01 0.  1.
         -5    1    4    4    0  502 -0.43407483723E+02  0.39189071916E+02  0.20730212468E+03  0.21544431739E+03  0.47000000000E+01 0. -1.
          5    1    3    3  503    0 -0.15833043809E+02  0.32288824920E+02 -0.86194189072E+02  0.93513537633E+02  0.47000000000E+01 0. -1.
         -5    1    3    3    0  503  0.33903267813E+02 -0.47982707202E+02 -0.83954666128E+02  0.10257800799E+03  0.47000000000E+01 0.  1.
<mgrwt>
<rscale>  0 0.96847291E+02</rscale>
<asrwt>0</asrwt>
<pdfrwt beam="1">  1        1 0.62311345E-01 0.97474414E+02</pdfrwt>
<pdfrwt beam="2">  1       -1 0.29057533E-01 0.97474414E+02</pdfrwt>
<totfact> 0.64576563E+02</totfact>
</mgrwt>
</event>
<event>
 8    1  0.9456677E-004  0.1007040E+03  0.7546771E-02  0.1283163E+00
          2   -1    0    0  501    0  0.00000000000E+00  0.00000000000E+00  0.16453429295E+03  0.16453429295E+03  0.00000000000E+00 0. -1.
         -2   -1    0    0    0  501 -0.00000000000E+00 -0.00000000000E+00 -0.57895405319E+02  0.57895405319E+02  0.00000000000E+00 0.  1.
         23    2    1    2    0    0 -0.35116427132E+01  0.19114949960E+02  0.70384951854E+02  0.12286309788E+03  0.98810861884E+02 0.  0.
         23    2    1    2    0    0  0.35116427132E+01 -0.19114949960E+02  0.36253935772E+02  0.99566600385E+02  0.90672195885E+02 0.  0.
          5    1    3    3  502    0 -0.67922945424E+01 -0.39830106560E+02  0.36375007666E+02  0.54569257247E+02  0.47000000000E+01 0. -1.
         -5    1    4    4    0  503  0.42654007703E+02 -0.29030450921E+02  0.24076224743E+02  0.57130430173E+02  0.47000000000E+01 0.  1.
          5    1    4    4  503    0 -0.39142364990E+02  0.99155009614E+01  0.12177711029E+02  0.42436170212E+02  0.47000000000E+01 0. -1.
         -5    1    3    3    0  502  0.32806518292E+01  0.58945056520E+02  0.34009944188E+02  0.68293840632E+02  0.47000000000E+01 0.  1.
<mgrwt>
<rscale>  0 0.98648868E+02</rscale>
<asrwt>0</asrwt>
<pdfrwt beam="1">  1        2 0.25312968E-01 0.10070402E+03</pdfrwt>
<pdfrwt beam="2">  1       -2 0.89069855E-02 0.10070402E+03</pdfrwt>
<totfact> 0.15362577E+04</totfact>
</mgrwt>
</event>
<event>
 8    1  0.9456677E-004  0.1086330E+03  0.7546771E-02  0.1265586E+00
         -1   -1    0    0    0  501 -0.00000000000E+00  0.00000000000E+00  0.67450631454E+02  0.67450631454E+02  0.00000000000E+00 0.  1.
          1   -1    0    0  501    0  0.00000000000E+00 -0.00000000000E+00 -0.16684863656E+03  0.16684863656E+03  0.00000000000E+00 0. -1.
         23    2    1    2    0    0  0.31130344914E+02  0.50809278194E+02 -0.51551663157E+02  0.12024432206E+03  0.90831943110E+02 0.  0.
         23    2    1    2    0    0 -0.31130344914E+02 -0.50809278194E+02 -0.47846341952E+02  0.11405494595E+03  0.84667450259E+02 0.  0.
          5    1    3    3  502    0  0.36196257965E+02  0.75015121131E+02 -0.38281516180E+02  0.91787809485E+02  0.47000000000E+01 0. -1.
         -5    1    4    4    0  503  0.21805050186E+02 -0.39423952212E+02 -0.64889044904E+01  0.45759196924E+02  0.47000000000E+01 0.  1.
          5    1    4    4  503    0 -0.52935395101E+02 -0.11385325981E+02 -0.41357437462E+02  0.68295749030E+02  0.47000000000E+01 0. -1.
         -5    1    3    3    0  502 -0.50659130513E+01 -0.24205842937E+02 -0.13270146976E+02  0.28456512578E+02  0.47000000000E+01 0.  1.
<mgrwt>
<rscale>  0 0.10733512E+03</rscale>
<asrwt>0</asrwt>
<pdfrwt beam="1">  1        1 0.25669020E-01 0.10863297E+03</pdfrwt>
<pdfrwt beam="2">  1       -1 0.10377020E-01 0.10863297E+03</pdfrwt>
<totfact> 0.98366799E+03</totfact>
</mgrwt>
</event>
<event>
 8    1  0.9456677E-004  0.1168638E+03  0.7546771E-02  0.1249503E+00
         -1   -1    0    0    0  501 -0.00000000000E+00  0.00000000000E+00  0.12595991967E+03  0.12595991967E+03  0.00000000000E+00 0.  1.
          1   -1    0    0  501    0  0.00000000000E+00 -0.00000000000E+00 -0.10630002664E+03  0.10630002664E+03  0.00000000000E+00 0. -1.
         23    2    1    2    0    0 -0.58005560870E+02  0.38896122147E+02  0.16209639062E+02  0.11798264286E+03  0.93699510176E+02 0.  0.
         23    2    1    2    0    0  0.58005560870E+02 -0.38896122147E+02  0.34502539647E+01  0.11427730345E+03  0.90387191684E+02 0.  0.
          5    1    3    3  502    0 -0.28921783176E+02 -0.13666213381E+02  0.41522892439E+02  0.52625806661E+02  0.47000000000E+01 0. -1.
         -5    1    4    4    0  503  0.38507020993E+02  0.19300705280E+02  0.23811961435E+02  0.49440948589E+02  0.47000000000E+01 0.  1.
          5    1    4    4  503    0  0.19498539878E+02 -0.58196827427E+02 -0.20361707470E+02  0.64836354856E+02  0.47000000000E+01 0. -1.
         -5    1    3    3    0  502 -0.29083777694E+02  0.52562335527E+02 -0.25313253377E+02  0.65356836196E+02  0.47000000000E+01 0.  1.
<mgrwt>
<rscale>  0 0.11619850E+03</rscale>
<asrwt>0</asrwt>
<pdfrwt beam="1">  1        1 0.16353850E-01 0.11686382E+03</pdfrwt>
<pdfrwt beam="2">  1       -1 0.19378449E-01 0.11686382E+03</pdfrwt>
<totfact> 0.66209835E+03</totfact>
</mgrwt>
</event>
<event>
 8    1  0.9456677E-004  0.1226633E+03  0.7546771E-02  0.1239439E+00
          1   -1    0    0  501    0  0.00000000000E+00  0.00000000000E+00  0.44091870463E+03  0.44091870463E+03  0.00000000000E+00 0. -1.
         -1   -1    0    0    0  501 -0.00000000000E+00 -0.00000000000E+00 -0.35312265045E+02  0.35312265045E+02  0.00000000000E+00 0.  1.
         23    2    1    2    0    0 -0.72645194392E+02 -0.33633516592E+02  0.25294238052E+03  0.28039276709E+03  0.90728817186E+02 0.  0.
         23    2    1    2    0    0  0.72645194392E+02  0.33633516592E+02  0.15266405907E+03  0.19583820259E+03  0.92939490822E+02 0.  0.
          5    1    4    4  502    0  0.17916679066E+02  0.16798557280E+02  0.13267099570E+03  0.13500697025E+03  0.47000000000E+01 0. -1.
         -5    1    3    3    0  503 -0.38538082118E+02 -0.63921290650E+02  0.14622415148E+03  0.16423978704E+03  0.47000000000E+01 0.  1.
          5    1    3    3  503    0 -0.34107112273E+02  0.30287774058E+02  0.10671822903E+03  0.11615298005E+03  0.47000000000E+01 0. -1.
         -5    1    4    4    0  502  0.54728515325E+02  0.16834959313E+02  0.19993063368E+02  0.60831232337E+02  0.47000000000E+01 0.  1.
<mgrwt>
<rscale>  0 0.12224457E+03</rscale>
<asrwt>0</asrwt>
<pdfrwt beam="1">  1        1 0.67833643E-01 0.12266331E+03</pdfrwt>
<pdfrwt beam="2">  1       -1 0.54326565E-02 0.12266331E+03</pdfrwt>
<totfact> 0.78553250E+03</totfact>
</mgrwt>
</event>
<event>
 8    1  0.9456677E-004  0.1099442E+03  0.7546771E-02  0.1260827E+00
         -1   -1    0    0    0  501 -0.00000000000E+00  0.00000000000E+00  0.11721412961E+03  0.11721412961E+03  0.00000000000E+00 0.  1.
          1   -1    0    0  501    0  0.00000000000E+00 -0.00000000000E+00 -0.51992300312E+03  0.51992300312E+03  0.00000000000E+00 0. -1.
         23    2    1    2    0    0 -0.58316104774E+02 -0.16243072028E+02  0.84042420534E+02  0.13812355144E+03  0.91380422130E+02 0.  0.
         23    2    1    2    0    0  0.58316104774E+02  0.16243072028E+02 -0.48675129404E+03  0.49901358128E+03  0.91777593044E+02 0.  0.
          5    1    4    4  502    0  0.25106037312E+02  0.53381982287E+02 -0.29193723576E+03  0.29787478706E+03  0.47000000000E+01 0. -1.
         -5    1    3    3    0  503 -0.62109730291E+01 -0.24086816601E+02  0.81301170256E+02  0.85151166785E+02  0.47000000000E+01 0.  1.
          5    1    3    3  503    0 -0.52105131744E+02  0.78437445733E+01  0.27412502784E+01  0.52972384656E+02  0.47000000000E+01 0. -1.
         -5    1    4    4    0  502  0.33210067462E+02 -0.37138910259E+02 -0.19481405828E+03  0.20113879422E+03  0.47000000000E+01 0.  1.
<mgrwt>
<rscale>  0 0.10986130E+03</rscale>
<asrwt>0</asrwt>
<pdfrwt beam="1">  1        1 0.79988156E-01 0.10994422E+03</pdfrwt>
<pdfrwt beam="2">  1       -1 0.18032943E-01 0.10994422E+03</pdfrwt>
<totfact> 0.10176388E+03</totfact>
</mgrwt>
</event>
<event>
 8    1  0.9456677E-004  0.1246599E+03  0.7546771E-02  0.1235972E+00
         -2   -1    0    0    0  501 -0.00000000000E+00  0.00000000000E+00  0.23040997781E+02  0.23040997781E+02  0.00000000000E+00 0.  1.
          2   -1    0    0  501    0  0.00000000000E+00 -0.00000000000E+00 -0.67459690212E+03  0.67459690212E+03  0.00000000000E+00 0. -1.
         23    2    1    2    0    0  0.39785562577E+01  0.84329663774E+02 -0.29387083694E+03  0.31885208691E+03  0.90439280317E+02 0.  0.
         23    2    1    2    0    0 -0.39785562577E+01 -0.84329663774E+02 -0.35768506741E+03  0.37878581299E+03  0.91721118491E+02 0.  0.
          5    1    4    4  502    0  0.43366791074E+02 -0.41337370339E+02 -0.15721471539E+03  0.16830927927E+03  0.47000000000E+01 0. -1.
         -5    1    3    3    0  503  0.24702986428E+02  0.14640310421E+02 -0.19634034374E+02  0.35102158530E+02  0.47000000000E+01 0.  1.
          5    1    3    3  503    0 -0.20724430171E+02  0.69689353353E+02 -0.27423680256E+03  0.28374992838E+03  0.47000000000E+01 0. -1.
         -5    1    4    4    0  502 -0.47345347332E+02 -0.42992293435E+02 -0.20047035202E+03  0.21047653372E+03  0.47000000000E+01 0.  1.
<mgrwt>
<rscale>  0 0.12442418E+03</rscale>
<asrwt>0</asrwt>
<pdfrwt beam="1">  1        2 0.10378413E+00 0.12465988E+03</pdfrwt>
<pdfrwt beam="2">  1       -2 0.35447693E-02 0.12465988E+03</pdfrwt>
<totfact> 0.13683933E+04</totfact>
</mgrwt>
</event>
<event>
 7    1  0.9456677E-004  0.1473380E+03  0.7546771E-02  0.1222717E+00
         -2   -1    0    0    0  501 -0.00000000000E+00  0.00000000000E+00  0.34036614541E+02  0.34036614541E+02  0.00000000000E+00 0.  1.
          2   -1    0    0  501    0  0.00000000000E+00 -0.00000000000E+00 -0.45079053535E+03  0.45079053535E+03  0.00000000000E+00 0. -1.
         23    2    1    2    0    0  0.12162484610E+02  0.44298330851E+02 -0.13870277200E+03  0.17015122002E+03  0.87193523643E+02 0.  0.
          5    1    1    2  502    0 -0.36870540645E+02 -0.57474624877E+02 -0.27797967473E+03  0.28628230619E+03  0.47000000000E+01 0. -1.
         -5    1    1    2    0  502  0.24708056035E+02  0.13176294027E+02 -0.71474074537E-01  0.28393623683E+02  0.47000000000E+01 0.  1.
          5    1    3    3  503    0 -0.36395299932E+02  0.26966778707E+02 -0.78459937644E+02  0.90718668564E+02  0.47000000000E+01 0. -1.
         -5    1    3    3    0  503  0.48557784542E+02  0.17331552144E+02 -0.60242834358E+02  0.79432551456E+02  0.47000000000E+01 0.  1.
<mgrwt>
<rscale>  0 0.13324632E+03</rscale>
<asrwt>0</asrwt>
<pdfrwt beam="1">  1        2 0.69352385E-01 0.14733804E+03</pdfrwt>
<pdfrwt beam="2">  1       -2 0.52364026E-02 0.14733804E+03</pdfrwt>
<totfact> 0.12164374E+04</totfact>
</mgrwt>
</event>
<event>
 8    1  0.9456677E-004  0.9839751E+02  0.7546771E-02  0.1284449E+00
          2   -1    0    0  501    0  0.00000000000E+00  0.00000000000E+00  0.42631638969E+03  0.42631638969E+03  0.00000000000E+00 0. -1.
         -2   -1    0    0    0  501 -0.00000000000E+00 -0.00000000000E+00 -0.26281577786E+02  0.26281577786E+02  0.00000000000E+00 0.  1.
         23    2    1    2    0    0 -0.27640709267E+02 -0.22712643208E+02  0.28585015736E+03  0.30186573917E+03  0.90181700188E+02 0.  0.
         23    2    1    2    0    0  0.27640709267E+02  0.22712643208E+02  0.11418465454E+03  0.15073222831E+03  0.91663495173E+02 0.  0.
          5    1    4    4  502    0 -0.13845705663E+02 -0.15050422252E+02  0.84545110101E+02  0.87110185496E+02  0.47000000000E+01 0. -1.
         -5    1    3    3    0  503  0.24754942911E+02 -0.33197836375E+02  0.15353067052E+03  0.15908695838E+03  0.47000000000E+01 0.  1.
          5    1    3    3  503    0 -0.52395652179E+02  0.10485193167E+02  0.13231948685E+03  0.14277878079E+03  0.47000000000E+01 0. -1.
         -5    1    4    4    0  502  0.41486414930E+02  0.37763065460E+02  0.29639544439E+02  0.63622042809E+02  0.47000000000E+01 0.  1.
<mgrwt>
<rscale>  0 0.98050958E+02</rscale>
<asrwt>0</asrwt>
<pdfrwt beam="1">  1        2 0.65587132E-01 0.98397507E+02</pdfrwt>
<pdfrwt beam="2">  1       -2 0.40433200E-02 0.98397507E+02</pdfrwt>
<totfact> 0.18354865E+04</totfact>
</mgrwt>
</event>
<event>
 8    1  0.9456677E-004  0.2056672E+03  0.7546771E-02  0.1145221E+00
         -2   -1    0    0    0  501 -0.00000000000E+00  0.00000000000E+00  0.21735344290E+02  0.21735344290E+02  0.00000000000E+00 0.  1.
          2   -1    0    0  501    0  0.00000000000E+00 -0.00000000000E+00 -0.20230062749E+04  0.20230062749E+04  0.00000000000E+00 0. -1.
         23    2    1    2    0    0 -0.17878132109E+03 -0.42909132756E+02 -0.12083161081E+04  0.12255491139E+04  0.90215625091E+02 0.  0.
         23    2    1    2    0    0  0.17878132109E+03  0.42909132756E+02 -0.79295482250E+03  0.81919250529E+03  0.92168626759E+02 0.  0.
          5    1    4    4  502    0  0.14902318995E+03  0.65532978527E+02 -0.55967862544E+03  0.58289341752E+03  0.47000000000E+01 0. -1.
         -5    1    4    4    0  502  0.29758131141E+02 -0.22623845771E+02 -0.23327619706E+03  0.23629908777E+03  0.47000000000E+01 0.  1.
          5    1    3    3  503    0 -0.34556687741E+02 -0.46412954975E+02 -0.26775453451E+03  0.27397610810E+03  0.47000000000E+01 0. -1.
         -5    1    3    3    0  503 -0.14422463335E+03  0.35038222190E+01 -0.94056157358E+03  0.95157300578E+03  0.47000000000E+01 0.  1.
<mgrwt>
<rscale>  0 0.20544994E+03</rscale>
<asrwt>0</asrwt>
<pdfrwt beam="1">  1        2 0.31123169E+00 0.20566723E+03</pdfrwt>
<pdfrwt beam="2">  1       -2 0.33438996E-02 0.20566723E+03</pdfrwt>
<totfact> 0.26065660E+03</totfact>
</mgrwt>
</event>
<event>
 8    1  0.9456677E-004  0.9941738E+02  0.7546771E-02  0.1283060E+00
          2   -1    0    0  501    0  0.00000000000E+00  0.00000000000E+00  0.70894868157E+03  0.70894868157E+03  0.00000000000E+00 0. -1.
         -2   -1    0    0    0  501 -0.00000000000E+00 -0.00000000000E+00 -0.27218118177E+02  0.27218118177E+02  0.00000000000E+00 0.  1.
         23    2    1    2    0    0  0.96644324589E+01  0.37037817233E+02  0.60420764247E+03  0.61233217363E+03  0.91753008077E+02 0.  0.
         23    2    1    2    0    0 -0.96644324589E+01 -0.37037817233E+02  0.77522920929E+02  0.12383462612E+03  0.88656698540E+02 0.  0.
          5    1    4    4  502    0 -0.34142645666E+02 -0.54758813584E+02  0.61683468170E+02  0.89393445865E+02  0.47000000000E+01 0. -1.
         -5    1    3    3    0  503  0.45958849102E+02 -0.51263777750E+00  0.24508115951E+03  0.24939796181E+03  0.47000000000E+01 0.  1.
          5    1    3    3  503    0 -0.36294416643E+02  0.37550455011E+02  0.35912648295E+03  0.36293421182E+03  0.47000000000E+01 0. -1.
         -5    1    4    4    0  502  0.24478213207E+02  0.17720996351E+02  0.15839452760E+02  0.34441180252E+02  0.47000000000E+01 0.  1.
<mgrwt>
<rscale>  0 0.98697028E+02</rscale>
<asrwt>0</asrwt>
<pdfrwt beam="1">  1        2 0.10906901E+00 0.99417381E+02</pdfrwt>
<pdfrwt beam="2">  1       -2 0.41874033E-02 0.99417381E+02</pdfrwt>
<totfact> 0.99304462E+03</totfact>
</mgrwt>
</event>
<event>
 8    1  0.9456677E-004  0.1053720E+03  0.7546771E-02  0.1271507E+00
         -1   -1    0    0    0  501 -0.00000000000E+00  0.00000000000E+00  0.23081612053E+03  0.23081612053E+03  0.00000000000E+00 0.  1.
          1   -1    0    0  501    0  0.00000000000E+00 -0.00000000000E+00 -0.54326138956E+02  0.54326138956E+02  0.00000000000E+00 0. -1.
         23    2    1    2    0    0  0.25247928335E+02  0.43182794552E+02  0.14493206262E+03  0.17918862791E+03  0.92741845824E+02 0.  0.
         23    2    1    2    0    0 -0.25247928335E+02 -0.43182794552E+02  0.31557918948E+02  0.10595363157E+03  0.87909374721E+02 0.  0.
          5    1    3    3  502    0  0.45798624302E+02 -0.91915526285E+01  0.83205419747E+02  0.95536540145E+02  0.47000000000E+01 0. -1.
         -5    1    3    3    0  502 -0.20550695966E+02  0.52374347180E+02  0.61726642877E+02  0.83652087769E+02  0.47000000000E+01 0.  1.
          5    1    4    4  503    0 -0.50157291626E+02 -0.44188829172E+02  0.20539006604E+01  0.67042635947E+02  0.47000000000E+01 0. -1.
         -5    1    4    4    0  503  0.24909363290E+02  0.10060346198E+01  0.29504018288E+02  0.38910995622E+02  0.47000000000E+01 0.  1.
<mgrwt>
<rscale>  0 0.10429893E+03</rscale>
<asrwt>0</asrwt>
<pdfrwt beam="1">  1        1 0.83578677E-02 0.10537202E+03</pdfrwt>
<pdfrwt beam="2">  1       -1 0.35510172E-01 0.10537202E+03</pdfrwt>
<totfact> 0.58238762E+03</totfact>
</mgrwt>
</event>
<event>
 8    1  0.9456677E-004  0.1912817E+03  0.7546771E-02  0.1157465E+00
         -4   -1    0    0    0  501 -0.00000000000E+00  0.00000000000E+00  0.12339068629E+03  0.12339068629E+03  0.00000000000E+00 0.  1.
          4   -1    0    0  501    0  0.00000000000E+00 -0.00000000000E+00 -0.56095203845E+03  0.56095203845E+03  0.00000000000E+00 0. -1.
         23    2    1    2    0    0  0.74446236847E+02  0.15008340956E+03  0.16411165855E+02  0.19198445971E+03  0.92311615751E+02 0.  0.
         23    2    1    2    0    0 -0.74446236847E+02 -0.15008340956E+03 -0.45397251802E+03  0.49235826503E+03  0.90875420323E+02 0.  0.
          5    1    4    4  502    0 -0.21527583617E+02 -0.11250721784E+03 -0.36180367968E+03  0.37953300720E+03  0.47000000000E+01 0. -1.
         -5    1    3    3    0  503  0.95423523329E+02  0.11741008916E+03  0.20104789573E+02  0.15269928096E+03  0.47000000000E+01 0.  1.
          5    1    3    3  503    0 -0.20977286482E+02  0.32673320393E+02 -0.36936237178E+01  0.39285178755E+02  0.47000000000E+01 0. -1.
         -5    1    4    4    0  502 -0.52918653230E+02 -0.37576191715E+02 -0.92168838343E+02  0.11282525783E+03  0.47000000000E+01 0.  1.
<mgrwt>
<rscale>  0 0.19110928E+03</rscale>
<asrwt>0</asrwt>
<pdfrwt beam="1">  1        4 0.86300313E-01 0.19128175E+03</pdfrwt>
<pdfrwt beam="2">  1       -4 0.18983183E-01 0.19128175E+03</pdfrwt>
<totfact> 0.52504330E+01</totfact>
</mgrwt>
</event>
<event>
 8    1  0.9456677E-004  0.9269776E+02  0.7546771E-02  0.1301043E+00
          2   -1    0    0  501    0  0.00000000000E+00  0.00000000000E+00  0.18098812448E+03  0.18098812448E+03  0.00000000000E+00 0. -1.
         -2   -1    0    0    0  501 -0.00000000000E+00 -0.00000000000E+00 -0.48910258932E+02  0.48910258932E+02  0.00000000000E+00 0.  1.
         23    2    1    2    0    0 -0.12303880467E+02  0.86749259141E+01  0.26020183197E+02  0.89039921458E+02  0.83811800276E+02 0.  0.
         23    2    1    2    0    0  0.12303880467E+02 -0.86749259141E+01  0.10605768235E+03  0.14085846196E+03  0.91467122533E+02 0.  0.
          5    1    4    4  502    0 -0.37204275020E+02  0.10275115174E+02  0.52762135515E+02  0.65541353477E+02  0.47000000000E+01 0. -1.
         -5    1    3    3    0  503 -0.18787879208E+02 -0.23089096807E+02 -0.17284468498E+02  0.34740950588E+02  0.47000000000E+01 0.  1.
          5    1    3    3  503    0  0.64839987413E+01  0.31764022721E+02  0.43304651696E+02  0.54298970870E+02  0.47000000000E+01 0. -1.
         -5    1    4    4    0  502  0.49508155486E+02 -0.18950041088E+02  0.53295546837E+02  0.75317108479E+02  0.47000000000E+01 0.  1.
<mgrwt>
<rscale>  0 0.90751141E+02</rscale>
<asrwt>0</asrwt>
<pdfrwt beam="1">  1        2 0.27844327E-01 0.92697758E+02</pdfrwt>
<pdfrwt beam="2">  1       -2 0.75246553E-02 0.92697758E+02</pdfrwt>
<totfact> 0.17792921E+04</totfact>
</mgrwt>
</event>
<event>
 8    1  0.9456677E-004  0.1006016E+03  0.7546771E-02  0.1281083E+00
          1   -1    0    0  501    0  0.00000000000E+00  0.00000000000E+00  0.85624732207E+02  0.85624732207E+02  0.00000000000E+00 0. -1.
         -1   -1    0    0    0  501 -0.00000000000E+00 -0.00000000000E+00 -0.11378081007E+03  0.11378081007E+03  0.00000000000E+00 0.  1.
         23    2    1    2    0    0  0.35960163372E+02 -0.30584569973E+01 -0.12166475479E+02  0.10133460475E+03  0.93905226080E+02 0.  0.
         23    2    1    2    0    0 -0.35960163372E+02  0.30584569973E+01 -0.15989602380E+02  0.98070937523E+02  0.89776132092E+02 0.  0.
          5    1    4    4  502    0 -0.56160405381E+02  0.26833875612E+02 -0.21550378400E+02  0.66034512356E+02  0.47000000000E+01 0. -1.
         -5    1    4    4    0  502  0.20200242009E+02 -0.23775418614E+02  0.55607760201E+01  0.32036425167E+02  0.47000000000E+01 0.  1.
          5    1    3    3  503    0 -0.21136430158E+02 -0.10417739799E+02  0.23369046364E+02  0.33518357811E+02  0.47000000000E+01 0. -1.
         -5    1    3    3    0  503  0.57096593530E+02  0.73592828016E+01 -0.35535521843E+02  0.67816246938E+02  0.47000000000E+01 0.  1.
<mgrwt>
<rscale>  0 0.99626781E+02</rscale>
<asrwt>0</asrwt>
<pdfrwt beam="1">  1        1 0.13173036E-01 0.10060159E+03</pdfrwt>
<pdfrwt beam="2">  1       -1 0.17504740E-01 0.10060159E+03</pdfrwt>
<totfact> 0.10148311E+04</totfact>
</mgrwt>
</event>
<event>
 8    1  0.9456677E-004  0.9581109E+02  0.7546771E-02  0.1291601E+00
         -2   -1    0    0    0  501 -0.00000000000E+00  0.00000000000E+00  0.10572147102E+02  0.10572147102E+02  0.00000000000E+00 0.  1.
          2   -1    0    0  501    0  0.00000000000E+00 -0.00000000000E+00 -0.83977012239E+03  0.83977012239E+03  0.00000000000E+00 0. -1.
         23    2    1    2    0    0  0.30878795914E+02 -0.66467057079E+00 -0.46141727926E+03  0.47125966452E+03  0.90696328339E+02 0.  0.
         23    2    1    2    0    0 -0.30878795914E+02  0.66467057079E+00 -0.36778069603E+03  0.37908260498E+03  0.86527678824E+02 0.  0.
          5    1    4    4  502    0 -0.35116869367E+02  0.32568573707E+02 -0.30076566999E+03  0.30459150473E+03  0.47000000000E+01 0. -1.
         -5    1    4    4    0  502  0.42380734528E+01 -0.31903903136E+02 -0.67015026042E+02  0.74491100256E+02  0.47000000000E+01 0.  1.
          5    1    3    3  503    0 -0.66566749739E+01  0.31760629172E+02 -0.31278244070E+03  0.31449641349E+03  0.47000000000E+01 0. -1.
         -5    1    3    3    0  503  0.37535470888E+02 -0.32425299743E+02 -0.14863483856E+03  0.15676325102E+03  0.47000000000E+01 0.  1.
<mgrwt>
<rscale>  0 0.94811489E+02</rscale>
<asrwt>0</asrwt>
<pdfrwt beam="1">  1        2 0.12919540E+00 0.95811094E+02</pdfrwt>
<pdfrwt beam="2">  1       -2 0.16264843E-02 0.95811094E+02</pdfrwt>
<totfact> 0.31820084E+04</totfact>
</mgrwt>
</event>
<event>
 8    1  0.9456677E-004  0.1047884E+03  0.7546771E-02  0.1270999E+00
         -1   -1    0    0    0  501 -0.00000000000E+00  0.00000000000E+00  0.59371391837E+02  0.59371391837E+02  0.00000000000E+00 0.  1.
          1   -1    0    0  501    0  0.00000000000E+00 -0.00000000000E+00 -0.25512936494E+03  0.25512936494E+03  0.00000000000E+00 0. -1.
         23    2    1    2    0    0 -0.47882303099E+02  0.14531689966E+02 -0.14760562976E+02  0.10582286940E+03  0.92069107225E+02 0.  0.
         23    2    1    2    0    0  0.47882303099E+02 -0.14531689966E+02 -0.18099741013E+03  0.20867788738E+03  0.91008314148E+02 0.  0.
          5    1    4    4  502    0  0.27925446477E+02  0.26280304440E+02 -0.14631425531E+03  0.15132890097E+03  0.47000000000E+01 0. -1.
         -5    1    3    3    0  503 -0.70470940311E+02  0.18693295050E+02  0.75632903470E+01  0.73449888148E+02  0.47000000000E+01 0.  1.
          5    1    3    3  503    0  0.22588637211E+02 -0.41616050845E+01 -0.22323853323E+02  0.32372981252E+02  0.47000000000E+01 0. -1.
         -5    1    4    4    0  502  0.19956856623E+02 -0.40811994406E+02 -0.34683154816E+02  0.57348986405E+02  0.47000000000E+01 0.  1.
<mgrwt>
<rscale>  0 0.10455491E+03</rscale>
<asrwt>0</asrwt>
<pdfrwt beam="1">  1        1 0.39250672E-01 0.10478838E+03</pdfrwt>
<pdfrwt beam="2">  1       -1 0.91340602E-02 0.10478838E+03</pdfrwt>
<totfact> 0.70473685E+03</totfact>
</mgrwt>
</event>
<event>
 8    1  0.9456677E-004  0.9188427E+02  0.7546771E-02  0.1299157E+00
          1   -1    0    0  501    0  0.00000000000E+00  0.00000000000E+00  0.32776850970E+02  0.32776850970E+02  0.00000000000E+00 0. -1.
         -1   -1    0    0    0  501 -0.00000000000E+00 -0.00000000000E+00 -0.26218675162E+03  0.26218675162E+03  0.00000000000E+00 0.  1.
         23    2    1    2    0    0 -0.59730803958E+01 -0.16928266796E+01 -0.89142567888E+02  0.12801998380E+03  0.91674290246E+02 0.  0.
         23    2    1    2    0    0  0.59730803958E+01  0.16928266796E+01 -0.14026733276E+03  0.16694361878E+03  0.90314472049E+02 0.  0.
          5    1    3    3  502    0  0.14800099237E+02  0.14448953205E+02  0.11334695827E+02  0.24049542940E+02  0.47000000000E+01 0. -1.
         -5    1    4    4    0  503  0.29714320827E+02 -0.27711787795E+02 -0.11280382875E+03  0.11999032388E+03  0.47000000000E+01 0.  1.
          5    1    4    4  503    0 -0.23741240431E+02  0.29404614475E+02 -0.27463504014E+02  0.46953294905E+02  0.47000000000E+01 0. -1.
         -5    1    3    3    0  502 -0.20773179633E+02 -0.16141779885E+02 -0.10047726371E+03  0.10397044086E+03  0.47000000000E+01 0.  1.
<mgrwt>
<rscale>  0 0.91543208E+02</rscale>
<asrwt>0</asrwt>
<pdfrwt beam="1">  1        1 0.50425925E-02 0.91884269E+02</pdfrwt>
<pdfrwt beam="2">  1       -1 0.40336423E-01 0.91884269E+02</pdfrwt>
<totfact> 0.90957696E+03</totfact>
</mgrwt>
</event>
<event>
 8    1  0.9456677E-004  0.1869782E+03  0.7546771E-02  0.1161280E+00
         -3   -1    0    0    0  501 -0.00000000000E+00  0.00000000000E+00  0.34388465195E+03  0.34388465195E+03  0.00000000000E+00 0.  1.
          3   -1    0    0  501    0  0.00000000000E+00 -0.00000000000E+00 -0.11273216766E+03  0.11273216766E+03  0.00000000000E+00 0. -1.
         23    2    1    2    0    0  0.38193136149E+02 -0.15833183182E+03  0.18752628264E+03  0.26461661058E+03  0.91258749163E+02 0.  0.
         23    2    1    2    0    0 -0.38193136149E+02  0.15833183182E+03  0.43626201646E+02  0.19200020903E+03  0.91832184889E+02 0.  0.
          5    1    4    4  502    0 -0.68043467699E+02  0.97271794436E+02  0.25621540760E+02  0.12153299486E+03  0.47000000000E+01 0. -1.
         -5    1    3    3    0  503  0.93479537831E+01 -0.10078870762E+03  0.16971597550E+03  0.19766474183E+03  0.47000000000E+01 0.  1.
          5    1    3    3  503    0  0.28845182365E+02 -0.57543124201E+02  0.17810307137E+02  0.66951868748E+02  0.47000000000E+01 0. -1.
         -5    1    4    4    0  502  0.29850331551E+02  0.61060037385E+02  0.18004660886E+02  0.70467214169E+02  0.47000000000E+01 0.  1.
<mgrwt>
<rscale>  0 0.18690788E+03</rscale>
<asrwt>0</asrwt>
<pdfrwt beam="1">  1        3 0.17343411E-01 0.18697817E+03</pdfrwt>
<pdfrwt beam="2">  1       -3 0.52905331E-01 0.18697817E+03</pdfrwt>
<totfact> 0.24923552E+02</totfact>
</mgrwt>
</event>
<event>
 8    1  0.9456677E-004  0.1021912E+03  0.7546771E-02  0.1276728E+00
          2   -1    0    0  501    0  0.00000000000E+00  0.00000000000E+00  0.17771763472E+03  0.17771763472E+03  0.00000000000E+00 0. -1.
         -2   -1    0    0    0  501 -0.00000000000E+00 -0.00000000000E+00 -0.66097235878E+02  0.66097235878E+02  0.00000000000E+00 0.  1.
         23    2    1    2    0    0 -0.10596540916E+02  0.41086105558E+02  0.98852249547E+02  0.14082913137E+03  0.90888515511E+02 0.  0.
         23    2    1    2    0    0  0.10596540916E+02 -0.41086105558E+02  0.12768149298E+02  0.10298573923E+03  0.92966026588E+02 0.  0.
          5    1    3    3  502    0  0.63083497817E+01  0.67195305297E+02  0.56950022701E+02  0.88433022207E+02  0.47000000000E+01 0. -1.
         -5    1    3    3    0  502 -0.16904890697E+02 -0.26109199739E+02  0.41902226846E+02  0.52396109161E+02  0.47000000000E+01 0.  1.
          5    1    4    4  503    0  0.44739020273E+02 -0.30577918417E+02  0.30997303309E+02  0.62606004841E+02  0.47000000000E+01 0. -1.
         -5    1    4    4    0  503 -0.34142479357E+02 -0.10508187141E+02 -0.18229154011E+02  0.40379734392E+02  0.47000000000E+01 0.  1.
<mgrwt>
<rscale>  0 0.10171631E+03</rscale>
<asrwt>0</asrwt>
<pdfrwt beam="1">  1        2 0.27341174E-01 0.10219118E+03</pdfrwt>
<pdfrwt beam="2">  1       -2 0.10168806E-01 0.10219118E+03</pdfrwt>
<totfact> 0.11515383E+04</totfact>
</mgrwt>
</event>
<event>
 8    1  0.9456677E-004  0.1073821E+03  0.7546771E-02  0.1267835E+00
         -1   -1    0    0    0  501 -0.00000000000E+00  0.00000000000E+00  0.17591353805E+03  0.17591353805E+03  0.00000000000E+00 0.  1.
          1   -1    0    0  501    0  0.00000000000E+00 -0.00000000000E+00 -0.64818544551E+02  0.64818544551E+02  0.00000000000E+00 0. -1.
         23    2    1    2    0    0 -0.46942011819E+02 -0.18981595896E+01  0.32400845896E+02  0.10760171820E+03  0.91220389509E+02 0.  0.
         23    2    1    2    0    0  0.46942011819E+02  0.18981595896E+01  0.78694147606E+02  0.13313036440E+03  0.96559668466E+02 0.  0.
          5    1    3    3  502    0 -0.41548443888E+02 -0.42882341162E+02  0.26822591310E+02  0.65625526875E+02  0.47000000000E+01 0. -1.
         -5    1    3    3    0  502 -0.53935679312E+01  0.40984181573E+02  0.55782545861E+01  0.41976191328E+02  0.47000000000E+01 0.  1.
          5    1    4    4  503    0 -0.27924085945E+02 -0.35705815100E+01  0.73711405955E+01  0.29477573541E+02  0.47000000000E+01 0. -1.
         -5    1    4    4    0  503  0.74866097764E+02  0.54687410996E+01  0.71323007010E+02  0.10365279086E+03  0.47000000000E+01 0.  1.
<mgrwt>
<rscale>  0 0.10616807E+03</rscale>
<asrwt>0</asrwt>
<pdfrwt beam="1">  1        1 0.99720839E-02 0.10738214E+03</pdfrwt>
<pdfrwt beam="2">  1       -1 0.27063621E-01 0.10738214E+03</pdfrwt>
<totfact> 0.72825601E+03</totfact>
</mgrwt>
</event>
<event>
 8    1  0.9456677E-004  0.1039122E+03  0.7546771E-02  0.1272516E+00
         -1   -1    0    0    0  501 -0.00000000000E+00  0.00000000000E+00  0.30360526480E+02  0.30360526480E+02  0.00000000000E+00 0.  1.
          1   -1    0    0  501    0  0.00000000000E+00 -0.00000000000E+00 -0.45512023952E+03  0.45512023952E+03  0.00000000000E+00 0. -1.
         23    2    1    2    0    0  0.33804876244E+02 -0.35145736409E+02 -0.97595591331E+02  0.14221104481E+03  0.91220005337E+02 0.  0.
         23    2    1    2    0    0 -0.33804876244E+02  0.35145736409E+02 -0.32716412171E+03  0.34326972119E+03  0.91759176681E+02 0.  0.
          5    1    3    3  502    0  0.17410849934E+02  0.29138818635E+02 -0.49202722228E+02  0.59960039372E+02  0.47000000000E+01 0. -1.
         -5    1    4    4    0  503 -0.30298717810E+02 -0.14012322989E+02 -0.42076289683E+02  0.53915319251E+02  0.47000000000E+01 0.  1.
          5    1    4    4  503    0 -0.35061584339E+01  0.49158059398E+02 -0.28508783203E+03  0.28935440194E+03  0.47000000000E+01 0. -1.
         -5    1    3    3    0  502  0.16394026310E+02 -0.64284555044E+02 -0.48392869103E+02  0.82251005440E+02  0.47000000000E+01 0.  1.
<mgrwt>
<rscale>  0 0.10379301E+03</rscale>
<asrwt>0</asrwt>
<pdfrwt beam="1">  1        1 0.70018497E-01 0.10391217E+03</pdfrwt>
<pdfrwt beam="2">  1       -1 0.46708503E-02 0.10391217E+03</pdfrwt>
<totfact> 0.93129701E+03</totfact>
</mgrwt>
</event>
<event>
 8    1  0.9456677E-004  0.1179513E+03  0.7546771E-02  0.1259428E+00
         -1   -1    0    0    0  501 -0.00000000000E+00  0.00000000000E+00  0.42750042738E+02  0.42750042738E+02  0.00000000000E+00 0.  1.
          1   -1    0    0  501    0  0.00000000000E+00 -0.00000000000E+00 -0.25761199884E+03  0.25761199884E+03  0.00000000000E+00 0. -1.
         23    2    1    2    0    0 -0.52422983688E+01 -0.11457782829E+02 -0.13311384347E+03  0.17785329622E+03  0.11727632827E+03 0.  0.
         23    2    1    2    0    0  0.52422983688E+01  0.11457782829E+02 -0.81748112623E+02  0.12250874536E+03  0.90370771224E+02 0.  0.
          5    1    3    3  502    0  0.20392100368E+02  0.30300160371E+02 -0.96747876210E+00  0.36836985369E+02  0.47000000000E+01 0. -1.
         -5    1    4    4    0  503  0.29262530003E+02  0.17191701312E+02  0.27283642557E+01  0.34371270382E+02  0.47000000000E+01 0.  1.
          5    1    4    4  503    0 -0.24020231634E+02 -0.57339184831E+01 -0.84476476879E+02  0.88137474974E+02  0.47000000000E+01 0. -1.
         -5    1    3    3    0  502 -0.25634398736E+02 -0.41757943200E+02 -0.13214636471E+03  0.14101631085E+03  0.47000000000E+01 0.  1.
<mgrwt>
<rscale>  0 0.11061885E+03</rscale>
<asrwt>0</asrwt>
<pdfrwt beam="1">  1        1 0.39632615E-01 0.11795126E+03</pdfrwt>
<pdfrwt beam="2">  1       -1 0.65769296E-02 0.11795126E+03</pdfrwt>
<totfact> 0.11499713E+04</totfact>
</mgrwt>
</event>
<event>
 8    1  0.9456677E-004  0.1065032E+03  0.7546771E-02  0.1267258E+00
         -2   -1    0    0    0  501 -0.00000000000E+00  0.00000000000E+00  0.56901429378E+02  0.56901429378E+02  0.00000000000E+00 0.  1.
          2   -1    0    0  501    0  0.00000000000E+00 -0.00000000000E+00 -0.20155912292E+03  0.20155912292E+03  0.00000000000E+00 0. -1.
         23    2    1    2    0    0  0.53024583437E+02 -0.10760986102E+02 -0.58001676361E+02  0.12127298401E+03  0.91736235591E+02 0.  0.
         23    2    1    2    0    0 -0.53024583437E+02  0.10760986102E+02 -0.86656017182E+02  0.13718756829E+03  0.91562865332E+02 0.  0.
          5    1    3    3  502    0 -0.20289975688E+00 -0.43515274789E+02 -0.21854976375E+02  0.48921879569E+02  0.47000000000E+01 0. -1.
         -5    1    3    3    0  502  0.53227483194E+02  0.32754288687E+02 -0.36146699986E+02  0.72351104445E+02  0.47000000000E+01 0.  1.
          5    1    4    4  503    0 -0.28009797301E+02 -0.35177679330E+02 -0.67585883354E+02  0.81313956345E+02  0.47000000000E+01 0. -1.
         -5    1    4    4    0  503 -0.25014786136E+02  0.45938665432E+02 -0.19070133828E+02  0.55873611940E+02  0.47000000000E+01 0.  1.
<mgrwt>
<rscale>  0 0.10646591E+03</rscale>
<asrwt>0</asrwt>
<pdfrwt beam="1">  1        2 0.31009096E-01 0.10650325E+03</pdfrwt>
<pdfrwt beam="2">  1       -2 0.87540660E-02 0.10650325E+03</pdfrwt>
<totfact> 0.12738428E+04</totfact>
</mgrwt>
</event>
<event>
 8    1  0.9456677E-004  0.9439793E+02  0.7546771E-02  0.1292594E+00
         -2   -1    0    0    0  501 -0.00000000000E+00  0.00000000000E+00  0.34758477697E+03  0.34758477697E+03  0.00000000000E+00 0.  1.
          2   -1    0    0  501    0  0.00000000000E+00 -0.00000000000E+00 -0.34011444915E+03  0.34011444915E+03  0.00000000000E+00 0. -1.
         23    2    1    2    0    0 -0.13191432375E+02  0.96714637380E+01  0.33438596704E+03  0.34745495271E+03  0.92969984994E+02 0.  0.
         23    2    1    2    0    0  0.13191432375E+02 -0.96714637380E+01 -0.32691563922E+03  0.34024427342E+03  0.92869690059E+02 0.  0.
          5    1    3    3  502    0 -0.27956561077E+02 -0.34083333870E+02  0.11582221734E+03  0.12401660770E+03  0.47000000000E+01 0. -1.
         -5    1    4    4    0  503  0.47740380604E+02 -0.11000242682E+02 -0.26163385611E+03  0.26622267737E+03  0.47000000000E+01 0.  1.
          5    1    4    4  503    0 -0.34548948229E+02  0.13287789440E+01 -0.65281783102E+02  0.74021596053E+02  0.47000000000E+01 0. -1.
         -5    1    3    3    0  502  0.14765128702E+02  0.43754797608E+02  0.21856374969E+03  0.22343834501E+03  0.47000000000E+01 0.  1.
<mgrwt>
<rscale>  0 0.94373226E+02</rscale>
<asrwt>0</asrwt>
<pdfrwt beam="1">  1        2 0.52325300E-01 0.94397930E+02</pdfrwt>
<pdfrwt beam="2">  1       -2 0.53474581E-01 0.94397930E+02</pdfrwt>
<totfact> 0.32353278E+02</totfact>
</mgrwt>
</event>
<event>
 8    1  0.9456677E-004  0.1210924E+03  0.7546771E-02  0.1241756E+00
          3   -1    0    0  501    0  0.00000000000E+00  0.00000000000E+00  0.22813719568E+03  0.22813719568E+03  0.00000000000E+00 0. -1.
         -3   -1    0    0    0  501 -0.00000000000E+00 -0.00000000000E+00 -0.82098563585E+02  0.82098563585E+02  0.00000000000E+00 0.  1.
         23    2    1    2    0    0 -0.74364547397E+02 -0.20586262390E+02 -0.17032203650E+00  0.12109252756E+03  0.93324654371E+02 0.  0.
         23    2    1    2    0    0  0.74364547397E+02  0.20586262390E+02  0.14620895413E+03  0.18914323170E+03  0.91892457371E+02 0.  0.
          5    1    3    3  502    0 -0.89582521578E+02 -0.34603186671E+01 -0.18154709300E+02  0.91589767153E+02  0.47000000000E+01 0. -1.
         -5    1    4    4    0  503  0.83025588080E+02 -0.14876655462E+01  0.14205954126E+03  0.16461611309E+03  0.47000000000E+01 0.  1.
          5    1    4    4  503    0 -0.86610406839E+01  0.22073927936E+02  0.41494128691E+01  0.24527118612E+02  0.47000000000E+01 0. -1.
         -5    1    3    3    0  502  0.15217974181E+02 -0.17125943723E+02  0.17984387263E+02  0.29502760410E+02  0.47000000000E+01 0.  1.
<mgrwt>
<rscale>  0 0.12081639E+03</rscale>
<asrwt>0</asrwt>
<pdfrwt beam="1">  1        3 0.35098030E-01 0.12109241E+03</pdfrwt>
<pdfrwt beam="2">  1       -3 0.12630548E-01 0.12109241E+03</pdfrwt>
<totfact> 0.90165914E+02</totfact>
</mgrwt>
</event>
<event>
 8    1  0.9456677E-004  0.8479896E+02  0.7546771E-02  0.1317438E+00
          1   -1    0    0  501    0  0.00000000000E+00  0.00000000000E+00  0.37714847877E+02  0.37714847877E+02  0.00000000000E+00 0. -1.
         -1   -1    0    0    0  501 -0.00000000000E+00 -0.00000000000E+00 -0.19813416294E+03  0.19813416294E+03  0.00000000000E+00 0.  1.
         23    2    1    2    0    0 -0.17033566406E+02  0.24004224875E+02 -0.11074681906E+03  0.13948376665E+03  0.79526838441E+02 0.  0.
         23    2    1    2    0    0  0.17033566406E+02 -0.24004224875E+02 -0.49672496007E+02  0.96365244164E+02  0.77152823843E+02 0.  0.
          5    1    4    4  502    0 -0.25334325245E+02 -0.29917707726E+02 -0.21986088579E+02  0.45192647214E+02  0.47000000000E+01 0.  1.
         -5    1    3    3    0  503 -0.87712513569E+01 -0.20449912275E+02 -0.83372882626E+02  0.86419102748E+02  0.47000000000E+01 0.  1.
          5    1    3    3  503    0 -0.82623150489E+01  0.44454137150E+02 -0.27373936431E+02  0.53064663906E+02  0.47000000000E+01 0. -1.
         -5    1    4    4    0  502  0.42367891651E+02  0.59134828515E+01 -0.27686407427E+02  0.51172596950E+02  0.47000000000E+01 0. -1.
<mgrwt>
<rscale>  0 0.84237836E+02</rscale>
<asrwt>0</asrwt>
<pdfrwt beam="1">  1        1 0.58022841E-02 0.84798958E+02</pdfrwt>
<pdfrwt beam="2">  1       -1 0.30482180E-01 0.84798958E+02</pdfrwt>
<totfact> 0.12017194E+04</totfact>
</mgrwt>
</event>
<event>
 8    1  0.9456677E-004  0.1120294E+03  0.7546771E-02  0.1261199E+00
         -1   -1    0    0    0  501 -0.00000000000E+00  0.00000000000E+00  0.34079580170E+03  0.34079580170E+03  0.00000000000E+00 0.  1.
          1   -1    0    0  501    0  0.00000000000E+00 -0.00000000000E+00 -0.34230636337E+02  0.34230636337E+02  0.00000000000E+00 0. -1.
         23    2    1    2    0    0  0.49459264580E+02  0.17003466368E+02  0.14059220187E+03  0.17976858738E+03  0.99071898426E+02 0.  0.
         23    2    1    2    0    0 -0.49459264580E+02 -0.17003466368E+02  0.16597296349E+03  0.19525785066E+03  0.88562220584E+02 0.  0.
          5    1    4    4  502    0 -0.26301651250E+02 -0.11884366212E+02  0.17821559632E+01  0.29296434914E+02  0.47000000000E+01 0. -1.
         -5    1    4    4    0  502 -0.23157613330E+02 -0.51191001553E+01  0.16419080752E+03  0.16596141575E+03  0.47000000000E+01 0.  1.
          5    1    3    3  503    0  0.58667898972E+02 -0.20275622240E+02  0.45493867730E+02  0.77102563044E+02  0.47000000000E+01 0. -1.
         -5    1    3    3    0  503 -0.92086343919E+01  0.37279088608E+02  0.95098334145E+02  0.10266602433E+03  0.47000000000E+01 0.  1.
<mgrwt>
<rscale>  0 0.10966106E+03</rscale>
<asrwt>0</asrwt>
<pdfrwt beam="1">  1        1 0.52662520E-02 0.11202936E+03</pdfrwt>
<pdfrwt beam="2">  1       -1 0.52430121E-01 0.11202936E+03</pdfrwt>
<totfact> 0.54652133E+03</totfact>
</mgrwt>
</event>
<event>
 8    1  0.9456677E-004  0.1125730E+03  0.7546771E-02  0.1261903E+00
         -1   -1    0    0    0  501 -0.00000000000E+00  0.00000000000E+00  0.67157222327E+03  0.67157222327E+03  0.00000000000E+00 0.  1.
          1   -1    0    0  501    0  0.00000000000E+00 -0.00000000000E+00 -0.16818947775E+02  0.16818947775E+02  0.00000000000E+00 0. -1.
         23    2    1    2    0    0  0.12883953464E+02  0.45163520108E+02  0.34894977699E+03  0.36665873392E+03  0.10230806661E+03 0.  0.
         23    2    1    2    0    0 -0.12883953464E+02 -0.45163520108E+02  0.30580349851E+03  0.32173243713E+03  0.88262345284E+02 0.  0.
          5    1    3    3  502    0 -0.30226494512E+02  0.49243943472E+02  0.27316181118E+03  0.27924554075E+03  0.47000000000E+01 0. -1.
         -5    1    4    4    0  503  0.28188324877E+02 -0.43911106095E+02  0.11316909420E+03  0.12470806221E+03  0.47000000000E+01 0.  1.
          5    1    4    4  503    0 -0.41072278341E+02 -0.12524140132E+01  0.19263440431E+03  0.19702437492E+03  0.47000000000E+01 0. -1.
         -5    1    3    3    0  502  0.43110447975E+02 -0.40804233639E+01  0.75787965806E+02  0.87413193172E+02  0.47000000000E+01 0.  1.
<mgrwt>
<rscale>  0 0.10928331E+03</rscale>
<asrwt>0</asrwt>
<pdfrwt beam="1">  1        1 0.25875309E-02 0.11257300E+03</pdfrwt>
<pdfrwt beam="2">  1       -1 0.10331878E+00 0.11257300E+03</pdfrwt>
<totfact> 0.37258545E+03</totfact>
</mgrwt>
</event>
<event>
 8    1  0.9456677E-004  0.1101796E+03  0.7546771E-02  0.1265035E+00
          1   -1    0    0  501    0  0.00000000000E+00  0.00000000000E+00  0.23376615874E+03  0.23376615874E+03  0.00000000000E+00 0. -1.
         -1   -1    0    0    0  501 -0.00000000000E+00 -0.00000000000E+00 -0.61796666876E+02  0.61796666876E+02  0.00000000000E+00 0.  1.
         23    2    1    2    0    0  0.29513126231E+02 -0.34977915927E+02  0.16039400051E+03  0.19459131631E+03  0.10022507552E+03 0.  0.
         23    2    1    2    0    0 -0.29513126231E+02  0.34977915927E+02  0.11575491356E+02  0.10097150930E+03  0.89256789479E+02 0.  0.
          5    1    4    4  502    0 -0.46923653238E+02 -0.93298024243E+01 -0.89817112407E+01  0.48904351374E+02  0.47000000000E+01 0. -1.
         -5    1    4    4    0  502  0.17410527007E+02  0.44307718351E+02  0.20557202597E+02  0.52067157929E+02  0.47000000000E+01 0.  1.
          5    1    3    3  503    0  0.20531062624E+02 -0.38135670269E+01  0.16039772871E+03  0.16181961933E+03  0.47000000000E+01 0. -1.
         -5    1    3    3    0  503  0.89820636065E+01 -0.31164348900E+02 -0.37282031895E-02  0.32771696979E+02  0.47000000000E+01 0.  1.
<mgrwt>
<rscale>  0 0.10762358E+03</rscale>
<asrwt>0</asrwt>
<pdfrwt beam="1">  1        1 0.35964024E-01 0.11017960E+03</pdfrwt>
<pdfrwt beam="2">  1       -1 0.95071796E-02 0.11017960E+03</pdfrwt>
<totfact> 0.74138935E+03</totfact>
</mgrwt>
</event>
<event>
 8    1  0.9456677E-004  0.1081151E+03  0.7546771E-02  0.1266496E+00
          3   -1    0    0  501    0  0.00000000000E+00  0.00000000000E+00  0.15100118140E+03  0.15100118140E+03  0.00000000000E+00 0. -1.
         -3   -1    0    0    0  501 -0.00000000000E+00 -0.00000000000E+00 -0.74058699489E+02  0.74058699489E+02  0.00000000000E+00 0.  1.
         23    2    1    2    0    0  0.43861031156E+02 -0.19398063416E+02  0.42449940803E+02  0.11157593568E+03  0.91362558140E+02 0.  0.
         23    2    1    2    0    0 -0.43861031156E+02  0.19398063416E+02  0.34492541114E+02  0.11348394522E+03  0.96895797178E+02 0.  0.
          5    1    4    4  502    0  0.73585581297E+01 -0.33283693891E+02  0.89820327181E+01  0.35562895953E+02  0.47000000000E+01 0. -1.
         -5    1    4    4    0  502 -0.51219589286E+02  0.52681757307E+02  0.25510508396E+02  0.77921049263E+02  0.47000000000E+01 0.  1.
          5    1    3    3  503    0 -0.10600239354E+02 -0.25188926500E+02  0.48914240040E+02  0.56227573052E+02  0.47000000000E+01 0. -1.
         -5    1    3    3    0  503  0.54461270510E+02  0.57908630838E+01 -0.64642992377E+01  0.55348362627E+02  0.47000000000E+01 0.  1.
<mgrwt>
<rscale>  0 0.10686096E+03</rscale>
<asrwt>0</asrwt>
<pdfrwt beam="1">  1        3 0.23230951E-01 0.10811508E+03</pdfrwt>
<pdfrwt beam="2">  1       -3 0.11393646E-01 0.10811508E+03</pdfrwt>
<totfact> 0.22347968E+03</totfact>
</mgrwt>
</event>
<event>
 8    1  0.9456677E-004  0.1021639E+03  0.7546771E-02  0.1282184E+00
         -3   -1    0    0    0  501 -0.00000000000E+00  0.00000000000E+00  0.34995092734E+03  0.34995092734E+03  0.00000000000E+00 0.  1.
          3   -1    0    0  501    0  0.00000000000E+00 -0.00000000000E+00 -0.26566236721E+02  0.26566236721E+02  0.00000000000E+00 0. -1.
         23    2    1    2    0    0 -0.41844056599E+01  0.13698329729E+02  0.16047459911E+03  0.18422268709E+03  0.89335032265E+02 0.  0.
         23    2    1    2    0    0  0.41844056599E+01 -0.13698329729E+02  0.16291009151E+03  0.19229447697E+03  0.10115490335E+03 0.  0.
          5    1    3    3  502    0  0.25625165353E+02 -0.23056168733E+02  0.32153241993E+02  0.47372534096E+02  0.47000000000E+01 0. -1.
         -5    1    3    3    0  502 -0.29809571013E+02  0.36754498462E+02  0.12832135712E+03  0.13685015299E+03  0.47000000000E+01 0.  1.
          5    1    4    4  503    0 -0.32601288858E+02 -0.43234337108E+02  0.78462139850E+02  0.95448673800E+02  0.47000000000E+01 0. -1.
         -5    1    4    4    0  503  0.36785694518E+02  0.29536007379E+02  0.84447951659E+02  0.96845803174E+02  0.47000000000E+01 0.  1.
<mgrwt>
<rscale>  0 0.99107495E+02</rscale>
<asrwt>0</asrwt>
<pdfrwt beam="1">  1        3 0.40871136E-02 0.10216393E+03</pdfrwt>
<pdfrwt beam="2">  1       -3 0.53838601E-01 0.10216393E+03</pdfrwt>
<totfact> 0.23438441E+03</totfact>
</mgrwt>
</event>
<event>
 8    1  0.9456677E-004  0.9434836E+02  0.7546771E-02  0.1293169E+00
          1   -1    0    0  501    0  0.00000000000E+00  0.00000000000E+00  0.55178219238E+02  0.55178219238E+02  0.00000000000E+00 0. -1.
         -1   -1    0    0    0  501 -0.00000000000E+00 -0.00000000000E+00 -0.16635493297E+03  0.16635493297E+03  0.00000000000E+00 0.  1.
         23    2    1    2    0    0  0.20242836099E+02 -0.27112436860E+01 -0.77355055779E+02  0.12130581945E+03  0.91182092107E+02 0.  0.
         23    2    1    2    0    0 -0.20242836099E+02  0.27112436860E+01 -0.33821657954E+02  0.10022733276E+03  0.92111293719E+02 0.  0.
          5    1    4    4  502    0  0.17861414923E+01 -0.35560888686E+02 -0.41797749673E+02  0.55108157139E+02  0.47000000000E+01 0. -1.
         -5    1    3    3    0  503  0.51280231269E+02 -0.17370704716E+01 -0.73360131844E+02  0.89646408054E+02  0.47000000000E+01 0.  1.
          5    1    3    3  503    0 -0.31037395170E+02 -0.97417321440E+00 -0.39949239346E+01  0.31659411391E+02  0.47000000000E+01 0. -1.
         -5    1    4    4    0  502 -0.22028977591E+02  0.38272132372E+02  0.79760917186E+01  0.45119175625E+02  0.47000000000E+01 0.  1.
<mgrwt>
<rscale>  0 0.94120803E+02</rscale>
<asrwt>0</asrwt>
<pdfrwt beam="1">  1        1 0.84889568E-02 0.94348363E+02</pdfrwt>
<pdfrwt beam="2">  1       -1 0.25593067E-01 0.94348363E+02</pdfrwt>
<totfact> 0.97582705E+03</totfact>
</mgrwt>
</event>
<event>
 8    1  0.9456677E-004  0.1064703E+03  0.7546771E-02  0.1267560E+00
          1   -1    0    0  501    0  0.00000000000E+00  0.00000000000E+00  0.53453314936E+02  0.53453314936E+02  0.00000000000E+00 0. -1.
         -1   -1    0    0    0  501 -0.00000000000E+00 -0.00000000000E+00 -0.44014060392E+03  0.44014060392E+03  0.00000000000E+00 0.  1.
         23    2    1    2    0    0 -0.18452969932E+02  0.52497688162E+02 -0.37177214345E+03  0.38671754767E+03  0.90771227097E+02 0.  0.
         23    2    1    2    0    0  0.18452969932E+02 -0.52497688162E+02 -0.14915145541E+02  0.10687637119E+03  0.90019874424E+02 0.  0.
          5    1    4    4  502    0  0.25987251730E+02 -0.47262875651E+01 -0.43052625197E+02  0.50727641212E+02  0.47000000000E+01 0.  1.
         -5    1    3    3    0  503 -0.41012066953E+02  0.53537207421E+01 -0.25913474058E+03  0.26245676927E+03  0.47000000000E+01 0.  1.
          5    1    3    3  503    0  0.22559097021E+02  0.47143967419E+02 -0.11263740286E+03  0.12426077839E+03  0.47000000000E+01 0. -1.
         -5    1    4    4    0  502 -0.75342817978E+01 -0.47771400596E+02  0.28137479656E+02  0.56148729981E+02  0.47000000000E+01 0. -1.
<mgrwt>
<rscale>  0 0.10631003E+03</rscale>
<asrwt>0</asrwt>
<pdfrwt beam="1">  1        1 0.82235867E-02 0.10647035E+03</pdfrwt>
<pdfrwt beam="2">  1       -1 0.67713941E-01 0.10647035E+03</pdfrwt>
<totfact> 0.18471327E+03</totfact>
</mgrwt>
</event>
<event>
 8    1  0.9456677E-004  0.9690633E+02  0.7546771E-02  0.1288476E+00
          2   -1    0    0  501    0  0.00000000000E+00  0.00000000000E+00  0.50826066487E+03  0.50826066487E+03  0.00000000000E+00 0. -1.
         -2   -1    0    0    0  501 -0.00000000000E+00 -0.00000000000E+00 -0.21419965357E+02  0.21419965357E+02  0.00000000000E+00 0.  1.
         23    2    1    2    0    0  0.12313961234E+02  0.23501066948E+02  0.34699519616E+03  0.35954068143E+03  0.90332173995E+02 0.  0.
         23    2    1    2    0    0 -0.12313961234E+02 -0.23501066948E+02  0.13984550335E+03  0.17013994879E+03  0.93203559902E+02 0.  0.
          5    1    3    3  502    0 -0.37242559761E+02 -0.22984456596E+01  0.15728622124E+03  0.16171993230E+03  0.47000000000E+01 0. -1.
         -5    1    4    4    0  503 -0.12713191327E+02 -0.52873954435E+02  0.45010258105E+02  0.70748099805E+02  0.47000000000E+01 0.  1.
          5    1    4    4  503    0  0.39923009267E+00  0.29372887488E+02  0.94835245249E+02  0.99391848989E+02  0.47000000000E+01 0. -1.
         -5    1    3    3    0  502  0.49556520995E+02  0.25799512607E+02  0.18970897492E+03  0.19782074913E+03  0.47000000000E+01 0.  1.
<mgrwt>
<rscale>  0 0.96209250E+02</rscale>
<asrwt>0</asrwt>
<pdfrwt beam="1">  1        2 0.78193940E-01 0.96906333E+02</pdfrwt>
<pdfrwt beam="2">  1       -2 0.32953797E-02 0.96906333E+02</pdfrwt>
<totfact> 0.20489870E+04</totfact>
</mgrwt>
</event>
<event>
 8    1  0.9456677E-004  0.9276350E+02  0.7546771E-02  0.1297127E+00
         -2   -1    0    0    0  501 -0.00000000000E+00  0.00000000000E+00  0.13635638796E+03  0.13635638796E+03  0.00000000000E+00 0.  1.
          2   -1    0    0  501    0  0.00000000000E+00 -0.00000000000E+00 -0.20195159663E+03  0.20195159663E+03  0.00000000000E+00 0. -1.
         23    2    1    2    0    0 -0.22986290727E+00  0.18363084382E+02  0.10786529069E+03  0.14226731016E+03  0.90927503537E+02 0.  0.
         23    2    1    2    0    0  0.22986290727E+00 -0.18363084382E+02 -0.17346049937E+03  0.19604067443E+03  0.89477066817E+02 0.  0.
          5    1    3    3  502    0 -0.20734434194E+02 -0.39590386472E+00 -0.82287409028E+01  0.22800782400E+02  0.47000000000E+01 0. -1.
         -5    1    4    4    0  503  0.23931635809E+02  0.53684413723E+01 -0.66724187290E+01  0.25848685207E+02  0.47000000000E+01 0.  1.
          5    1    4    4  503    0 -0.23701772902E+02 -0.23731525754E+02 -0.16678808064E+03  0.17019198922E+03  0.47000000000E+01 0. -1.
         -5    1    3    3    0  502  0.20504571286E+02  0.18758988246E+02  0.11609403159E+03  0.11946652776E+03  0.47000000000E+01 0.  1.
<mgrwt>
<rscale>  0 0.92406119E+02</rscale>
<asrwt>0</asrwt>
<pdfrwt beam="1">  1        2 0.31069476E-01 0.92763498E+02</pdfrwt>
<pdfrwt beam="2">  1       -2 0.20977906E-01 0.92763498E+02</pdfrwt>
<totfact> 0.30861763E+03</totfact>
</mgrwt>
</event>
<event>
 8    1  0.9456677E-004  0.1006186E+03  0.7546771E-02  0.1280208E+00
          1   -1    0    0  501    0  0.00000000000E+00  0.00000000000E+00  0.17899057664E+03  0.17899057664E+03  0.00000000000E+00 0. -1.
         -1   -1    0    0    0  501 -0.00000000000E+00 -0.00000000000E+00 -0.55520267032E+02  0.55520267032E+02  0.00000000000E+00 0.  1.
         23    2    1    2    0    0 -0.24133569473E+02 -0.29312532596E+02  0.68673971066E+02  0.11993883693E+03  0.90705879414E+02 0.  0.
         23    2    1    2    0    0  0.24133569473E+02  0.29312532596E+02  0.54796338537E+02  0.11457200673E+03  0.93179677329E+02 0.  0.
          5    1    4    4  502    0  0.30651595510E+02 -0.13683072395E+02  0.61596722956E+02  0.70306422583E+02  0.47000000000E+01 0. -1.
         -5    1    4    4    0  502 -0.65180260366E+01  0.42995604991E+02 -0.68003844185E+01  0.44265584151E+02  0.47000000000E+01 0.  1.
          5    1    3    3  503    0  0.19022269356E+02  0.11426977250E+02  0.54077697735E+02  0.58642219713E+02  0.47000000000E+01 0. -1.
         -5    1    3    3    0  503 -0.43155838829E+02 -0.40739509846E+02  0.14596273331E+02  0.61296617221E+02  0.47000000000E+01 0.  1.
<mgrwt>
<rscale>  0 0.10004206E+03</rscale>
<asrwt>0</asrwt>
<pdfrwt beam="1">  1        1 0.27537012E-01 0.10061862E+03</pdfrwt>
<pdfrwt beam="2">  1       -1 0.85415796E-02 0.10061862E+03</pdfrwt>
<totfact> 0.12014467E+04</totfact>
</mgrwt>
</event>
<event>
 8    1  0.9456677E-004  0.9781389E+02  0.7546771E-02  0.1285441E+00
          1   -1    0    0  501    0  0.00000000000E+00  0.00000000000E+00  0.91808771516E+02  0.91808771516E+02  0.00000000000E+00 0. -1.
         -1   -1    0    0    0  501 -0.00000000000E+00 -0.00000000000E+00 -0.10397009463E+03  0.10397009463E+03  0.00000000000E+00 0.  1.
         23    2    1    2    0    0 -0.41703809620E+01 -0.42094233443E+02 -0.14054022756E+02  0.97946665902E+02  0.87216496371E+02 0.  0.
         23    2    1    2    0    0  0.41703809620E+01  0.42094233443E+02  0.18926996435E+01  0.97832200242E+02  0.88194333864E+02 0.  0.
          5    1    3    3  502    0  0.32985325390E+02 -0.19106438375E+02  0.19103579991E+02  0.42896671747E+02  0.47000000000E+01 0. -1.
         -5    1    4    4    0  503 -0.24172186738E+02  0.28809953516E+02 -0.33334618193E+02  0.50473704078E+02  0.47000000000E+01 0.  1.
          5    1    4    4  503    0  0.28342567700E+02  0.13284279927E+02  0.35227317836E+02  0.47358496164E+02  0.47000000000E+01 0. -1.
         -5    1    3    3    0  502 -0.37155706352E+02 -0.22987795068E+02 -0.33157602747E+02  0.55049994156E+02  0.47000000000E+01 0.  1.
<mgrwt>
<rscale>  0 0.97592955E+02</rscale>
<asrwt>0</asrwt>
<pdfrwt beam="1">  1        1 0.14124426E-01 0.97813890E+02</pdfrwt>
<pdfrwt beam="2">  1       -1 0.15995399E-01 0.97813890E+02</pdfrwt>
<totfact> 0.10655860E+04</totfact>
</mgrwt>
</event>
<event>
 8    1  0.9456677E-004  0.1108127E+03  0.7546771E-02  0.1259600E+00
         -1   -1    0    0    0  501 -0.00000000000E+00  0.00000000000E+00  0.27381689245E+02  0.27381689245E+02  0.00000000000E+00 0.  1.
          1   -1    0    0  501    0  0.00000000000E+00 -0.00000000000E+00 -0.46414669155E+03  0.46414669155E+03  0.00000000000E+00 0. -1.
         23    2    1    2    0    0  0.51333206312E+02 -0.38968441062E+02 -0.27087929640E+03  0.29266882849E+03  0.90143288617E+02 0.  0.
         23    2    1    2    0    0 -0.51333206312E+02  0.38968441062E+02 -0.16588570591E+03  0.19885955231E+03  0.88732275133E+02 0.  0.
          5    1    4    4  502    0 -0.76561036327E+02  0.26715890251E+02 -0.12191560501E+03  0.14649517337E+03  0.47000000000E+01 0. -1.
         -5    1    4    4    0  502  0.25227830015E+02  0.12252550810E+02 -0.43970100901E+02  0.52364378941E+02  0.47000000000E+01 0.  1.
          5    1    3    3  503    0  0.55765561348E+02 -0.42351966578E+00 -0.22749047915E+03  0.23427331326E+03  0.47000000000E+01 0. -1.
         -5    1    3    3    0  503 -0.44323550365E+01 -0.38544921396E+02 -0.43388817242E+02  0.58395515224E+02  0.47000000000E+01 0.  1.
<mgrwt>
<rscale>  0 0.11052538E+03</rscale>
<asrwt>0</asrwt>
<pdfrwt beam="1">  1        1 0.71407180E-01 0.11081268E+03</pdfrwt>
<pdfrwt beam="2">  1       -1 0.42125678E-02 0.11081268E+03</pdfrwt>
<totfact> 0.10618651E+04</totfact>
</mgrwt>
</event>
<event>
 8    1  0.9456677E-004  0.1017711E+03  0.7546771E-02  0.1277893E+00
          2   -1    0    0  501    0  0.00000000000E+00  0.00000000000E+00  0.12485654477E+03  0.12485654477E+03  0.00000000000E+00 0. -1.
         -2   -1    0    0    0  501 -0.00000000000E+00 -0.00000000000E+00 -0.81985747121E+02  0.81985747121E+02  0.00000000000E+00 0.  1.
         23    2    1    2    0    0 -0.39850529538E+02  0.10321907722E+02  0.32721666623E+02  0.10456639301E+03  0.90381505839E+02 0.  0.
         23    2    1    2    0    0  0.39850529538E+02 -0.10321907722E+02  0.10149131028E+02  0.10227589888E+03  0.93073885423E+02 0.  0.
          5    1    3    3  502    0 -0.11832528090E+01 -0.33354566481E+02  0.31345388012E+02  0.46027714933E+02  0.47000000000E+01 0. -1.
         -5    1    4    4    0  503 -0.68744706242E+01  0.34224987031E+02 -0.55830478453E+01  0.35663265511E+02  0.47000000000E+01 0.  1.
          5    1    4    4  503    0  0.46725000162E+02 -0.44546894754E+02  0.15732178873E+02  0.66612633370E+02  0.47000000000E+01 0. -1.
         -5    1    3    3    0  502 -0.38667276729E+02  0.43676474204E+02  0.13762786111E+01  0.58538678080E+02  0.47000000000E+01 0.  1.
<mgrwt>
<rscale>  0 0.10115137E+03</rscale>
<asrwt>0</asrwt>
<pdfrwt beam="1">  1        2 0.19208699E-01 0.10177109E+03</pdfrwt>
<pdfrwt beam="2">  1       -2 0.12613192E-01 0.10177109E+03</pdfrwt>
<totfact> 0.12101329E+04</totfact>
</mgrwt>
</event>
<event>
 8    1  0.9456677E-004  0.1288291E+03  0.7546771E-02  0.1229241E+00
          1   -1    0    0  501    0  0.00000000000E+00  0.00000000000E+00  0.10538170943E+04  0.10538170943E+04  0.00000000000E+00 0. -1.
         -1   -1    0    0    0  501 -0.00000000000E+00 -0.00000000000E+00 -0.19431923668E+02  0.19431923668E+02  0.00000000000E+00 0.  1.
         23    2    1    2    0    0 -0.14782382253E+01  0.90646528822E+02  0.75102453158E+03  0.76197712281E+03  0.91390974769E+02 0.  0.
         23    2    1    2    0    0  0.14782382253E+01 -0.90646528822E+02  0.28336063908E+03  0.31127189519E+03  0.91531210963E+02 0.  0.
          5    1    3    3  502    0 -0.37275077710E+02  0.13313257991E+02  0.16363140809E+03  0.16841615709E+03  0.47000000000E+01 0. -1.
         -5    1    4    4    0  503 -0.22972351755E+02 -0.36191263092E+02  0.34260710838E+02  0.55076517469E+02  0.47000000000E+01 0.  1.
          5    1    4    4  503    0  0.24450589980E+02 -0.54455265730E+02  0.24909992824E+03  0.25619537772E+03  0.47000000000E+01 0. -1.
         -5    1    3    3    0  502  0.35796839484E+02  0.77333270830E+02  0.58739312349E+03  0.59356096572E+03  0.47000000000E+01 0.  1.
<mgrwt>
<rscale>  0 0.12880421E+03</rscale>
<asrwt>0</asrwt>
<pdfrwt beam="1">  1        1 0.16212566E+00 0.12882912E+03</pdfrwt>
<pdfrwt beam="2">  1       -1 0.29895276E-02 0.12882912E+03</pdfrwt>
<totfact> 0.53837007E+03</totfact>
</mgrwt>
</event>
<event>
 8    1  0.9456677E-004  0.1208100E+03  0.7546771E-02  0.1243055E+00
          1   -1    0    0  501    0  0.00000000000E+00  0.00000000000E+00  0.29134247215E+03  0.29134247215E+03  0.00000000000E+00 0. -1.
         -1   -1    0    0    0  501 -0.00000000000E+00 -0.00000000000E+00 -0.48824820710E+02  0.48824820710E+02  0.00000000000E+00 0.  1.
         23    2    1    2    0    0  0.66386839772E+02  0.40173353103E+02  0.12045951553E+03  0.17060348889E+03  0.92595597878E+02 0.  0.
         23    2    1    2    0    0 -0.66386839772E+02 -0.40173353103E+02  0.12205813591E+03  0.16956380397E+03  0.88501888565E+02 0.  0.
          5    1    4    4  502    0  0.43978523849E+01 -0.33591249568E+02  0.80690234079E+01  0.35141318870E+02  0.47000000000E+01 0.  1.
         -5    1    3    3    0  503  0.51575901584E+02  0.24404054566E+02  0.10211897110E+02  0.58155002760E+02  0.47000000000E+01 0.  1.
          5    1    3    3  503    0  0.14810938188E+02  0.15769298538E+02  0.11024761842E+03  0.11244848613E+03  0.47000000000E+01 0. -1.
         -5    1    4    4    0  502 -0.70784692157E+02 -0.65821035353E+01  0.11398911250E+03  0.13442248510E+03  0.47000000000E+01 0. -1.
<mgrwt>
<rscale>  0 0.12002532E+03</rscale>
<asrwt>0</asrwt>
<pdfrwt beam="1">  1        1 0.44821918E-01 0.12081000E+03</pdfrwt>
<pdfrwt beam="2">  1       -1 0.75115110E-02 0.12081000E+03</pdfrwt>
<totfact> 0.81190522E+03</totfact>
</mgrwt>
</event>
<event>
 8    1  0.9456677E-004  0.9369441E+02  0.7546771E-02  0.1294481E+00
          1   -1    0    0  501    0  0.00000000000E+00  0.00000000000E+00  0.21924162756E+03  0.21924162756E+03  0.00000000000E+00 0. -1.
         -1   -1    0    0    0  501 -0.00000000000E+00 -0.00000000000E+00 -0.41464252051E+02  0.41464252051E+02  0.00000000000E+00 0.  1.
         23    2    1    2    0    0  0.83589904540E+01 -0.17604320596E+02  0.62434927084E+02  0.11210398286E+03  0.91046131313E+02 0.  0.
         23    2    1    2    0    0 -0.83589904540E+01  0.17604320596E+02  0.11534244843E+03  0.14860189676E+03  0.91645286217E+02 0.  0.
          5    1    3    3  502    0  0.40762148019E+02 -0.36760315670E+02  0.34628961560E+02  0.65070181328E+02  0.47000000000E+01 0. -1.
         -5    1    4    4    0  503  0.21430174237E+02  0.46817165039E+02  0.64408814709E+02  0.82593490799E+02  0.47000000000E+01 0.  1.
          5    1    4    4  503    0 -0.29789164691E+02 -0.29212844443E+02  0.50933633718E+02  0.66008405958E+02  0.47000000000E+01 0. -1.
         -5    1    3    3    0  502 -0.32403157565E+02  0.19155995074E+02  0.27805965524E+02  0.47033801528E+02  0.47000000000E+01 0.  1.
<mgrwt>
<rscale>  0 0.93547578E+02</rscale>
<asrwt>0</asrwt>
<pdfrwt beam="1">  1        1 0.33729480E-01 0.93694415E+02</pdfrwt>
<pdfrwt beam="2">  1       -1 0.63791158E-02 0.93694415E+02</pdfrwt>
<totfact> 0.14362939E+04</totfact>
</mgrwt>
</event>
<event>
 8    1  0.9456677E-004  0.9551311E+02  0.7546771E-02  0.1290604E+00
         -1   -1    0    0    0  501 -0.00000000000E+00  0.00000000000E+00  0.82033081668E+02  0.82033081668E+02  0.00000000000E+00 0.  1.
          1   -1    0    0  501    0  0.00000000000E+00 -0.00000000000E+00 -0.12833464285E+03  0.12833464285E+03  0.00000000000E+00 0. -1.
         23    2    1    2    0    0  0.28296102580E+02 -0.13554244345E+02  0.16484668961E+02  0.96925217791E+02  0.90212895819E+02 0.  0.
         23    2    1    2    0    0 -0.28296102580E+02  0.13554244345E+02 -0.62786230141E+02  0.11344250672E+03  0.89121852964E+02 0.  0.
          5    1    4    4  502    0 -0.40654864629E+02 -0.21089994741E+02 -0.60857405113E+02  0.76310678501E+02  0.47000000000E+01 0. -1.
         -5    1    4    4    0  502  0.12358762050E+02  0.34644239086E+02 -0.19288250273E+01  0.37131828223E+02  0.47000000000E+01 0.  1.
          5    1    3    3  503    0  0.40086117295E+02  0.16220925338E+02 -0.20236530089E+02  0.47975226614E+02  0.47000000000E+01 0. -1.
         -5    1    3    3    0  503 -0.11790014715E+02 -0.29775169683E+02  0.36721199049E+02  0.48949991177E+02  0.47000000000E+01 0.  1.
<mgrwt>
<rscale>  0 0.95254604E+02</rscale>
<asrwt>0</asrwt>
<pdfrwt beam="1">  1        1 0.19743791E-01 0.95513107E+02</pdfrwt>
<pdfrwt beam="2">  1       -1 0.12620474E-01 0.95513107E+02</pdfrwt>
<totfact> 0.10017456E+04</totfact>
</mgrwt>
</event>
<event>
 8    1  0.9456677E-004  0.1545219E+03  0.7546771E-02  0.1195191E+00
          1   -1    0    0  501    0  0.00000000000E+00  0.00000000000E+00  0.36600802677E+03  0.36600802677E+03  0.00000000000E+00 0. -1.
         -1   -1    0    0    0  501 -0.00000000000E+00 -0.00000000000E+00 -0.84723854081E+02  0.84723854081E+02  0.00000000000E+00 0.  1.
         23    2    1    2    0    0  0.12418259341E+03  0.73796935484E+01  0.24958095343E+03  0.29354330274E+03  0.91658288693E+02 0.  0.
         23    2    1    2    0    0 -0.12418259341E+03 -0.73796935484E+01  0.31703219268E+02  0.15718857812E+03  0.90704898411E+02 0.  0.
          5    1    4    4  502    0 -0.12456998454E+03 -0.30812938527E+02  0.34910655870E+02  0.13307126708E+03  0.47000000000E+01 0. -1.
         -5    1    3    3    0  503  0.10301898719E+03 -0.81832851744E+01  0.24568093742E+03  0.26657286225E+03  0.47000000000E+01 0.  1.
          5    1    3    3  503    0  0.21163606224E+02  0.15562978723E+02  0.39000160043E+01  0.26970440485E+02  0.47000000000E+01 0. -1.
         -5    1    4    4    0  502  0.38739113066E+00  0.23433244978E+02 -0.32074366011E+01  0.24117311037E+02  0.47000000000E+01 0.  1.
<mgrwt>
<rscale>  0 0.15438081E+03</rscale>
<asrwt>0</asrwt>
<pdfrwt beam="1">  1        1 0.56308926E-01 0.15452190E+03</pdfrwt>
<pdfrwt beam="2">  1       -1 0.13034439E-01 0.15452190E+03</pdfrwt>
<totfact> 0.26722039E+03</totfact>
</mgrwt>
</event>
<event>
 8    1  0.9456677E-004  0.9113541E+02  0.7546771E-02  0.1303587E+00
          1   -1    0    0  501    0  0.00000000000E+00  0.00000000000E+00  0.12227847116E+03  0.12227847116E+03  0.00000000000E+00 0. -1.
         -1   -1    0    0    0  501 -0.00000000000E+00 -0.00000000000E+00 -0.71243589707E+02  0.71243589707E+02  0.00000000000E+00 0.  1.
         23    2    1    2    0    0  0.12227441539E+02  0.45757399288E+01  0.57503679930E+02  0.10776055340E+03  0.90195431931E+02 0.  0.
         23    2    1    2    0    0 -0.12227441539E+02 -0.45757399288E+01 -0.64687984738E+01  0.85761507469E+02  0.84514750707E+02 0.  0.
          5    1    4    4  502    0  0.47693509316E+01  0.38197233153E+02 -0.74339898422E+01  0.39485814336E+02  0.47000000000E+01 0. -1.
         -5    1    4    4    0  502 -0.16996792471E+02 -0.42772973081E+02  0.96519136835E+00  0.46275693133E+02  0.47000000000E+01 0.  1.
          5    1    3    3  503    0  0.75870193155E+01  0.26534000648E+02  0.74259320364E+02  0.79360901667E+02  0.47000000000E+01 0. -1.
         -5    1    3    3    0  503  0.46404222240E+01 -0.21958260719E+02 -0.16755640434E+02  0.28399651734E+02  0.47000000000E+01 0.  1.
<mgrwt>
<rscale>  0 0.89697170E+02</rscale>
<asrwt>0</asrwt>
<pdfrwt beam="1">  1        1 0.18812072E-01 0.91135414E+02</pdfrwt>
<pdfrwt beam="2">  1       -1 0.10960552E-01 0.91135414E+02</pdfrwt>
<totfact> 0.13143530E+04</totfact>
</mgrwt>
</event>
<event>
 8    1  0.9456677E-004  0.9623579E+02  0.7546771E-02  0.1290486E+00
          2   -1    0    0  501    0  0.00000000000E+00  0.00000000000E+00  0.13791583248E+03  0.13791583248E+03  0.00000000000E+00 0. -1.
         -2   -1    0    0    0  501 -0.00000000000E+00 -0.00000000000E+00 -0.70632086395E+02  0.70632086395E+02  0.00000000000E+00 0.  1.
         23    2    1    2    0    0 -0.16268426257E+02  0.16900107070E+02  0.38251306126E+01  0.96311782406E+02  0.93333019314E+02 0.  0.
         23    2    1    2    0    0  0.16268426257E+02 -0.16900107070E+02  0.63458615472E+02  0.11223613647E+03  0.89552661266E+02 0.  0.
          5    1    4    4  502    0 -0.22809511865E+02  0.25505894997E+02  0.27121923020E+02  0.43914840538E+02  0.47000000000E+01 0. -1.
         -5    1    3    3    0  503 -0.49562815783E+02  0.21773522154E+01  0.23016168508E+02  0.54891234125E+02  0.47000000000E+01 0.  1.
          5    1    3    3  503    0  0.33294389526E+02  0.14722754855E+02 -0.19191037896E+02  0.41420548281E+02  0.47000000000E+01 0. -1.
         -5    1    4    4    0  502  0.39077938123E+02 -0.42406002068E+02  0.36336692452E+02  0.68321295931E+02  0.47000000000E+01 0.  1.
<mgrwt>
<rscale>  0 0.95306997E+02</rscale>
<asrwt>0</asrwt>
<pdfrwt beam="1">  1        2 0.21217820E-01 0.96235793E+02</pdfrwt>
<pdfrwt beam="2">  1       -2 0.10866475E-01 0.96235793E+02</pdfrwt>
<totfact> 0.13630165E+04</totfact>
</mgrwt>
</event>
<event>
 8    1  0.9456677E-004  0.1451658E+03  0.7546771E-02  0.1208353E+00
         -1   -1    0    0    0  501 -0.00000000000E+00  0.00000000000E+00  0.24874808768E+03  0.24874808768E+03  0.00000000000E+00 0.  1.
          1   -1    0    0  501    0  0.00000000000E+00 -0.00000000000E+00 -0.17451685844E+03  0.17451685844E+03  0.00000000000E+00 0. -1.
         23    2    1    2    0    0 -0.15661089534E+02  0.10579276630E+03  0.19125411513E+03  0.23680459870E+03  0.89782527716E+02 0.  0.
         23    2    1    2    0    0  0.15661089534E+02 -0.10579276630E+03 -0.11702288588E+03  0.18646034743E+03  0.98161734981E+02 0.  0.
          5    1    3    3  502    0  0.26743039526E+02  0.16516155121E+02  0.16082187007E+02  0.35618819211E+02  0.47000000000E+01 0. -1.
         -5    1    3    3    0  502 -0.42404129061E+02  0.89276611182E+02  0.17517192812E+03  0.20118577948E+03  0.47000000000E+01 0.  1.
          5    1    4    4  503    0  0.52390348033E+02 -0.64757620027E+02 -0.96344672436E+02  0.12744678821E+03  0.47000000000E+01 0. -1.
         -5    1    4    4    0  503 -0.36729258499E+02 -0.41035146277E+02 -0.20678213445E+02  0.59013559214E+02  0.47000000000E+01 0.  1.
<mgrwt>
<rscale>  0 0.14376320E+03</rscale>
<asrwt>0</asrwt>
<pdfrwt beam="1">  1        1 0.26848747E-01 0.14516579E+03</pdfrwt>
<pdfrwt beam="2">  1       -1 0.38268937E-01 0.14516579E+03</pdfrwt>
<totfact> 0.11530773E+03</totfact>
</mgrwt>
</event>
<event>
 8    1  0.9456677E-004  0.1321102E+03  0.7546771E-02  0.1226997E+00
          3   -1    0    0  501    0  0.00000000000E+00  0.00000000000E+00  0.23022555360E+03  0.23022555360E+03  0.00000000000E+00 0. -1.
         -3   -1    0    0    0  501 -0.00000000000E+00 -0.00000000000E+00 -0.88676937613E+02  0.88676937613E+02  0.00000000000E+00 0.  1.
         23    2    1    2    0    0  0.64865475019E+02 -0.56529458482E+02 -0.31122893879E+00  0.12505380252E+03  0.90748262434E+02 0.  0.
         23    2    1    2    0    0 -0.64865475019E+02  0.56529458482E+02  0.14185984493E+03  0.19384868870E+03  0.10024963332E+03 0.  0.
          5    1    4    4  502    0 -0.35068211275E+02  0.83804719749E+02  0.10542668101E+03  0.13924756933E+03  0.47000000000E+01 0. -1.
         -5    1    3    3    0  503  0.34291022799E+02 -0.50552732237E+02 -0.40906346033E+02  0.73667307043E+02  0.47000000000E+01 0.  1.
          5    1    3    3  503    0  0.30574452219E+02 -0.59767262446E+01  0.40595117094E+02  0.51386495473E+02  0.47000000000E+01 0. -1.
         -5    1    4    4    0  502 -0.29797263744E+02 -0.27275261267E+02  0.36433163916E+02  0.54601119373E+02  0.47000000000E+01 0.  1.
<mgrwt>
<rscale>  0 0.13030950E+03</rscale>
<asrwt>0</asrwt>
<pdfrwt beam="1">  1        3 0.35419316E-01 0.13211018E+03</pdfrwt>
<pdfrwt beam="2">  1       -3 0.13642606E-01 0.13211018E+03</pdfrwt>
<totfact> 0.78918209E+02</totfact>
</mgrwt>
</event>
<event>
 8    1  0.9456677E-004  0.1021378E+03  0.7546771E-02  0.1277405E+00
         -2   -1    0    0    0  501 -0.00000000000E+00  0.00000000000E+00  0.93351651500E+01  0.93351651500E+01  0.00000000000E+00 0.  1.
          2   -1    0    0  501    0  0.00000000000E+00 -0.00000000000E+00 -0.10857662184E+04  0.10857662184E+04  0.00000000000E+00 0. -1.
         23    2    1    2    0    0 -0.38202738209E+02  0.26948442546E+01 -0.54191894244E+03  0.55091820410E+03  0.91476860675E+02 0.  0.
         23    2    1    2    0    0  0.38202738209E+02 -0.26948442546E+01 -0.53451211079E+03  0.54418317943E+03  0.94685927166E+02 0.  0.
          5    1    4    4  502    0  0.63154589786E+02 -0.64684886819E+01 -0.47665710251E+03  0.48088920442E+03  0.47000000000E+01 0. -1.
         -5    1    4    4    0  502 -0.24951851577E+02  0.37736444273E+01 -0.57855008278E+02  0.63293975007E+02  0.47000000000E+01 0.  1.
          5    1    3    3  503    0  0.23413716481E+02  0.17251612705E+02 -0.27403557398E+03  0.27561459698E+03  0.47000000000E+01 0. -1.
         -5    1    3    3    0  503 -0.61616454690E+02 -0.14556768450E+02 -0.26788336846E+03  0.27530360712E+03  0.47000000000E+01 0.  1.
<mgrwt>
<rscale>  0 0.10138770E+03</rscale>
<asrwt>0</asrwt>
<pdfrwt beam="1">  1        2 0.16704096E+00 0.10213783E+03</pdfrwt>
<pdfrwt beam="2">  1       -2 0.14361792E-02 0.10213783E+03</pdfrwt>
<totfact> 0.27195395E+04</totfact>
</mgrwt>
</event>
<event>
 8    1  0.9456677E-004  0.1029822E+03  0.7546771E-02  0.1274486E+00
         -3   -1    0    0    0  501 -0.00000000000E+00  0.00000000000E+00  0.64859303024E+02  0.64859303024E+02  0.00000000000E+00 0.  1.
          3   -1    0    0  501    0  0.00000000000E+00 -0.00000000000E+00 -0.25437584657E+03  0.25437584657E+03  0.00000000000E+00 0. -1.
         23    2    1    2    0    0 -0.21855024664E+02  0.37637509849E+02  0.99586504432E+00  0.10298702022E+03  0.93333329177E+02 0.  0.
         23    2    1    2    0    0  0.21855024664E+02 -0.37637509849E+02 -0.19051240859E+03  0.21624812937E+03  0.92596173687E+02 0.  0.
          5    1    4    4  502    0  0.51094356570E+02 -0.38113518823E+02 -0.16573319585E+03  0.17763123542E+03  0.47000000000E+01 0. -1.
         -5    1    4    4    0  502 -0.29239331906E+02  0.47600897411E+00 -0.24779212743E+02  0.38616893959E+02  0.47000000000E+01 0.  1.
          5    1    3    3  503    0 -0.12516185891E+02 -0.20455002689E+02  0.28774927259E+02  0.37751138831E+02  0.47000000000E+01 0. -1.
         -5    1    3    3    0  503 -0.93388387726E+01  0.58092512538E+02 -0.27779062215E+02  0.65235881385E+02  0.47000000000E+01 0.  1.
<mgrwt>
<rscale>  0 0.10281489E+03</rscale>
<asrwt>0</asrwt>
<pdfrwt beam="1">  1        3 0.39134745E-01 0.10298221E+03</pdfrwt>
<pdfrwt beam="2">  1       -3 0.99783545E-02 0.10298221E+03</pdfrwt>
<totfact> 0.10553644E+03</totfact>
</mgrwt>
</event>
<event>
 8    1  0.9456677E-004  0.1288570E+03  0.7546771E-02  0.1229503E+00
          1   -1    0    0  501    0  0.00000000000E+00  0.00000000000E+00  0.12509857173E+03  0.12509857173E+03  0.00000000000E+00 0. -1.
         -1   -1    0    0    0  501 -0.00000000000E+00 -0.00000000000E+00 -0.25175727840E+03  0.25175727840E+03  0.00000000000E+00 0.  1.
         23    2    1    2    0    0  0.85014055761E+02  0.31795051155E+02  0.66856626566E+02  0.14436433341E+03  0.90182799298E+02 0.  0.
         23    2    1    2    0    0 -0.85014055761E+02 -0.31795051155E+02 -0.19351533324E+03  0.23249151673E+03  0.91464781173E+02 0.  0.
          5    1    3    3  502    0  0.82439762389E+02 -0.51371592600E+01  0.67902710080E+02  0.10703070991E+03  0.47000000000E+01 0. -1.
         -5    1    3    3    0  502  0.25742933722E+01  0.36932210415E+02 -0.10460835145E+01  0.37333623494E+02  0.47000000000E+01 0.  1.
          5    1    4    4  503    0 -0.19704672001E+02 -0.55549233762E+02 -0.92821096420E+02  0.11005379326E+03  0.47000000000E+01 0. -1.
         -5    1    4    4    0  503 -0.65309383761E+02  0.23754182607E+02 -0.10069423682E+03  0.12243772347E+03  0.47000000000E+01 0.  1.
<mgrwt>
<rscale>  0 0.12862968E+03</rscale>
<asrwt>0</asrwt>
<pdfrwt beam="1">  1        1 0.19245934E-01 0.12885698E+03</pdfrwt>
<pdfrwt beam="2">  1       -1 0.38731888E-01 0.12885698E+03</pdfrwt>
<totfact> 0.17129266E+03</totfact>
</mgrwt>
</event>
<event>
 8    1  0.9456677E-004  0.1069327E+03  0.7546771E-02  0.1266825E+00
          1   -1    0    0  501    0  0.00000000000E+00  0.00000000000E+00  0.76764297845E+03  0.76764297845E+03  0.00000000000E+00 0. -1.
         -1   -1    0    0    0  501 -0.00000000000E+00 -0.00000000000E+00 -0.15547868508E+02  0.15547868508E+02  0.00000000000E+00 0.  1.
         23    2    1    2    0    0 -0.23700290929E+02 -0.49214856833E+02  0.46573852177E+03  0.47785664794E+03  0.91928229619E+02 0.  0.
         23    2    1    2    0    0  0.23700290929E+02  0.49214856833E+02  0.28635658817E+03  0.30533419902E+03  0.90802376484E+02 0.  0.
          5    1    4    4  502    0 -0.16294449648E+02  0.59621663254E+02  0.13849494139E+03  0.15173394679E+03  0.47000000000E+01 0. -1.
         -5    1    4    4    0  502  0.39994740577E+02 -0.10406806421E+02  0.14786164678E+03  0.15360025222E+03  0.47000000000E+01 0.  1.
          5    1    3    3  503    0 -0.76160606794E+00  0.26819450017E+02  0.10857845424E+03  0.11194299294E+03  0.47000000000E+01 0. -1.
         -5    1    3    3    0  503 -0.22938684861E+02 -0.76034306850E+02  0.35716006753E+03  0.36591365501E+03  0.47000000000E+01 0.  1.
<mgrwt>
<rscale>  0 0.10669031E+03</rscale>
<asrwt>0</asrwt>
<pdfrwt beam="1">  1        1 0.11809889E+00 0.10693271E+03</pdfrwt>
<pdfrwt beam="2">  1       -1 0.23919804E-02 0.10693271E+03</pdfrwt>
<totfact> 0.12163010E+04</totfact>
</mgrwt>
</event>
<event>
 8    1  0.9456677E-004  0.1006843E+03  0.7546771E-02  0.1280882E+00
          1   -1    0    0  501    0  0.00000000000E+00  0.00000000000E+00  0.54961105915E+03  0.54961105915E+03  0.00000000000E+00 0. -1.
         -1   -1    0    0    0  501 -0.00000000000E+00 -0.00000000000E+00 -0.18538266561E+02  0.18538266561E+02  0.00000000000E+00 0.  1.
         23    2    1    2    0    0 -0.37909497577E+02 -0.19509500583E+02  0.32876595620E+03  0.34383773548E+03  0.91211752347E+02 0.  0.
         23    2    1    2    0    0  0.37909497577E+02  0.19509500583E+02  0.20230683639E+03  0.22431159023E+03  0.87005073655E+02 0.  0.
          5    1    3    3  502    0  0.18138505616E+02  0.23175919370E+02  0.10951229842E+03  0.11349520752E+03  0.47000000000E+01 0. -1.
         -5    1    4    4    0  503 -0.18852604538E+02 -0.80825750418E+01  0.13069849671E+02  0.24772155490E+02  0.47000000000E+01 0.  1.
          5    1    4    4  503    0  0.56762102116E+02  0.27592075625E+02  0.18923698672E+03  0.19953943474E+03  0.47000000000E+01 0. -1.
         -5    1    3    3    0  502 -0.56048003194E+02 -0.42685419954E+02  0.21925365778E+03  0.23034252796E+03  0.47000000000E+01 0.  1.
<mgrwt>
<rscale>  0 0.99721989E+02</rscale>
<asrwt>0</asrwt>
<pdfrwt beam="1">  1        1 0.84555535E-01 0.10068433E+03</pdfrwt>
<pdfrwt beam="2">  1       -1 0.28520414E-02 0.10068433E+03</pdfrwt>
<totfact> 0.14911574E+04</totfact>
</mgrwt>
</event>
<event>
 8    1  0.9456677E-004  0.1000528E+03  0.7546771E-02  0.1280518E+00
         -4   -1    0    0    0  501 -0.00000000000E+00  0.00000000000E+00  0.89713846200E+02  0.89713846200E+02  0.00000000000E+00 0.  1.
          4   -1    0    0  501    0  0.00000000000E+00 -0.00000000000E+00 -0.11262198718E+03  0.11262198718E+03  0.00000000000E+00 0. -1.
         23    2    1    2    0    0  0.20182072124E+02  0.34830101289E+02  0.10908500918E+01  0.10005873447E+03  0.91597534899E+02 0.  0.
         23    2    1    2    0    0 -0.20182072124E+02 -0.34830101289E+02 -0.23998991069E+02  0.10227709890E+03  0.90907653125E+02 0.  0.
          5    1    4    4  502    0 -0.43855667792E+02 -0.60074742369E+01 -0.41455683711E+02  0.60828225818E+02  0.47000000000E+01 0. -1.
         -5    1    4    4    0  502  0.23673595669E+02 -0.28822627053E+02  0.17456692642E+02  0.41448873086E+02  0.47000000000E+01 0.  1.
          5    1    3    3  503    0  0.16241106625E+02 -0.28519121930E+02 -0.11667068032E+02  0.35147181061E+02  0.47000000000E+01 0. -1.
         -5    1    3    3    0  503  0.39409654984E+01  0.63349223220E+02  0.12757918124E+02  0.64911553413E+02  0.47000000000E+01 0.  1.
<mgrwt>
<rscale>  0 0.99894615E+02</rscale>
<asrwt>0</asrwt>
<pdfrwt beam="1">  1        4 0.17326460E-01 0.10005279E+03</pdfrwt>
<pdfrwt beam="2">  1       -4 0.13802130E-01 0.10005279E+03</pdfrwt>
<totfact> 0.19444949E+03</totfact>
</mgrwt>
</event>
<event>
 8    1  0.9456677E-004  0.9531111E+02  0.7546771E-02  0.1292344E+00
          1   -1    0    0  501    0  0.00000000000E+00  0.00000000000E+00  0.30198644977E+03  0.30198644977E+03  0.00000000000E+00 0. -1.
         -1   -1    0    0    0  501 -0.00000000000E+00 -0.00000000000E+00 -0.12608594908E+03  0.12608594908E+03  0.00000000000E+00 0.  1.
         23    2    1    2    0    0 -0.23318099187E+02 -0.11870731668E+02 -0.99448530889E+02  0.13774693518E+03  0.91649112576E+02 0.  0.
         23    2    1    2    0    0  0.23318099187E+02  0.11870731668E+02  0.27534903159E+03  0.29032546367E+03  0.88244759832E+02 0.  0.
          5    1    4    4  502    0  0.11372010878E+02  0.49418362123E+02  0.12890497753E+03  0.13860043427E+03  0.47000000000E+01 0. -1.
         -5    1    3    3    0  503 -0.33375748752E+02  0.22301967325E+02 -0.92782879490E+02  0.10120311792E+03  0.47000000000E+01 0.  1.
          5    1    3    3  503    0  0.10057649564E+02 -0.34172698992E+02 -0.66656513995E+01  0.36543817258E+02  0.47000000000E+01 0. -1.
         -5    1    4    4    0  502  0.11946088309E+02 -0.37547630455E+02  0.14644405406E+03  0.15172502940E+03  0.47000000000E+01 0.  1.
<mgrwt>
<rscale>  0 0.94483184E+02</rscale>
<asrwt>0</asrwt>
<pdfrwt beam="1">  1        1 0.46459454E-01 0.95311111E+02</pdfrwt>
<pdfrwt beam="2">  1       -1 0.19397838E-01 0.95311111E+02</pdfrwt>
<totfact> 0.17840565E+03</totfact>
</mgrwt>
</event>
<event>
 8    1  0.9456677E-004  0.9362575E+02  0.7546771E-02  0.1294990E+00
          2   -1    0    0  501    0  0.00000000000E+00  0.00000000000E+00  0.59995650252E+03  0.59995650252E+03  0.00000000000E+00 0. -1.
         -2   -1    0    0    0  501 -0.00000000000E+00 -0.00000000000E+00 -0.14559711041E+02  0.14559711041E+02  0.00000000000E+00 0.  1.
         23    2    1    2    0    0 -0.15302960083E+02 -0.14855094364E+02  0.32406785826E+03  0.33732144648E+03  0.91164286224E+02 0.  0.
         23    2    1    2    0    0  0.15302960083E+02  0.14855094364E+02  0.26132893322E+03  0.27719476708E+03  0.89940386610E+02 0.  0.
          5    1    3    3  502    0  0.23671615100E+02  0.71195102395E+01  0.24548922145E+03  0.24677536473E+03  0.47000000000E+01 0. -1.
         -5    1    3    3    0  502 -0.38974575183E+02 -0.21974604604E+02  0.78578636809E+02  0.90546081754E+02  0.47000000000E+01 0.  1.
          5    1    4    4  503    0  0.31048876488E+02 -0.37713578751E+01  0.27093907279E+02  0.41646436619E+02  0.47000000000E+01 0. -1.
         -5    1    4    4    0  503 -0.15745916404E+02  0.18626452239E+02  0.23423502594E+03  0.23554833046E+03  0.47000000000E+01 0.  1.
<mgrwt>
<rscale>  0 0.93326495E+02</rscale>
<asrwt>0</asrwt>
<pdfrwt beam="1">  1        2 0.92300981E-01 0.93625752E+02</pdfrwt>
<pdfrwt beam="2">  1       -2 0.22399560E-02 0.93625752E+02</pdfrwt>
<totfact> 0.29783734E+04</totfact>
</mgrwt>
</event>
<event>
 8    1  0.9456677E-004  0.1342700E+03  0.7546771E-02  0.1227190E+00
         -2   -1    0    0    0  501 -0.00000000000E+00  0.00000000000E+00  0.62505966442E+02  0.62505966442E+02  0.00000000000E+00 0.  1.
          2   -1    0    0  501    0  0.00000000000E+00 -0.00000000000E+00 -0.26171228735E+03  0.26171228735E+03  0.00000000000E+00 0. -1.
         23    2    1    2    0    0  0.37469997342E+02  0.62444675221E+02 -0.81358722826E+02  0.15699574179E+03  0.11280550960E+03 0.  0.
         23    2    1    2    0    0 -0.37469997342E+02 -0.62444675221E+02 -0.11784759808E+03  0.16722251200E+03  0.93658816890E+02 0.  0.
          5    1    4    4  502    0 -0.21154849141E+02 -0.82048582844E+02 -0.11220336145E+03  0.14068113558E+03  0.47000000000E+01 0. -1.
         -5    1    3    3    0  503  0.44532418420E+01  0.89934941959E+02 -0.46389657543E+02  0.10140125973E+03  0.47000000000E+01 0.  1.
          5    1    3    3  503    0  0.33016755500E+02 -0.27490266738E+02 -0.34969065283E+02  0.55594482063E+02  0.47000000000E+01 0. -1.
         -5    1    4    4    0  502 -0.16315148201E+02  0.19603907623E+02 -0.56442366371E+01  0.26541376418E+02  0.47000000000E+01 0.  1.
<mgrwt>
<rscale>  0 0.13017914E+03</rscale>
<asrwt>0</asrwt>
<pdfrwt beam="1">  1        2 0.40263429E-01 0.13426996E+03</pdfrwt>
<pdfrwt beam="2">  1       -2 0.96163025E-02 0.13426996E+03</pdfrwt>
<totfact> 0.84893151E+03</totfact>
</mgrwt>
</event>
<event>
 8    1  0.9456677E-004  0.1390604E+03  0.7546771E-02  0.1214843E+00
         -1   -1    0    0    0  501 -0.00000000000E+00  0.00000000000E+00  0.52717329636E+02  0.52717329636E+02  0.00000000000E+00 0.  1.
          1   -1    0    0  501    0  0.00000000000E+00 -0.00000000000E+00 -0.39684552190E+03  0.39684552190E+03  0.00000000000E+00 0. -1.
         23    2    1    2    0    0  0.58843513243E+01 -0.10400140151E+03 -0.23540244812E+03  0.27304350036E+03  0.91035835786E+02 0.  0.
         23    2    1    2    0    0 -0.58843513243E+01  0.10400140151E+03 -0.10872574414E+03  0.17651935119E+03  0.92124246518E+02 0.  0.
          5    1    4    4  502    0  0.23350647710E+02  0.14601237200E+02 -0.68750091238E+02  0.74209931421E+02  0.47000000000E+01 0. -1.
         -5    1    4    4    0  502 -0.29234999034E+02  0.89400164310E+02 -0.39975652906E+02  0.10230941976E+03  0.47000000000E+01 0.  1.
          5    1    3    3  503    0 -0.20799577858E+02 -0.10404437816E+03 -0.15260353991E+03  0.18592413899E+03  0.47000000000E+01 0. -1.
         -5    1    3    3    0  503  0.26683929183E+02  0.42976648625E-01 -0.82798908217E+02  0.87119361370E+02  0.47000000000E+01 0.  1.
<mgrwt>
<rscale>  0 0.13888039E+03</rscale>
<asrwt>0</asrwt>
<pdfrwt beam="1">  1        1 0.61053160E-01 0.13906040E+03</pdfrwt>
<pdfrwt beam="2">  1       -1 0.81103580E-02 0.13906040E+03</pdfrwt>
<totfact> 0.49692093E+03</totfact>
</mgrwt>
</event>
<event>
 7    1  0.9456677E-004  0.2000001E+03  0.7546771E-02  0.1157917E+00
         -1   -1    0    0    0  501 -0.00000000000E+00  0.00000000000E+00  0.23494814820E+02  0.23494814820E+02  0.00000000000E+00 0.  1.
          1   -1    0    0  501    0  0.00000000000E+00 -0.00000000000E+00 -0.17709940290E+04  0.17709940290E+04  0.00000000000E+00 0. -1.
         23    2    1    2    0    0 -0.97546760016E+02  0.93523760446E+02 -0.12060486332E+04  0.12172810984E+04  0.94646198336E+02 0.  0.
          5    1    1    2  502    0  0.13641091830E+03 -0.81570793738E+02 -0.43620430106E+03  0.46428225821E+03  0.47000000000E+01 0. -1.
         -5    1    3    3    0  503 -0.70896044382E+02  0.13488316340E+02 -0.37203716500E+03  0.37900122154E+03  0.47000000000E+01 0.  1.
          5    1    3    3  503    0 -0.26650715634E+02  0.80035444107E+02 -0.83401146817E+03  0.83827987689E+03  0.47000000000E+01 0. -1.
         -5    1    1    2    0  502 -0.38864158285E+02 -0.11952966708E+02 -0.10524627992E+03  0.11292548716E+03  0.47000000000E+01 0.  1.
<mgrwt>
<rscale>  0 0.19060472E+03</rscale>
<asrwt>0</asrwt>
<pdfrwt beam="1">  1        1 0.27246064E+00 0.20000012E+03</pdfrwt>
<pdfrwt beam="2">  1       -1 0.36145866E-02 0.20000012E+03</pdfrwt>
<totfact> 0.13645481E+03</totfact>
</mgrwt>
</event>
<event>
 8    1  0.9456677E-004  0.1204088E+03  0.7546771E-02  0.1242958E+00
          1   -1    0    0  501    0  0.00000000000E+00  0.00000000000E+00  0.32557745946E+03  0.32557745946E+03  0.00000000000E+00 0. -1.
         -1   -1    0    0    0  501 -0.00000000000E+00 -0.00000000000E+00 -0.44428516418E+02  0.44428516418E+02  0.00000000000E+00 0.  1.
         23    2    1    2    0    0 -0.71545475881E+02  0.27683904861E+02  0.12434720642E+03  0.17309103996E+03  0.92806932182E+02 0.  0.
         23    2    1    2    0    0  0.71545475881E+02 -0.27683904861E+02  0.15680173662E+03  0.19691493592E+03  0.91123837027E+02 0.  0.
          5    1    3    3  502    0 -0.47683714618E+02  0.61992748827E+02  0.80320956560E+02  0.11220687862E+03  0.47000000000E+01 0. -1.
         -5    1    3    3    0  502 -0.23861761263E+02 -0.34308843966E+02  0.44026249864E+02  0.60884161338E+02  0.47000000000E+01 0.  1.
          5    1    4    4  503    0  0.81018120306E+02  0.40695368986E+01  0.13295908631E+03  0.15582267351E+03  0.47000000000E+01 0. -1.
         -5    1    4    4    0  503 -0.94726444256E+01 -0.31753441760E+02  0.23842650312E+02  0.41092262409E+02  0.47000000000E+01 0.  1.
<mgrwt>
<rscale>  0 0.12008439E+03</rscale>
<asrwt>0</asrwt>
<pdfrwt beam="1">  1        1 0.50088838E-01 0.12040881E+03</pdfrwt>
<pdfrwt beam="2">  1       -1 0.68351566E-02 0.12040881E+03</pdfrwt>
<totfact> 0.81500495E+03</totfact>
</mgrwt>
</event>
<event>
 8    1  0.9456677E-004  0.1100005E+03  0.7546771E-02  0.1261681E+00
          1   -1    0    0  501    0  0.00000000000E+00  0.00000000000E+00  0.45927296712E+03  0.45927296712E+03  0.00000000000E+00 0. -1.
         -1   -1    0    0    0  501 -0.00000000000E+00 -0.00000000000E+00 -0.58591597094E+02  0.58591597094E+02  0.00000000000E+00 0.  1.
         23    2    1    2    0    0  0.59948525094E+02 -0.57323880423E+01  0.75415094281E+01  0.11025874009E+03  0.92051232843E+02 0.  0.
         23    2    1    2    0    0 -0.59948525094E+02  0.57323880423E+01  0.39313986060E+03  0.40760582412E+03  0.89201300076E+02 0.  0.
          5    1    4    4  502    0 -0.70036671864E+02 -0.13344072572E+02  0.18534423795E+03  0.19863981529E+03  0.47000000000E+01 0. -1.
         -5    1    3    3    0  503  0.40958252057E+02  0.15328126710E+02 -0.36845005754E+02  0.57377472313E+02  0.47000000000E+01 0.  1.
          5    1    3    3  503    0  0.18990273037E+02 -0.21060514752E+02  0.44386515182E+02  0.52881267777E+02  0.47000000000E+01 0. -1.
         -5    1    4    4    0  502  0.10088146770E+02  0.19076460614E+02  0.20779562265E+03  0.20896600883E+03  0.47000000000E+01 0.  1.
<mgrwt>
<rscale>  0 0.10940227E+03</rscale>
<asrwt>0</asrwt>
<pdfrwt beam="1">  1        1 0.70657377E-01 0.11000052E+03</pdfrwt>
<pdfrwt beam="2">  1       -1 0.90140921E-02 0.11000052E+03</pdfrwt>
<totfact> 0.34788516E+03</totfact>
</mgrwt>
</event>
<event>
 8    1  0.9456677E-004  0.9546928E+02  0.7546771E-02  0.1293954E+00
         -2   -1    0    0    0  501 -0.00000000000E+00  0.00000000000E+00  0.10663678969E+03  0.10663678969E+03  0.00000000000E+00 0.  1.
          2   -1    0    0  501    0  0.00000000000E+00 -0.00000000000E+00 -0.13163527708E+03  0.13163527708E+03  0.00000000000E+00 0. -1.
         23    2    1    2    0    0 -0.35662793917E+00 -0.46225671567E+01 -0.87051325637E+02  0.12440838612E+03  0.88758199227E+02 0.  0.
         23    2    1    2    0    0  0.35662793917E+00  0.46225671567E+01  0.62052838252E+02  0.11386368066E+03  0.95356634416E+02 0.  0.
          5    1    3    3  502    0  0.54940521020E+01  0.30339289652E+02 -0.97952388940E+00  0.31204271697E+02  0.47000000000E+01 0. -1.
         -5    1    4    4    0  503  0.25571595396E+02 -0.17044791642E+02  0.72347782673E+02  0.78744670111E+02  0.47000000000E+01 0.  1.
          5    1    4    4  503    0 -0.25214967457E+02  0.21667358798E+02 -0.10294944421E+02  0.35119010547E+02  0.47000000000E+01 0. -1.
         -5    1    3    3    0  502 -0.58506800412E+01 -0.34961856809E+02 -0.86071801748E+02  0.93204114419E+02  0.47000000000E+01 0.  1.
<mgrwt>
<rscale>  0 0.93777310E+02</rscale>
<asrwt>0</asrwt>
<pdfrwt beam="1">  1        2 0.20251581E-01 0.95469278E+02</pdfrwt>
<pdfrwt beam="2">  1       -2 0.16405660E-01 0.95469278E+02</pdfrwt>
<totfact> 0.74191911E+03</totfact>
</mgrwt>
</event>
<event>
 8    1  0.9456677E-004  0.1006129E+03  0.7546771E-02  0.1283745E+00
         -1   -1    0    0    0  501 -0.00000000000E+00  0.00000000000E+00  0.34608430748E+02  0.34608430748E+02  0.00000000000E+00 0.  1.
          1   -1    0    0  501    0  0.00000000000E+00 -0.00000000000E+00 -0.45122418353E+03  0.45122418353E+03  0.00000000000E+00 0. -1.
         23    2    1    2    0    0  0.68206077684E+01 -0.12651563992E+02 -0.59118343318E+02  0.11669593033E+03  0.99581016654E+02 0.  0.
         23    2    1    2    0    0 -0.68206077684E+01  0.12651563992E+02 -0.35749740946E+03  0.36913668394E+03  0.90834524820E+02 0.  0.
          5    1    3    3  502    0  0.49591828596E+02 -0.24596516621E+02 -0.27572499340E+02  0.62021535076E+02  0.47000000000E+01 0. -1.
         -5    1    4    4    0  503 -0.19255427899E+02 -0.26327946166E+02 -0.27462335115E+03  0.27659357774E+03  0.47000000000E+01 0.  1.
          5    1    4    4  503    0  0.12434820131E+02  0.38979510158E+02 -0.82874058312E+02  0.92543106199E+02  0.47000000000E+01 0. -1.
         -5    1    3    3    0  502 -0.42771220827E+02  0.11944952629E+02 -0.31545843978E+02  0.54674395257E+02  0.47000000000E+01 0.  1.
<mgrwt>
<rscale>  0 0.98377449E+02</rscale>
<asrwt>0</asrwt>
<pdfrwt beam="1">  1        1 0.69419104E-01 0.10061293E+03</pdfrwt>
<pdfrwt beam="2">  1       -1 0.53243741E-02 0.10061293E+03</pdfrwt>
<totfact> 0.77496654E+03</totfact>
</mgrwt>
</event>
<event>
 8    1  0.9456677E-004  0.9935715E+02  0.7546771E-02  0.1284833E+00
          1   -1    0    0  501    0  0.00000000000E+00  0.00000000000E+00  0.16698005502E+03  0.16698005502E+03  0.00000000000E+00 0. -1.
         -1   -1    0    0    0  501 -0.00000000000E+00 -0.00000000000E+00 -0.17705502347E+03  0.17705502347E+03  0.00000000000E+00 0.  1.
         23    2    1    2    0    0 -0.10772731836E+02  0.24008817572E+02 -0.14737193056E+03  0.17455853249E+03  0.89775944876E+02 0.  0.
         23    2    1    2    0    0  0.10772731836E+02 -0.24008817572E+02  0.13729696211E+03  0.16947654600E+03  0.95809022364E+02 0.  0.
          5    1    3    3  502    0 -0.48869215160E+02  0.23726509493E+02 -0.76278133240E+02  0.93763484649E+02  0.47000000000E+01 0. -1.
         -5    1    4    4    0  503  0.40915575154E+02  0.83503761283E+01  0.10886071150E+03  0.11669000634E+03  0.47000000000E+01 0.  1.
          5    1    4    4  503    0 -0.30142843318E+02 -0.32359193701E+02  0.28436250611E+02  0.52786539658E+02  0.47000000000E+01 0. -1.
         -5    1    3    3    0  502  0.38096483324E+02  0.28230807958E+00 -0.71093797316E+02  0.80795047845E+02  0.47000000000E+01 0.  1.
<mgrwt>
<rscale>  0 0.97873243E+02</rscale>
<asrwt>0</asrwt>
<pdfrwt beam="1">  1        1 0.25689239E-01 0.99357153E+02</pdfrwt>
<pdfrwt beam="2">  1       -1 0.27239234E-01 0.99357153E+02</pdfrwt>
<totfact> 0.21379869E+03</totfact>
</mgrwt>
</event>
<event>
 8    1  0.9456677E-004  0.9107802E+02  0.7546771E-02  0.1300556E+00
          4   -1    0    0  501    0  0.00000000000E+00  0.00000000000E+00  0.39428577450E+03  0.39428577450E+03  0.00000000000E+00 0. -1.
         -4   -1    0    0    0  501 -0.00000000000E+00 -0.00000000000E+00 -0.21557824458E+02  0.21557824458E+02  0.00000000000E+00 0.  1.
         23    2    1    2    0    0 -0.15584057585E+02  0.95400119479E+00  0.22150095275E+03  0.23930802129E+03  0.89229389857E+02 0.  0.
         23    2    1    2    0    0  0.15584057585E+02 -0.95400119479E+00  0.15122699729E+03  0.17653557767E+03  0.89729774903E+02 0.  0.
          5    1    4    4  502    0 -0.61328672409E+01  0.41304882353E+02  0.56030557150E+02  0.70037266518E+02  0.47000000000E+01 0. -1.
         -5    1    4    4    0  502  0.21716924826E+02 -0.42258883547E+02  0.95196440138E+02  0.10649831115E+03  0.47000000000E+01 0.  1.
          5    1    3    3  503    0  0.30586092829E+02 -0.65481580663E+01  0.15294695644E+03  0.15618338238E+03  0.47000000000E+01 0. -1.
         -5    1    3    3    0  503 -0.46170150414E+02  0.75021592611E+01  0.68553996310E+02  0.83124638904E+02  0.47000000000E+01 0.  1.
<mgrwt>
<rscale>  0 0.90954533E+02</rscale>
<asrwt>0</asrwt>
<pdfrwt beam="1">  1        4 0.60659345E-01 0.91078019E+02</pdfrwt>
<pdfrwt beam="2">  1       -4 0.33165887E-02 0.91078019E+02</pdfrwt>
<totfact> 0.17854909E+03</totfact>
</mgrwt>
</event>
<event>
 8    1  0.9456677E-004  0.1140269E+03  0.7546771E-02  0.1253850E+00
          1   -1    0    0  501    0  0.00000000000E+00  0.00000000000E+00  0.62848187817E+02  0.62848187817E+02  0.00000000000E+00 0. -1.
         -1   -1    0    0    0  501 -0.00000000000E+00 -0.00000000000E+00 -0.21425095416E+03  0.21425095416E+03  0.00000000000E+00 0.  1.
         23    2    1    2    0    0 -0.67539061176E+02 -0.88142172262E+01 -0.10551694179E+03  0.15535752277E+03  0.91449000356E+02 0.  0.
         23    2    1    2    0    0  0.67539061176E+02  0.88142172262E+01 -0.45885824548E+02  0.12174161921E+03  0.89868224320E+02 0.  0.
          5    1    4    4  502    0  0.26811237483E+02 -0.31897027346E+02  0.80536508607E+01  0.42699111244E+02  0.47000000000E+01 0. -1.
         -5    1    4    4    0  502  0.40727823693E+02  0.40711244572E+02 -0.53939475409E+02  0.79042507961E+02  0.47000000000E+01 0.  1.
          5    1    3    3  503    0 -0.49514228363E+02 -0.34234165505E+02 -0.19029862636E+02  0.63307681763E+02  0.47000000000E+01 0. -1.
         -5    1    3    3    0  503 -0.18024832813E+02  0.25419948279E+02 -0.86487079156E+02  0.92049841007E+02  0.47000000000E+01 0.  1.
<mgrwt>
<rscale>  0 0.11370963E+03</rscale>
<asrwt>0</asrwt>
<pdfrwt beam="1">  1        1 0.96689522E-02 0.11402690E+03</pdfrwt>
<pdfrwt beam="2">  1       -1 0.32961685E-01 0.11402690E+03</pdfrwt>
<totfact> 0.54823545E+03</totfact>
</mgrwt>
</event>
<event>
 8    1  0.9456677E-004  0.1059135E+03  0.7546771E-02  0.1270023E+00
         -1   -1    0    0    0  501 -0.00000000000E+00  0.00000000000E+00  0.16566294787E+03  0.16566294787E+03  0.00000000000E+00 0.  1.
          1   -1    0    0  501    0  0.00000000000E+00 -0.00000000000E+00 -0.37832371919E+03  0.37832371919E+03  0.00000000000E+00 0. -1.
         23    2    1    2    0    0 -0.47317352016E+02  0.18160825236E+02  0.14067274715E+03  0.17608662528E+03  0.92999626014E+02 0.  0.
         23    2    1    2    0    0  0.47317352016E+02 -0.18160825236E+02 -0.35333351847E+03  0.36790004177E+03  0.89090505043E+02 0.  0.
          5    1    3    3  502    0 -0.25817366654E+02  0.33258970761E+02  0.11101543701E+02  0.43795317439E+02  0.47000000000E+01 0. -1.
         -5    1    4    4    0  503  0.25986058898E+02  0.34240507007E+02 -0.11399843448E+03  0.12192383131E+03  0.47000000000E+01 0.  1.
          5    1    4    4  503    0  0.21331293118E+02 -0.52401332243E+02 -0.23933508399E+03  0.24597621047E+03  0.47000000000E+01 0. -1.
         -5    1    3    3    0  502 -0.21499985362E+02 -0.15098145525E+02  0.12957120345E+03  0.13229130785E+03  0.47000000000E+01 0.  1.
<mgrwt>
<rscale>  0 0.10504916E+03</rscale>
<asrwt>0</asrwt>
<pdfrwt beam="1">  1        1 0.58203649E-01 0.10591354E+03</pdfrwt>
<pdfrwt beam="2">  1       -1 0.25486608E-01 0.10591354E+03</pdfrwt>
<totfact> 0.87317605E+02</totfact>
</mgrwt>
</event>
<event>
 8    1  0.1268298E-003  0.1037557E+03  0.7546771E-02  0.1272659E+00
         -4   -1    0    0    0  501 -0.00000000000E+00  0.00000000000E+00  0.41985934590E+03  0.41985934590E+03  0.00000000000E+00 0.  1.
          4   -1    0    0  501    0  0.00000000000E+00 -0.00000000000E+00 -0.74104150126E+02  0.74104150126E+02  0.00000000000E+00 0. -1.
         23    2    1    2    0    0  0.47917429059E+02 -0.79176129205E+01 -0.26965657834E+02  0.10707063966E+03  0.91532543788E+02 0.  0.
         23    2    1    2    0    0 -0.47917429059E+02  0.79176129205E+01  0.37272085360E+03  0.38689285636E+03  0.91686852891E+02 0.  0.
          5    1    4    4  502    0  0.20942941402E+02 -0.97847469007E+01  0.17777130579E+03  0.17932951578E+03  0.47000000000E+01 0. -1.
         -5    1    4    4    0  502 -0.68860370461E+02  0.17702359821E+02  0.19494954781E+03  0.20756334058E+03  0.47000000000E+01 0.  1.
          5    1    3    3  503    0  0.67659733396E+02  0.18383906835E+02 -0.15809058621E+02  0.72026549885E+02  0.47000000000E+01 0. -1.
         -5    1    3    3    0  503 -0.19742304338E+02 -0.26301519756E+02 -0.11156599213E+02  0.35044089773E+02  0.47000000000E+01 0.  1.
<mgrwt>
<rscale>  0 0.10372161E+03</rscale>
<asrwt>0</asrwt>
<pdfrwt beam="1">  1        4 0.11400639E-01 0.10375571E+03</pdfrwt>
<pdfrwt beam="2">  1       -4 0.64593744E-01 0.10375571E+03</pdfrwt>
<totfact> 0.21824483E+02</totfact>
</mgrwt>
</event>
<event>
 8    1  0.9456677E-004  0.9365161E+02  0.7546771E-02  0.1296101E+00
          1   -1    0    0  501    0  0.00000000000E+00  0.00000000000E+00  0.35525634169E+02  0.35525634169E+02  0.00000000000E+00 0. -1.
         -1   -1    0    0    0  501 -0.00000000000E+00 -0.00000000000E+00 -0.30694394039E+03  0.30694394039E+03  0.00000000000E+00 0.  1.
         23    2    1    2    0    0 -0.14881982891E+02 -0.94910222614E+01 -0.21833574283E+03  0.23757340196E+03  0.91973212419E+02 0.  0.
         23    2    1    2    0    0  0.14881982891E+02  0.94910222614E+01 -0.53082563390E+02  0.10489617260E+03  0.88734973780E+02 0.  0.
          5    1    4    4  502    0  0.97131910811E+01  0.49077448405E+02 -0.28248854609E+02  0.57645726725E+02  0.47000000000E+01 0. -1.
         -5    1    4    4    0  502  0.51687918098E+01 -0.39586426143E+02 -0.24833708781E+02  0.47250445875E+02  0.47000000000E+01 0.  1.
          5    1    3    3  503    0  0.31769412513E+02 -0.27842715167E+02 -0.11550302579E+03  0.12307538879E+03  0.47000000000E+01 0. -1.
         -5    1    3    3    0  503 -0.46651395404E+02  0.18351692906E+02 -0.10283271705E+03  0.11449801317E+03  0.47000000000E+01 0.  1.
<mgrwt>
<rscale>  0 0.92846761E+02</rscale>
<asrwt>0</asrwt>
<pdfrwt beam="1">  1        1 0.54654823E-02 0.93651614E+02</pdfrwt>
<pdfrwt beam="2">  1       -1 0.47222144E-01 0.93651614E+02</pdfrwt>
<totfact> 0.61912228E+03</totfact>
</mgrwt>
</event>
<event>
 8    1  0.9456677E-004  0.1128628E+03  0.7546771E-02  0.1261098E+00
         -2   -1    0    0    0  501 -0.00000000000E+00  0.00000000000E+00  0.99715757135E+02  0.99715757135E+02  0.00000000000E+00 0.  1.
          2   -1    0    0  501    0  0.00000000000E+00 -0.00000000000E+00 -0.15077046209E+03  0.15077046209E+03  0.00000000000E+00 0. -1.
         23    2    1    2    0    0  0.22256108707E+02 -0.34337539840E+02  0.34780209777E+02  0.11810031265E+03  0.10518374323E+03 0.  0.
         23    2    1    2    0    0 -0.22256108707E+02  0.34337539840E+02 -0.85834914728E+02  0.13238590657E+03  0.92108602502E+02 0.  0.
          5    1    3    3  502    0 -0.41228473911E+02 -0.18032246680E+02  0.36642573019E+01  0.45392353573E+02  0.47000000000E+01 0. -1.
         -5    1    3    3    0  502  0.63484582617E+02 -0.16305293160E+02  0.31115952475E+02  0.72707959080E+02  0.47000000000E+01 0.  1.
          5    1    4    4  503    0 -0.50221444998E+02  0.27427776088E+01 -0.71564433044E+02  0.87597228516E+02  0.47000000000E+01 0. -1.
         -5    1    4    4    0  503  0.27965336291E+02  0.31594762232E+02 -0.14270481684E+02  0.44788678054E+02  0.47000000000E+01 0.  1.
<mgrwt>
<rscale>  0 0.10971509E+03</rscale>
<asrwt>0</asrwt>
<pdfrwt beam="1">  1        2 0.23195456E-01 0.11286284E+03</pdfrwt>
<pdfrwt beam="2">  1       -2 0.15340886E-01 0.11286284E+03</pdfrwt>
<totfact> 0.72158810E+03</totfact>
</mgrwt>
</event>
<event>
 8    1  0.9456677E-004  0.1139259E+03  0.7546771E-02  0.1254722E+00
         -1   -1    0    0    0  501 -0.00000000000E+00  0.00000000000E+00  0.16302665000E+03  0.16302665000E+03  0.00000000000E+00 0.  1.
          1   -1    0    0  501    0  0.00000000000E+00 -0.00000000000E+00 -0.86009016608E+02  0.86009016608E+02  0.00000000000E+00 0. -1.
         23    2    1    2    0    0 -0.43191466263E+00  0.63179640904E+02  0.76850320595E+02  0.13510969272E+03  0.91415555112E+02 0.  0.
         23    2    1    2    0    0  0.43191466263E+00 -0.63179640904E+02  0.16731279562E+00  0.11392597389E+03  0.94801086267E+02 0.  0.
          5    1    3    3  502    0 -0.91838589524E+01 -0.19293418881E+02 -0.96156695179E-01  0.21878723077E+02  0.47000000000E+01 0. -1.
         -5    1    3    3    0  502  0.87519442897E+01  0.82473059785E+02  0.76946477290E+02  0.11323096964E+03  0.47000000000E+01 0.  1.
          5    1    4    4  503    0 -0.41564497509E+02 -0.35259523270E+02  0.21746776983E+02  0.58871501964E+02  0.47000000000E+01 0. -1.
         -5    1    4    4    0  503  0.41996412171E+02 -0.27920117634E+02 -0.21579464188E+02  0.55054471922E+02  0.47000000000E+01 0.  1.
<mgrwt>
<rscale>  0 0.11321896E+03</rscale>
<asrwt>0</asrwt>
<pdfrwt beam="1">  1        1 0.13232156E-01 0.11392585E+03</pdfrwt>
<pdfrwt beam="2">  1       -1 0.25081023E-01 0.11392585E+03</pdfrwt>
<totfact> 0.57265397E+03</totfact>
</mgrwt>
</event>
<event>
 8    1  0.9456677E-004  0.9377470E+02  0.7546771E-02  0.1293985E+00
         -2   -1    0    0    0  501 -0.00000000000E+00  0.00000000000E+00  0.49272475141E+02  0.49272475141E+02  0.00000000000E+00 0.  1.
          2   -1    0    0  501    0  0.00000000000E+00 -0.00000000000E+00 -0.20216316458E+03  0.20216316458E+03  0.00000000000E+00 0. -1.
         23    2    1    2    0    0  0.77228437100E+00 -0.17976011208E+02 -0.33314959212E+02  0.99474957079E+02  0.91987212027E+02 0.  0.
         23    2    1    2    0    0 -0.77228437100E+00  0.17976011208E+02 -0.11957573023E+03  0.15196068265E+03  0.92032387820E+02 0.  0.
          5    1    4    4  502    0  0.25813925751E+02 -0.11043123683E+02 -0.10647599491E+03  0.11021586472E+03  0.47000000000E+01 0. -1.
         -5    1    3    3    0  503 -0.27302627674E+02 -0.45431665547E+02 -0.26118565569E+02  0.59276801362E+02  0.47000000000E+01 0.  1.
          5    1    3    3  503    0  0.28074912045E+02  0.27455654340E+02 -0.71963936432E+01  0.40198155717E+02  0.47000000000E+01 0. -1.
         -5    1    4    4    0  502 -0.26586210122E+02  0.29019134890E+02 -0.13099735322E+02  0.41744817929E+02  0.47000000000E+01 0.  1.
<mgrwt>
<rscale>  0 0.93763611E+02</rscale>
<asrwt>0</asrwt>
<pdfrwt beam="1">  1        2 0.31102025E-01 0.93774697E+02</pdfrwt>
<pdfrwt beam="2">  1       -2 0.75803808E-02 0.93774697E+02</pdfrwt>
<totfact> 0.15644564E+04</totfact>
</mgrwt>
</event>
<event>
 8    1  0.9456677E-004  0.1012694E+03  0.7546771E-02  0.1280574E+00
          2   -1    0    0  501    0  0.00000000000E+00  0.00000000000E+00  0.34373642395E+03  0.34373642395E+03  0.00000000000E+00 0. -1.
         -2   -1    0    0    0  501 -0.00000000000E+00 -0.00000000000E+00 -0.28705262027E+02  0.28705262027E+02  0.00000000000E+00 0.  1.
         23    2    1    2    0    0 -0.18791416260E+02 -0.36215256087E+02  0.18554333577E+03  0.21138075555E+03  0.92686742671E+02 0.  0.
         23    2    1    2    0    0  0.18791416260E+02  0.36215256087E+02  0.12948782615E+03  0.16106093043E+03  0.86653702126E+02 0.  0.
          5    1    4    4  502    0 -0.28585882505E+02  0.49344721220E+01  0.81295799736E+02  0.86444194417E+02  0.47000000000E+01 0. -1.
         -5    1    3    3    0  503  0.30720200507E+02 -0.38150755669E+02  0.11461854592E+03  0.12473456596E+03  0.47000000000E+01 0.  1.
          5    1    3    3  503    0 -0.49511616767E+02  0.19354995822E+01  0.70924789854E+02  0.86646189584E+02  0.47000000000E+01 0. -1.
         -5    1    4    4    0  502  0.47377298765E+02  0.31280783964E+02  0.48192026416E+02  0.74616736017E+02  0.47000000000E+01 0.  1.
<mgrwt>
<rscale>  0 0.99867864E+02</rscale>
<asrwt>0</asrwt>
<pdfrwt beam="1">  1        2 0.52882524E-01 0.10126941E+03</pdfrwt>
<pdfrwt beam="2">  1       -2 0.44161944E-02 0.10126941E+03</pdfrwt>
<totfact> 0.20277187E+04</totfact>
</mgrwt>
</event>
<event>
 8    1  0.9456677E-004  0.1411547E+03  0.7546771E-02  0.1212611E+00
         -2   -1    0    0    0  501 -0.00000000000E+00  0.00000000000E+00  0.31894606104E+03  0.31894606104E+03  0.00000000000E+00 0.  1.
          2   -1    0    0  501    0  0.00000000000E+00 -0.00000000000E+00 -0.62265297013E+02  0.62265297013E+02  0.00000000000E+00 0. -1.
         23    2    1    2    0    0  0.47496257194E+02  0.96346637980E+02  0.14989344411E+03  0.20421364696E+03  0.87730267988E+02 0.  0.
         23    2    1    2    0    0 -0.47496257194E+02 -0.96346637980E+02  0.10678731992E+03  0.17699771110E+03  0.91575591393E+02 0.  0.
          5    1    3    3  502    0  0.34253540049E+02  0.57872687480E+02  0.23569973119E+02  0.71415590699E+02  0.47000000000E+01 0.  1.
         -5    1    3    3    0  502  0.13242717145E+02  0.38473950500E+02  0.12632347099E+03  0.13279805626E+03  0.47000000000E+01 0. -1.
          5    1    4    4  503    0 -0.29746514590E+02 -0.11262844097E+03  0.89562070698E+02  0.14701522150E+03  0.47000000000E+01 0. -1.
         -5    1    4    4    0  503 -0.17749742604E+02  0.16281802993E+02  0.17225249225E+02  0.29982489591E+02  0.47000000000E+01 0.  1.
<mgrwt>
<rscale>  0 0.14053470E+03</rscale>
<asrwt>0</asrwt>
<pdfrwt beam="1">  1        2 0.95792766E-02 0.14115473E+03</pdfrwt>
<pdfrwt beam="2">  1       -2 0.49068624E-01 0.14115473E+03</pdfrwt>
<totfact> 0.26005534E+03</totfact>
</mgrwt>
</event>
<event>
 8    1  0.9456677E-004  0.1054298E+03  0.7546771E-02  0.1269998E+00
          1   -1    0    0  501    0  0.00000000000E+00  0.00000000000E+00  0.47915471856E+03  0.47915471856E+03  0.00000000000E+00 0. -1.
         -1   -1    0    0    0  501 -0.00000000000E+00 -0.00000000000E+00 -0.31394924573E+02  0.31394924573E+02  0.00000000000E+00 0.  1.
         23    2    1    2    0    0 -0.29683561033E+02  0.34062448637E+02  0.89775442249E+02  0.13736303541E+03  0.93635512831E+02 0.  0.
         23    2    1    2    0    0  0.29683561033E+02 -0.34062448637E+02  0.35798435174E+03  0.37318660772E+03  0.95257985974E+02 0.  0.
          5    1    3    3  502    0  0.25323824437E+02  0.59406629142E+01 -0.21361091485E+01  0.26518682514E+02  0.47000000000E+01 0. -1.
         -5    1    3    3    0  502 -0.55007385471E+02  0.28121785723E+02  0.91911551398E+02  0.11084435290E+03  0.47000000000E+01 0.  1.
          5    1    4    4  503    0  0.38390033233E+02 -0.63765499289E-01  0.31558481495E+03  0.31794600823E+03  0.47000000000E+01 0. -1.
         -5    1    4    4    0  503 -0.87064722000E+01 -0.33998683138E+02  0.42399536786E+02  0.55240599499E+02  0.47000000000E+01 0.  1.
<mgrwt>
<rscale>  0 0.10506200E+03</rscale>
<asrwt>0</asrwt>
<pdfrwt beam="1">  1        1 0.73716105E-01 0.10542983E+03</pdfrwt>
<pdfrwt beam="2">  1       -1 0.48299887E-02 0.10542983E+03</pdfrwt>
<totfact> 0.83120794E+03</totfact>
</mgrwt>
</event>
<event>
 8    1  0.9456677E-004  0.9593103E+02  0.7546771E-02  0.1290741E+00
         -1   -1    0    0    0  501 -0.00000000000E+00  0.00000000000E+00  0.15654984015E+02  0.15654984015E+02  0.00000000000E+00 0.  1.
          1   -1    0    0  501    0  0.00000000000E+00 -0.00000000000E+00 -0.58543186173E+03  0.58543186173E+03  0.00000000000E+00 0. -1.
         23    2    1    2    0    0 -0.16097115286E+02  0.22802289724E+02 -0.33778791622E+03  0.35114589358E+03  0.91780720731E+02 0.  0.
         23    2    1    2    0    0  0.16097115286E+02 -0.22802289724E+02 -0.23198896149E+03  0.24994095216E+03  0.88727333867E+02 0.  0.
          5    1    3    3  502    0  0.32578354523E+02  0.47300080489E+01 -0.21776125644E+03  0.22028567127E+03  0.47000000000E+01 0. -1.
         -5    1    3    3    0  502 -0.48675469810E+02  0.18072281675E+02 -0.12002665978E+03  0.13086022231E+03  0.47000000000E+01 0.  1.
          5    1    4    4  503    0 -0.98165931805E+01 -0.39197405477E+02 -0.20445149860E+03  0.20845936625E+03  0.47000000000E+01 0. -1.
         -5    1    4    4    0  503  0.25913708467E+02  0.16395115754E+02 -0.27537462895E+02  0.41481585912E+02  0.47000000000E+01 0.  1.
<mgrwt>
<rscale>  0 0.95193301E+02</rscale>
<asrwt>0</asrwt>
<pdfrwt beam="1">  1        1 0.90066437E-01 0.95931029E+02</pdfrwt>
<pdfrwt beam="2">  1       -1 0.24084592E-02 0.95931029E+02</pdfrwt>
<totfact> 0.17414665E+04</totfact>
</mgrwt>
</event>
<event>
 8    1  0.9456677E-004  0.1159059E+03  0.7546771E-02  0.1250359E+00
         -2   -1    0    0    0  501 -0.00000000000E+00  0.00000000000E+00  0.79593226504E+02  0.79593226504E+02  0.00000000000E+00 0.  1.
          2   -1    0    0  501    0  0.00000000000E+00 -0.00000000000E+00 -0.17059689995E+03  0.17059689995E+03  0.00000000000E+00 0. -1.
         23    2    1    2    0    0 -0.59697363586E+02  0.40842292769E+02 -0.29105617071E+02  0.11950441850E+03  0.90566555627E+02 0.  0.
         23    2    1    2    0    0  0.59697363586E+02 -0.40842292769E+02 -0.61898056375E+02  0.13068570796E+03  0.89529418534E+02 0.  0.
          5    1    3    3  502    0  0.13754687788E+02  0.15592565579E+02  0.18550077331E+02  0.28258006060E+02  0.47000000000E+01 0. -1.
         -5    1    4    4    0  503  0.20642499152E+02  0.20967192515E+02  0.64535386500E+01  0.30487277581E+02  0.47000000000E+01 0.  1.
          5    1    4    4  503    0  0.39054864434E+02 -0.61809485284E+02 -0.68351595025E+02  0.10019843037E+03  0.47000000000E+01 0. -1.
         -5    1    3    3    0  502 -0.73452051374E+02  0.25249727189E+02 -0.47655694402E+02  0.91246412440E+02  0.47000000000E+01 0.  1.
<mgrwt>
<rscale>  0 0.11570319E+03</rscale>
<asrwt>0</asrwt>
<pdfrwt beam="1">  1        2 0.26245677E-01 0.11590586E+03</pdfrwt>
<pdfrwt beam="2">  1       -2 0.12245112E-01 0.11590586E+03</pdfrwt>
<totfact> 0.90779333E+03</totfact>
</mgrwt>
</event>
<event>
 8    1  0.9456677E-004  0.9374255E+02  0.7546771E-02  0.1294157E+00
          1   -1    0    0  501    0  0.00000000000E+00  0.00000000000E+00  0.36024342110E+03  0.36024342110E+03  0.00000000000E+00 0. -1.
         -1   -1    0    0    0  501 -0.00000000000E+00 -0.00000000000E+00 -0.25105282356E+02  0.25105282356E+02  0.00000000000E+00 0.  1.
         23    2    1    2    0    0 -0.16633315812E+01  0.22243527857E+02  0.13369665125E+03  0.16316333534E+03  0.90829170655E+02 0.  0.
         23    2    1    2    0    0  0.16633315812E+01 -0.22243527857E+02  0.20144148749E+03  0.22218536811E+03  0.91050116504E+02 0.  0.
          5    1    3    3  502    0 -0.25627208323E+02 -0.19731526987E+02  0.96817606264E+02  0.10218525259E+03  0.47000000000E+01 0. -1.
         -5    1    4    4    0  503 -0.26185382737E+02  0.26371108358E+02  0.84475266850E+02  0.92408172444E+02  0.47000000000E+01 0.  1.
          5    1    4    4  503    0  0.27848714318E+02 -0.48614636215E+02  0.11696622064E+03  0.12977719566E+03  0.47000000000E+01 0. -1.
         -5    1    3    3    0  502  0.23963876742E+02  0.41975054844E+02  0.36879044986E+02  0.60978082757E+02  0.47000000000E+01 0.  1.
<mgrwt>
<rscale>  0 0.93688854E+02</rscale>
<asrwt>0</asrwt>
<pdfrwt beam="1">  1        1 0.55422061E-01 0.93742546E+02</pdfrwt>
<pdfrwt beam="2">  1       -1 0.38623514E-02 0.93742546E+02</pdfrwt>
<totfact> 0.16309370E+04</totfact>
</mgrwt>
</event>
<event>
 8    1  0.9456677E-004  0.1424682E+03  0.7546771E-02  0.1210099E+00
          3   -1    0    0  501    0  0.00000000000E+00  0.00000000000E+00  0.31868259981E+03  0.31868259981E+03  0.00000000000E+00 0. -1.
         -3   -1    0    0    0  501 -0.00000000000E+00 -0.00000000000E+00 -0.36941684752E+03  0.36941684752E+03  0.00000000000E+00 0.  1.
         23    2    1    2    0    0 -0.49723126367E+02 -0.98210897994E+02 -0.33839565664E+03  0.36716320635E+03  0.90440200610E+02 0.  0.
         23    2    1    2    0    0  0.49723126367E+02  0.98210897994E+02  0.28766140892E+03  0.32093624098E+03  0.90184337930E+02 0.  0.
          5    1    3    3  502    0  0.24490865155E+02 -0.35745336399E+02 -0.79702800584E+02  0.90841389087E+02  0.47000000000E+01 0. -1.
         -5    1    3    3    0  502 -0.74213991522E+02 -0.62465561595E+02 -0.25869285605E+03  0.27632181726E+03  0.47000000000E+01 0.  1.
          5    1    4    4  503    0  0.53613063008E+02  0.11906345896E+02  0.12736802889E+03  0.13878337934E+03  0.47000000000E+01 0. -1.
         -5    1    4    4    0  503 -0.38899366410E+01  0.86304552098E+02  0.16029338003E+03  0.18215286164E+03  0.47000000000E+01 0.  1.
<mgrwt>
<rscale>  0 0.14242765E+03</rscale>
<asrwt>0</asrwt>
<pdfrwt beam="1">  1        3 0.49028092E-01 0.14246824E+03</pdfrwt>
<pdfrwt beam="2">  1       -3 0.56833361E-01 0.14246824E+03</pdfrwt>
<totfact> 0.30517907E+01</totfact>
</mgrwt>
</event>
<event>
 8    1  0.9456677E-004  0.1314362E+03  0.7546771E-02  0.1229979E+00
         -1   -1    0    0    0  501 -0.00000000000E+00  0.00000000000E+00  0.24497698729E+03  0.24497698729E+03  0.00000000000E+00 0.  1.
          1   -1    0    0  501    0  0.00000000000E+00 -0.00000000000E+00 -0.86328955790E+02  0.86328955790E+02  0.00000000000E+00 0. -1.
         23    2    1    2    0    0  0.33172751014E+02  0.89730874126E+02  0.16028347082E+03  0.19985957255E+03  0.71421261117E+02 0.  0.
         23    2    1    2    0    0 -0.33172751014E+02 -0.89730874126E+02 -0.16354393164E+01  0.13144637054E+03  0.90129975503E+02 0.  0.
          5    1    4    4  502    0 -0.15934281401E+02 -0.10336627404E+03 -0.14272576277E+02  0.10566117719E+03  0.47000000000E+01 0. -1.
         -5    1    3    3    0  503  0.31077179568E+02  0.30311506851E+02  0.21225150500E+02  0.48550752324E+02  0.47000000000E+01 0. -1.
          5    1    3    3  503    0  0.20955714454E+01  0.59419367275E+02  0.13905832032E+03  0.15130882022E+03  0.47000000000E+01 0.  1.
         -5    1    4    4    0  502 -0.17238469613E+02  0.13635399910E+02  0.12637136961E+02  0.25785193345E+02  0.47000000000E+01 0.  1.
<mgrwt>
<rscale>  0 0.12831421E+03</rscale>
<asrwt>0</asrwt>
<pdfrwt beam="1">  1        1 0.13281378E-01 0.13143620E+03</pdfrwt>
<pdfrwt beam="2">  1       -1 0.37688767E-01 0.13143620E+03</pdfrwt>
<totfact> 0.28983820E+03</totfact>
</mgrwt>
</event>
<event>
 8    1  0.9456677E-004  0.1010792E+03  0.7546771E-02  0.1279957E+00
          2   -1    0    0  501    0  0.00000000000E+00  0.00000000000E+00  0.66825130331E+03  0.66825130331E+03  0.00000000000E+00 0. -1.
         -2   -1    0    0    0  501 -0.00000000000E+00 -0.00000000000E+00 -0.54614182260E+02  0.54614182260E+02  0.00000000000E+00 0.  1.
         23    2    1    2    0    0 -0.31262442934E+02  0.32320122662E+01 -0.46278774639E+00  0.10108029791E+03  0.96068861818E+02 0.  0.
         23    2    1    2    0    0  0.31262442934E+02 -0.32320122662E+01  0.61409990880E+03  0.62178518767E+03  0.92251478977E+02 0.  0.
          5    1    4    4  502    0  0.51357460862E+02 -0.31912393228E+02  0.33351406913E+03  0.33898335348E+03  0.47000000000E+01 0. -1.
         -5    1    4    4    0  502 -0.20095017929E+02  0.28680380962E+02  0.28058583966E+03  0.28280183418E+03  0.47000000000E+01 0.  1.
          5    1    3    3  503    0 -0.48158429065E+02  0.17160361730E+02  0.32842000179E+02  0.60945871726E+02  0.47000000000E+01 0. -1.
         -5    1    3    3    0  503  0.16895986131E+02 -0.13928349464E+02 -0.33304787925E+02  0.40134426181E+02  0.47000000000E+01 0.  1.
<mgrwt>
<rscale>  0 0.10016158E+03</rscale>
<asrwt>0</asrwt>
<pdfrwt beam="1">  1        2 0.10280789E+00 0.10107924E+03</pdfrwt>
<pdfrwt beam="2">  1       -2 0.84021824E-02 0.10107924E+03</pdfrwt>
<totfact> 0.37344327E+03</totfact>
</mgrwt>
</event>
<event>
 8    1  0.9456677E-004  0.9479666E+02  0.7546771E-02  0.1292672E+00
          2   -1    0    0  501    0  0.00000000000E+00  0.00000000000E+00  0.75208387093E+03  0.75208387093E+03  0.00000000000E+00 0. -1.
         -2   -1    0    0    0  501 -0.00000000000E+00 -0.00000000000E+00 -0.22678284984E+02  0.22678284984E+02  0.00000000000E+00 0.  1.
         23    2    1    2    0    0  0.70164341787E+00  0.26373279975E+02  0.93610848895E+02  0.13193919856E+03  0.89156709700E+02 0.  0.
         23    2    1    2    0    0 -0.70164341787E+00 -0.26373279975E+02  0.63579473705E+03  0.64282295736E+03  0.91051439562E+02 0.  0.
          5    1    4    4  502    0  0.10379448802E+02 -0.58022983460E+02  0.34087407026E+03  0.34596476893E+03  0.47000000000E+01 0. -1.
         -5    1    3    3    0  503  0.29282344907E+02  0.43588382403E+02  0.31876998171E+02  0.61608731655E+02  0.47000000000E+01 0.  1.
          5    1    3    3  503    0 -0.28580701489E+02 -0.17215102428E+02  0.61733850724E+02  0.70330466900E+02  0.47000000000E+01 0. -1.
         -5    1    4    4    0  502 -0.11081092220E+02  0.31649703485E+02  0.29492066679E+03  0.29685818843E+03  0.47000000000E+01 0.  1.
<mgrwt>
<rscale>  0 0.94338759E+02</rscale>
<asrwt>0</asrwt>
<pdfrwt beam="1">  1        2 0.11570519E+00 0.94796661E+02</pdfrwt>
<pdfrwt beam="2">  1       -2 0.34889675E-02 0.94796661E+02</pdfrwt>
<totfact> 0.12065174E+04</totfact>
</mgrwt>
</event>
<event>
 8    1  0.9456677E-004  0.1100920E+03  0.7546771E-02  0.1261818E+00
         -1   -1    0    0    0  501 -0.00000000000E+00  0.00000000000E+00  0.30366521398E+03  0.30366521398E+03  0.00000000000E+00 0.  1.
          1   -1    0    0  501    0  0.00000000000E+00 -0.00000000000E+00 -0.40365273522E+02  0.40365273522E+02  0.00000000000E+00 0. -1.
         23    2    1    2    0    0 -0.29121273046E+02 -0.49503122127E+02  0.16348542486E+03  0.19542639284E+03  0.90362510107E+02 0.  0.
         23    2    1    2    0    0  0.29121273046E+02  0.49503122127E+02  0.99814515598E+02  0.14860409466E+03  0.93923542215E+02 0.  0.
          5    1    3    3  502    0 -0.30171976952E+02  0.13944864945E+02  0.21578333466E+02  0.39906414606E+02  0.47000000000E+01 0. -1.
         -5    1    3    3    0  502  0.10507039057E+01 -0.63447987072E+02  0.14190709139E+03  0.15551997823E+03  0.47000000000E+01 0.  1.
          5    1    4    4  503    0 -0.21138544119E+02  0.36017535206E+01 -0.59481264200E+01  0.22743809790E+02  0.47000000000E+01 0. -1.
         -5    1    4    4    0  503  0.50259817165E+02  0.45901368606E+02  0.10576264202E+03  0.12586028487E+03  0.47000000000E+01 0.  1.
<mgrwt>
<rscale>  0 0.10932857E+03</rscale>
<asrwt>0</asrwt>
<pdfrwt beam="1">  1        1 0.62100423E-02 0.11009196E+03</pdfrwt>
<pdfrwt beam="2">  1       -1 0.46717724E-01 0.11009196E+03</pdfrwt>
<totfact> 0.53831512E+03</totfact>
</mgrwt>
</event>
<event>
 8    1  0.9456677E-004  0.1080850E+03  0.7546771E-02  0.1265121E+00
         -1   -1    0    0    0  501 -0.00000000000E+00  0.00000000000E+00  0.45402742781E+03  0.45402742781E+03  0.00000000000E+00 0.  1.
          1   -1    0    0  501    0  0.00000000000E+00 -0.00000000000E+00 -0.25293882584E+02  0.25293882584E+02  0.00000000000E+00 0. -1.
         23    2    1    2    0    0 -0.91274148931E+01  0.53892739616E+02  0.22593285069E+03  0.25045561592E+03  0.93244975432E+02 0.  0.
         23    2    1    2    0    0  0.91274148931E+01 -0.53892739616E+02  0.20280069454E+03  0.22886569447E+03  0.90904605567E+02 0.  0.
          5    1    3    3  502    0 -0.42286260873E+02  0.53194428674E+01  0.13844368179E+03  0.14493159545E+03  0.47000000000E+01 0. -1.
         -5    1    3    3    0  502  0.33158845980E+02  0.48573296749E+02  0.87489168892E+02  0.10552402047E+03  0.47000000000E+01 0.  1.
          5    1    4    4  503    0 -0.38714863275E+02 -0.11405977259E+02  0.96486212540E+02  0.10469296140E+03  0.47000000000E+01 0. -1.
         -5    1    4    4    0  503  0.47842278168E+02 -0.42486762358E+02  0.10631448200E+03  0.12417273307E+03  0.47000000000E+01 0.  1.
<mgrwt>
<rscale>  0 0.10757832E+03</rscale>
<asrwt>0</asrwt>
<pdfrwt beam="1">  1        1 0.38913669E-02 0.10808498E+03</pdfrwt>
<pdfrwt beam="2">  1       -1 0.69850368E-01 0.10808498E+03</pdfrwt>
<totfact> 0.47802831E+03</totfact>
</mgrwt>
</event>
<event>
 8    1  0.9456677E-004  0.1024561E+03  0.7546771E-02  0.1276958E+00
         -1   -1    0    0    0  501 -0.00000000000E+00  0.00000000000E+00  0.71712759740E+02  0.71712759740E+02  0.00000000000E+00 0.  1.
          1   -1    0    0  501    0  0.00000000000E+00 -0.00000000000E+00 -0.47001633788E+03  0.47001633788E+03  0.00000000000E+00 0. -1.
         23    2    1    2    0    0  0.30485366831E+02 -0.34594974512E+02  0.26249391969E+02  0.10576526628E+03  0.91493667103E+02 0.  0.
         23    2    1    2    0    0 -0.30485366831E+02  0.34594974512E+02 -0.42455297011E+03  0.43596383134E+03  0.87710136001E+02 0.  0.
          5    1    3    3  502    0 -0.67179399632E+01  0.28138775858E+02  0.58796817746E+01  0.29892843322E+02  0.47000000000E+01 0. -1.
         -5    1    4    4    0  503  0.66132451246E+01  0.49534516992E+02 -0.14317017496E+03  0.15171417990E+03  0.47000000000E+01 0.  1.
          5    1    4    4  503    0 -0.37098611956E+02 -0.14939542480E+02 -0.28138279516E+03  0.28424965145E+03  0.47000000000E+01 0. -1.
         -5    1    3    3    0  502  0.37203306794E+02 -0.62733750370E+02  0.20369710194E+02  0.75872422956E+02  0.47000000000E+01 0.  1.
<mgrwt>
<rscale>  0 0.10160456E+03</rscale>
<asrwt>0</asrwt>
<pdfrwt beam="1">  1        1 0.72310208E-01 0.10245614E+03</pdfrwt>
<pdfrwt beam="2">  1       -1 0.11032732E-01 0.10245614E+03</pdfrwt>
<totfact> 0.24783935E+03</totfact>
</mgrwt>
</event>
<event>
 8    1  0.9456677E-004  0.1105358E+03  0.7546771E-02  0.1261245E+00
          1   -1    0    0  501    0  0.00000000000E+00  0.00000000000E+00  0.44460019922E+03  0.44460019922E+03  0.00000000000E+00 0. -1.
         -1   -1    0    0    0  501 -0.00000000000E+00 -0.00000000000E+00 -0.36733433995E+02  0.36733433995E+02  0.00000000000E+00 0.  1.
         23    2    1    2    0    0 -0.36350988923E+02 -0.51759929620E+02  0.32788283369E+03  0.34489463810E+03  0.86282524612E+02 0.  0.
         23    2    1    2    0    0  0.36350988923E+02  0.51759929620E+02  0.79983931534E+02  0.13643899511E+03  0.90651449924E+02 0.  0.
          5    1    3    3  502    0  0.26583437823E+02 -0.45594718232E+01  0.10412600554E+03  0.10766514282E+03  0.47000000000E+01 0.  1.
         -5    1    3    3    0  502 -0.62934426746E+02 -0.47200457797E+02  0.22375682815E+03  0.23722949528E+03  0.47000000000E+01 0. -1.
          5    1    4    4  503    0 -0.79757602053E+01  0.20588537041E+02  0.78867372994E+02  0.82034463070E+02  0.47000000000E+01 0. -1.
         -5    1    4    4    0  503  0.44326749128E+02  0.31171392579E+02  0.11165585400E+01  0.54404532040E+02  0.47000000000E+01 0.  1.
<mgrwt>
<rscale>  0 0.10963647E+03</rscale>
<asrwt>0</asrwt>
<pdfrwt beam="1">  1        1 0.68400027E-01 0.11053583E+03</pdfrwt>
<pdfrwt beam="2">  1       -1 0.56512978E-02 0.11053583E+03</pdfrwt>
<totfact> 0.72808149E+03</totfact>
</mgrwt>
</event>
<event>
 8    1  0.9456677E-004  0.1136839E+03  0.7546771E-02  0.1254962E+00
          1   -1    0    0  501    0  0.00000000000E+00  0.00000000000E+00  0.49870211171E+02  0.49870211171E+02  0.00000000000E+00 0. -1.
         -1   -1    0    0    0  501 -0.00000000000E+00 -0.00000000000E+00 -0.47214053058E+03  0.47214053058E+03  0.00000000000E+00 0.  1.
         23    2    1    2    0    0 -0.58095872980E+02  0.30321933379E+02 -0.34830694725E+02  0.11889995056E+03  0.92894945216E+02 0.  0.
         23    2    1    2    0    0  0.58095872980E+02 -0.30321933379E+02 -0.38743962468E+03  0.40311079119E+03  0.89968311643E+02 0.  0.
          5    1    3    3  502    0 -0.37552078050E+02  0.30682763051E+02  0.25502145185E+02  0.54991271338E+02  0.47000000000E+01 0. -1.
         -5    1    4    4    0  503  0.38487130792E+02 -0.61363311043E+02 -0.28796252062E+03  0.29697006324E+03  0.47000000000E+01 0.  1.
          5    1    4    4  503    0  0.19608742188E+02  0.31041377665E+02 -0.99477104061E+02  0.10614072795E+03  0.47000000000E+01 0. -1.
         -5    1    3    3    0  502 -0.20543794930E+02 -0.36082967240E+00 -0.60332839910E+02  0.63908679221E+02  0.47000000000E+01 0.  1.
<mgrwt>
<rscale>  0 0.11308447E+03</rscale>
<asrwt>0</asrwt>
<pdfrwt beam="1">  1        1 0.76723404E-02 0.11368386E+03</pdfrwt>
<pdfrwt beam="2">  1       -1 0.72637002E-01 0.11368386E+03</pdfrwt>
<totfact> 0.17706418E+03</totfact>
</mgrwt>
</event>
<event>
 8    1  0.9456677E-004  0.2130584E+03  0.7546771E-02  0.1139195E+00
          1   -1    0    0  501    0  0.00000000000E+00  0.00000000000E+00  0.58820829515E+02  0.58820829515E+02  0.00000000000E+00 0. -1.
         -1   -1    0    0    0  501 -0.00000000000E+00 -0.00000000000E+00 -0.90019408776E+03  0.90019408776E+03  0.00000000000E+00 0.  1.
         23    2    1    2    0    0  0.16505500534E+03 -0.98064002370E+02 -0.23930185521E+03  0.32040482880E+03  0.92380588139E+02 0.  0.
         23    2    1    2    0    0 -0.16505500534E+03  0.98064002370E+02 -0.60207140303E+03  0.63861008847E+03  0.92049809344E+02 0.  0.
          5    1    4    4  502    0 -0.12928914429E+03  0.75144968407E+02 -0.31914874627E+03  0.35247760405E+03  0.47000000000E+01 0. -1.
         -5    1    3    3    0  503  0.12235712364E+03 -0.20644749633E+02 -0.14861793434E+03  0.19366685777E+03  0.47000000000E+01 0.  1.
          5    1    3    3  503    0  0.42697881697E+02 -0.77419252737E+02 -0.90683920874E+02  0.12673797103E+03  0.47000000000E+01 0. -1.
         -5    1    4    4    0  502 -0.35765861046E+02  0.22919033963E+02 -0.28292265676E+03  0.28613248442E+03  0.47000000000E+01 0.  1.
<mgrwt>
<rscale>  0 0.21302257E+03</rscale>
<asrwt>0</asrwt>
<pdfrwt beam="1">  1        1 0.90493586E-02 0.21305839E+03</pdfrwt>
<pdfrwt beam="2">  1       -1 0.13849140E+00 0.21305839E+03</pdfrwt>
<totfact> 0.34234159E+02</totfact>
</mgrwt>
</event>
<event>
 8    1  0.9456677E-004  0.9989263E+02  0.7546771E-02  0.1284366E+00
         -3   -1    0    0    0  501 -0.00000000000E+00  0.00000000000E+00  0.69101430743E+02  0.69101430743E+02  0.00000000000E+00 0.  1.
          3   -1    0    0  501    0  0.00000000000E+00 -0.00000000000E+00 -0.13501246111E+03  0.13501246111E+03  0.00000000000E+00 0. -1.
         23    2    1    2    0    0 -0.40690639123E+01 -0.94240937882E+01 -0.25090237310E+02  0.96202470289E+02  0.92303978552E+02 0.  0.
         23    2    1    2    0    0  0.40690639123E+01  0.94240937882E+01 -0.40820793056E+02  0.10791142156E+03  0.99363810983E+02 0.  0.
          5    1    3    3  502    0 -0.11000628507E+02 -0.35447651742E+02 -0.47773705384E+02  0.60679211990E+02  0.47000000000E+01 0. -1.
         -5    1    3    3    0  502  0.69315645952E+01  0.26023557954E+02  0.22683468074E+02  0.35523258299E+02  0.47000000000E+01 0.  1.
          5    1    4    4  503    0 -0.35568155837E+02  0.30276823595E+02  0.27329810382E+00  0.46946186730E+02  0.47000000000E+01 0. -1.
         -5    1    4    4    0  503  0.39637219749E+02 -0.20852729807E+02 -0.41094091160E+02  0.60965234832E+02  0.47000000000E+01 0.  1.
<mgrwt>
<rscale>  0 0.98089487E+02</rscale>
<asrwt>0</asrwt>
<pdfrwt beam="1">  1        3 0.20771148E-01 0.99892631E+02</pdfrwt>
<pdfrwt beam="2">  1       -3 0.10630989E-01 0.99892631E+02</pdfrwt>
<totfact> 0.30068255E+03</totfact>
</mgrwt>
</event>
<event>
 8    1  0.9456677E-004  0.1161764E+03  0.7546771E-02  0.1250725E+00
          2   -1    0    0  501    0  0.00000000000E+00  0.00000000000E+00  0.27692812953E+03  0.27692812953E+03  0.00000000000E+00 0. -1.
         -2   -1    0    0    0  501 -0.00000000000E+00 -0.00000000000E+00 -0.49533731714E+02  0.49533731714E+02  0.00000000000E+00 0.  1.
         23    2    1    2    0    0 -0.71143712864E+02 -0.12170892665E+02  0.80205732839E+02  0.13894798155E+03  0.87544408661E+02 0.  0.
         23    2    1    2    0    0  0.71143712864E+02  0.12170892665E+02  0.14718866498E+03  0.18751387970E+03  0.91035122192E+02 0.  0.
          5    1    3    3  502    0 -0.32444943641E+02 -0.35334130152E+02  0.80238052151E+02  0.93602404533E+02  0.47000000000E+01 0. -1.
         -5    1    4    4    0  503  0.77592306292E+02 -0.19049501541E+02  0.80856117811E+02  0.11376841078E+03  0.47000000000E+01 0.  1.
          5    1    4    4  503    0 -0.64485934279E+01  0.31220394206E+02  0.66332547167E+02  0.73745468913E+02  0.47000000000E+01 0. -1.
         -5    1    3    3    0  502 -0.38698769223E+02  0.23163237487E+02 -0.32319312028E-01  0.45345577015E+02  0.47000000000E+01 0.  1.
<mgrwt>
<rscale>  0 0.11549171E+03</rscale>
<asrwt>0</asrwt>
<pdfrwt beam="1">  1        2 0.42604327E-01 0.11617638E+03</pdfrwt>
<pdfrwt beam="2">  1       -2 0.76205743E-02 0.11617638E+03</pdfrwt>
<totfact> 0.11336914E+04</totfact>
</mgrwt>
</event>
<event>
 8    1  0.9456677E-004  0.1086621E+03  0.7546771E-02  0.1266086E+00
          1   -1    0    0  501    0  0.00000000000E+00  0.00000000000E+00  0.72137936866E+02  0.72137936866E+02  0.00000000000E+00 0. -1.
         -1   -1    0    0    0  501 -0.00000000000E+00 -0.00000000000E+00 -0.19977916057E+03  0.19977916057E+03  0.00000000000E+00 0.  1.
         23    2    1    2    0    0  0.50222363419E+02 -0.36559550543E+02 -0.12710615612E+03  0.16325363349E+03  0.81467093986E+02 0.  0.
         23    2    1    2    0    0 -0.50222363419E+02  0.36559550543E+02 -0.53506758969E+00  0.10866346395E+03  0.89154784371E+02 0.  0.
          5    1    4    4  502    0  0.47561021106E+01 -0.19610465127E+02 -0.18640149744E+02  0.27869984432E+02  0.47000000000E+01 0. -1.
         -5    1    4    4    0  502 -0.54978465530E+02  0.56170015670E+02  0.18105082154E+02  0.80793479515E+02  0.47000000000E+01 0.  1.
          5    1    3    3  503    0  0.69363464360E+02 -0.42824669083E+02 -0.10442384138E+03  0.13255818012E+03  0.47000000000E+01 0. -1.
         -5    1    3    3    0  503 -0.19141100941E+02  0.62651185398E+01 -0.22682314742E+02  0.30695453370E+02  0.47000000000E+01 0.  1.
<mgrwt>
<rscale>  0 0.10707437E+03</rscale>
<asrwt>0</asrwt>
<pdfrwt beam="1">  1        1 0.11098144E-01 0.10866215E+03</pdfrwt>
<pdfrwt beam="2">  1       -1 0.30735255E-01 0.10866215E+03</pdfrwt>
<totfact> 0.51271180E+03</totfact>
</mgrwt>
</event>
<event>
 8    1  0.9456677E-004  0.1058514E+03  0.7546771E-02  0.1268886E+00
          1   -1    0    0  501    0  0.00000000000E+00  0.00000000000E+00  0.20211992733E+03  0.20211992733E+03  0.00000000000E+00 0. -1.
         -1   -1    0    0    0  501 -0.00000000000E+00 -0.00000000000E+00 -0.62667746488E+02  0.62667746488E+02  0.00000000000E+00 0.  1.
         23    2    1    2    0    0  0.19846369318E+02 -0.42460701632E+02  0.23070528054E+02  0.10746889330E+03  0.93917645862E+02 0.  0.
         23    2    1    2    0    0 -0.19846369318E+02  0.42460701632E+02  0.11638165279E+03  0.15731878051E+03  0.94909009263E+02 0.  0.
          5    1    3    3  502    0 -0.20515503977E+02 -0.12372307727E+02  0.45902419324E+02  0.51991172344E+02  0.47000000000E+01 0. -1.
         -5    1    4    4    0  503  0.17413920193E+02 -0.20734205340E+02  0.12835685966E+02  0.30331447736E+02  0.47000000000E+01 0.  1.
          5    1    4    4  503    0 -0.37260289511E+02  0.63194906972E+02  0.10354596682E+03  0.12698733278E+03  0.47000000000E+01 0. -1.
         -5    1    3    3    0  502  0.40361873294E+02 -0.30088393904E+02 -0.22831891270E+02  0.55477720956E+02  0.47000000000E+01 0.  1.
<mgrwt>
<rscale>  0 0.10562866E+03</rscale>
<asrwt>0</asrwt>
<pdfrwt beam="1">  1        1 0.31095373E-01 0.10585136E+03</pdfrwt>
<pdfrwt beam="2">  1       -1 0.96411919E-02 0.10585136E+03</pdfrwt>
<totfact> 0.86539761E+03</totfact>
</mgrwt>
</event>
<event>
 8    1  0.9456677E-004  0.9634838E+02  0.7546771E-02  0.1288551E+00
         -1   -1    0    0    0  501 -0.00000000000E+00  0.00000000000E+00  0.36531798712E+02  0.36531798712E+02  0.00000000000E+00 0.  1.
          1   -1    0    0  501    0  0.00000000000E+00 -0.00000000000E+00 -0.28574411996E+03  0.28574411996E+03  0.00000000000E+00 0. -1.
         23    2    1    2    0    0  0.76488723542E+00 -0.29744480556E+02 -0.17934650645E+03  0.20326229478E+03  0.90912440996E+02 0.  0.
         23    2    1    2    0    0 -0.76488723542E+00  0.29744480556E+02 -0.69865814805E+02  0.11901362390E+03  0.91638918692E+02 0.  0.
          5    1    3    3  502    0 -0.10581253225E+02 -0.60428497387E+02 -0.13060268952E+03  0.14437007559E+03  0.47000000000E+01 0. -1.
         -5    1    3    3    0  502  0.11346140461E+02  0.30684016831E+02 -0.48743816929E+02  0.58892219189E+02  0.47000000000E+01 0.  1.
          5    1    4    4  503    0 -0.38763538916E+01 -0.31730318967E+02 -0.36842976953E+02  0.49003410208E+02  0.47000000000E+01 0. -1.
         -5    1    4    4    0  503  0.31114666561E+01  0.61474799523E+02 -0.33022837851E+02  0.70010213690E+02  0.47000000000E+01 0.  1.
<mgrwt>
<rscale>  0 0.96175239E+02</rscale>
<asrwt>0</asrwt>
<pdfrwt beam="1">  1        1 0.43960632E-01 0.96348381E+02</pdfrwt>
<pdfrwt beam="2">  1       -1 0.56202770E-02 0.96348381E+02</pdfrwt>
<totfact> 0.12556769E+04</totfact>
</mgrwt>
</event>
<event>
 8    1  0.9456677E-004  0.1159755E+03  0.7546771E-02  0.1259138E+00
         -2   -1    0    0    0  501 -0.00000000000E+00  0.00000000000E+00  0.32636059913E+02  0.32636059913E+02  0.00000000000E+00 0.  1.
          2   -1    0    0  501    0  0.00000000000E+00 -0.00000000000E+00 -0.56135343170E+03  0.56135343170E+03  0.00000000000E+00 0. -1.
         23    2    1    2    0    0 -0.30471224362E+02  0.90215361575E+01 -0.46275748836E+03  0.47706897802E+03  0.11153668958E+03 0.  0.
         23    2    1    2    0    0  0.30471224362E+02 -0.90215361575E+01 -0.65959883429E+02  0.11692051360E+03  0.91158195735E+02 0.  0.
          5    1    3    3  502    0  0.41596060918E+02 -0.57353343051E+01 -0.17179055288E+03  0.17691017608E+03  0.47000000000E+01 0. -1.
         -5    1    3    3    0  502 -0.72067285280E+02  0.14756870463E+02 -0.29096693549E+03  0.30015880194E+03  0.47000000000E+01 0.  1.
          5    1    4    4  503    0  0.41456880754E+02  0.22325664731E+02 -0.68524325773E+02  0.83275335425E+02  0.47000000000E+01 0. -1.
         -5    1    4    4    0  503 -0.10985656391E+02 -0.31347200889E+02  0.25644423437E+01  0.33645178175E+02  0.47000000000E+01 0.  1.
<mgrwt>
<rscale>  0 0.11077709E+03</rscale>
<asrwt>0</asrwt>
<pdfrwt beam="1">  1        2 0.86362064E-01 0.11597550E+03</pdfrwt>
<pdfrwt beam="2">  1       -2 0.50209324E-02 0.11597550E+03</pdfrwt>
<totfact> 0.10008785E+04</totfact>
</mgrwt>
</event>
<event>
 8    1  0.9456677E-004  0.9855588E+02  0.7546771E-02  0.1283448E+00
         -1   -1    0    0    0  501 -0.00000000000E+00  0.00000000000E+00  0.79198813407E+02  0.79198813407E+02  0.00000000000E+00 0.  1.
          1   -1    0    0  501    0  0.00000000000E+00 -0.00000000000E+00 -0.18904168371E+03  0.18904168371E+03  0.00000000000E+00 0. -1.
         23    2    1    2    0    0 -0.12109179085E+01  0.35240913850E+02  0.24712125378E+02  0.10145228347E+03  0.91861245091E+02 0.  0.
         23    2    1    2    0    0  0.12109179085E+01 -0.35240913850E+02 -0.13455499568E+03  0.16678821364E+03  0.92031913035E+02 0.  0.
          5    1    3    3  502    0 -0.33886456426E+02 -0.12514401674E+02 -0.40697595717E+01  0.36654537527E+02  0.47000000000E+01 0. -1.
         -5    1    3    3    0  502  0.32675538517E+02  0.47755315524E+02  0.28781884950E+02  0.64797745944E+02  0.47000000000E+01 0.  1.
          5    1    4    4  503    0 -0.29187328563E+01 -0.63733530859E+02 -0.64232752690E+02  0.90655493354E+02  0.47000000000E+01 0. -1.
         -5    1    4    4    0  503  0.41296507648E+01  0.28492617009E+02 -0.70322242991E+02  0.76132720290E+02  0.47000000000E+01 0.  1.
<mgrwt>
<rscale>  0 0.98516017E+02</rscale>
<asrwt>0</asrwt>
<pdfrwt beam="1">  1        1 0.29083336E-01 0.98555879E+02</pdfrwt>
<pdfrwt beam="2">  1       -1 0.12184433E-01 0.98555879E+02</pdfrwt>
<totfact> 0.65438233E+03</totfact>
</mgrwt>
</event>
<event>
 8    1  0.9456677E-004  0.3593692E+03  0.7546771E-02  0.1058838E+00
         -2   -1    0    0    0  501 -0.00000000000E+00  0.00000000000E+00  0.12525473729E+03  0.12525473729E+03  0.00000000000E+00 0.  1.
          2   -1    0    0  501    0  0.00000000000E+00 -0.00000000000E+00 -0.15355048191E+04  0.15355048191E+04  0.00000000000E+00 0. -1.
         23    2    1    2    0    0  0.30934706037E+03 -0.15779798891E+03 -0.22915579656E+03  0.42621425463E+03  0.92468387500E+02 0.  0.
         23    2    1    2    0    0 -0.30934706037E+03  0.15779798891E+03 -0.11810942853E+04  0.12345453018E+04  0.92317833469E+02 0.  0.
          5    1    4    4  502    0 -0.10786194907E+03  0.90411867387E+02 -0.58479603085E+03  0.60151225551E+03  0.47000000000E+01 0. -1.
         -5    1    4    4    0  502 -0.20148511130E+03  0.67386121520E+02 -0.59629825441E+03  0.63303304626E+03  0.47000000000E+01 0.  1.
          5    1    3    3  503    0  0.12052231429E+03 -0.97625591732E+02 -0.62701509974E+02  0.16736174520E+03  0.47000000000E+01 0. -1.
         -5    1    3    3    0  503  0.18882474609E+03 -0.60172397175E+02 -0.16645428659E+03  0.25885250943E+03  0.47000000000E+01 0.  1.
<mgrwt>
<rscale>  0 0.35935951E+03</rscale>
<asrwt>0</asrwt>
<pdfrwt beam="1">  1        2 0.23623150E+00 0.35936919E+03</pdfrwt>
<pdfrwt beam="2">  1       -2 0.19269960E-01 0.35936919E+03</pdfrwt>
<totfact> 0.29058389E+02</totfact>
</mgrwt>
</event>
<event>
 8    1  0.9456677E-004  0.1067486E+03  0.7546771E-02  0.1268697E+00
         -1   -1    0    0    0  501 -0.00000000000E+00  0.00000000000E+00  0.27572821925E+02  0.27572821925E+02  0.00000000000E+00 0.  1.
          1   -1    0    0  501    0  0.00000000000E+00 -0.00000000000E+00 -0.60793237338E+03  0.60793237338E+03  0.00000000000E+00 0. -1.
         23    2    1    2    0    0 -0.86375812371E+01 -0.44235451965E+02 -0.99734958879E+02  0.14316866822E+03  0.92297467557E+02 0.  0.
         23    2    1    2    0    0  0.86375812371E+01  0.44235451965E+02 -0.48062459257E+03  0.49233652708E+03  0.96767111627E+02 0.  0.
          5    1    4    4  502    0  0.44743460845E+02  0.47418252039E+02 -0.37276762382E+03  0.37845509546E+03  0.47000000000E+01 0. -1.
         -5    1    4    4    0  502 -0.36105879608E+02 -0.31828000738E+01 -0.10785696876E+03  0.11388143162E+03  0.47000000000E+01 0.  1.
          5    1    3    3  503    0  0.14506368353E+02 -0.17760931917E+02 -0.10475446096E+03  0.10733812238E+03  0.47000000000E+01 0. -1.
         -5    1    3    3    0  503 -0.23143949590E+02 -0.26474520049E+02  0.50195020763E+01  0.35830545845E+02  0.47000000000E+01 0.  1.
<mgrwt>
<rscale>  0 0.10572536E+03</rscale>
<asrwt>0</asrwt>
<pdfrwt beam="1">  1        1 0.93528055E-01 0.10674857E+03</pdfrwt>
<pdfrwt beam="2">  1       -1 0.42419727E-02 0.10674857E+03</pdfrwt>
<totfact> 0.73578838E+03</totfact>
</mgrwt>
</event>
<event>
 8    1  0.9456677E-004  0.9312415E+02  0.7546771E-02  0.1295751E+00
          1   -1    0    0  501    0  0.00000000000E+00  0.00000000000E+00  0.42971038108E+03  0.42971038108E+03  0.00000000000E+00 0. -1.
         -1   -1    0    0    0  501 -0.00000000000E+00 -0.00000000000E+00 -0.20268075652E+02  0.20268075652E+02  0.00000000000E+00 0.  1.
         23    2    1    2    0    0 -0.69240335579E+01 -0.10596064440E+02  0.22631068458E+03  0.24452943984E+03  0.91749126269E+02 0.  0.
         23    2    1    2    0    0  0.69240335579E+01  0.10596064440E+02  0.18313162086E+03  0.20544901690E+03  0.92259900093E+02 0.  0.
          5    1    3    3  502    0 -0.14109296214E+02  0.26458750286E+02  0.18839064255E+03  0.19081997250E+03  0.47000000000E+01 0. -1.
         -5    1    4    4    0  503 -0.29575272858E+02 -0.13564843397E+02  0.24992795259E+02  0.41296871018E+02  0.47000000000E+01 0.  1.
          5    1    4    4  503    0  0.36499306416E+02  0.24160907837E+02  0.15813882560E+03  0.16415214588E+03  0.47000000000E+01 0. -1.
         -5    1    3    3    0  502  0.71852626563E+01 -0.37054814726E+02  0.37920042026E+02  0.53709467331E+02  0.47000000000E+01 0.  1.
<mgrwt>
<rscale>  0 0.92997393E+02</rscale>
<asrwt>0</asrwt>
<pdfrwt beam="1">  1        1 0.66109283E-01 0.93124154E+02</pdfrwt>
<pdfrwt beam="2">  1       -1 0.31181658E-02 0.93124154E+02</pdfrwt>
<totfact> 0.17845474E+04</totfact>
</mgrwt>
</event>
<event>
 8    1  0.9456677E-004  0.1676669E+03  0.7546771E-02  0.1184774E+00
          2   -1    0    0  501    0  0.00000000000E+00  0.00000000000E+00  0.18854529965E+03  0.18854529965E+03  0.00000000000E+00 0. -1.
         -2   -1    0    0    0  501 -0.00000000000E+00 -0.00000000000E+00 -0.21409353336E+03  0.21409353336E+03  0.00000000000E+00 0.  1.
         23    2    1    2    0    0  0.70155593133E+02  0.97284402988E+02 -0.13525758497E+03  0.21542238219E+03  0.11715855130E+03 0.  0.
         23    2    1    2    0    0 -0.70155593133E+02 -0.97284402988E+02  0.10970935127E+03  0.18721645082E+03  0.92885926766E+02 0.  0.
          5    1    4    4  502    0 -0.19194516221E+02 -0.62095187221E+02  0.48501105612E+01  0.65344129816E+02  0.47000000000E+01 0. -1.
         -5    1    4    4    0  502 -0.50961076912E+02 -0.35189215766E+02  0.10485924071E+03  0.12187232101E+03  0.47000000000E+01 0.  1.
          5    1    3    3  503    0  0.25591107216E+00  0.96738863168E+02 -0.68315439535E+02  0.11852241314E+03  0.47000000000E+01 0. -1.
         -5    1    3    3    0  503  0.69899682061E+02  0.54553981931E+00 -0.66942145438E+02  0.96899969050E+02  0.47000000000E+01 0.  1.
<mgrwt>
<rscale>  0 0.16352501E+03</rscale>
<asrwt>0</asrwt>
<pdfrwt beam="1">  1        2 0.29006969E-01 0.16766690E+03</pdfrwt>
<pdfrwt beam="2">  1       -2 0.32937466E-01 0.16766690E+03</pdfrwt>
<totfact> 0.15437993E+03</totfact>
</mgrwt>
</event>
<event>
 8    1  0.9456677E-004  0.9637828E+02  0.7546771E-02  0.1291616E+00
          1   -1    0    0  501    0  0.00000000000E+00  0.00000000000E+00  0.15489333288E+03  0.15489333288E+03  0.00000000000E+00 0. -1.
         -1   -1    0    0    0  501 -0.00000000000E+00 -0.00000000000E+00 -0.10281041099E+03  0.10281041099E+03  0.00000000000E+00 0.  1.
         23    2    1    2    0    0 -0.17185449420E+02  0.26751422443E+02 -0.60215226864E+02  0.11364262381E+03  0.90982383603E+02 0.  0.
         23    2    1    2    0    0  0.17185449420E+02 -0.26751422443E+02  0.11229814874E+03  0.14406112006E+03  0.84449711819E+02 0.  0.
          5    1    3    3  502    0  0.29281235735E+02 -0.90386552744E+01 -0.23105383718E+01  0.31088850781E+02  0.47000000000E+01 0. -1.
         -5    1    4    4    0  503  0.35657134653E+02 -0.41771480000E+02  0.40861442510E+02  0.68615124259E+02  0.47000000000E+01 0.  1.
          5    1    4    4  503    0 -0.18471685233E+02  0.15020057557E+02  0.71436706235E+02  0.75445995798E+02  0.47000000000E+01 0. -1.
         -5    1    3    3    0  502 -0.46466685155E+02  0.35790077718E+02 -0.57904688493E+02  0.82553773031E+02  0.47000000000E+01 0.  1.
<mgrwt>
<rscale>  0 0.94804868E+02</rscale>
<asrwt>0</asrwt>
<pdfrwt beam="1">  1        1 0.23829743E-01 0.96378278E+02</pdfrwt>
<pdfrwt beam="2">  1       -1 0.15816986E-01 0.96378278E+02</pdfrwt>
<totfact> 0.55879756E+03</totfact>
</mgrwt>
</event>
<event>
 8    1  0.9456677E-004  0.9439695E+02  0.7546771E-02  0.1294666E+00
         -1   -1    0    0    0  501 -0.00000000000E+00  0.00000000000E+00  0.20903967395E+02  0.20903967395E+02  0.00000000000E+00 0.  1.
          1   -1    0    0  501    0  0.00000000000E+00 -0.00000000000E+00 -0.55249088588E+03  0.55249088588E+03  0.00000000000E+00 0. -1.
         23    2    1    2    0    0 -0.17077819689E+02 -0.14008178779E+02 -0.41533240275E+03  0.42592462878E+03  0.91776378371E+02 0.  0.
         23    2    1    2    0    0  0.17077819689E+02  0.14008178779E+02 -0.11625451573E+03  0.14747022450E+03  0.88002691359E+02 0.  0.
          5    1    4    4  502    0 -0.32152738816E+02  0.39553171889E+01 -0.76558201689E+02  0.83262785164E+02  0.47000000000E+01 0. -1.
         -5    1    4    4    0  502  0.49230558504E+02  0.10052861590E+02 -0.39696314043E+02  0.64207439331E+02  0.47000000000E+01 0.  1.
          5    1    3    3  503    0 -0.38751504236E+02 -0.42643518400E+02 -0.27321813941E+03  0.27926759648E+03  0.47000000000E+01 0. -1.
         -5    1    3    3    0  503  0.21673684547E+02  0.28635339621E+02 -0.14211426335E+03  0.14665703230E+03  0.47000000000E+01 0.  1.
<mgrwt>
<rscale>  0 0.93467148E+02</rscale>
<asrwt>0</asrwt>
<pdfrwt beam="1">  1        1 0.84998595E-01 0.94396952E+02</pdfrwt>
<pdfrwt beam="2">  1       -1 0.32159951E-02 0.94396952E+02</pdfrwt>
<totfact> 0.12383125E+04</totfact>
</mgrwt>
</event>
<event>
 7    1  0.2261613E-003  0.2538102E+03  0.7546771E-02  0.1120148E+00
          1   -1    0    0  501    0  0.00000000000E+00  0.00000000000E+00  0.67921537263E+03  0.67921537263E+03  0.00000000000E+00 0. -1.
         -1   -1    0    0    0  501 -0.00000000000E+00 -0.00000000000E+00 -0.23258166239E+03  0.23258166239E+03  0.00000000000E+00 0.  1.
         23    2    1    2    0    0  0.17458009624E+03 -0.29380042896E+02 -0.15818781259E+03  0.25587882752E+03  0.95442094462E+02 0.  0.
          5    1    3    3  502    0 -0.33987556972E+00 -0.25531335041E+02 -0.17362403044E+02  0.31233117421E+02  0.47000000000E+01 0. -1.
         -5    1    1    2    0  503  0.31061842976E+02  0.27335657318E+02  0.55807446907E+02  0.69632157660E+02  0.47000000000E+01 0.  1.
          5    1    1    2  503    0 -0.20564193922E+03  0.20443855781E+01  0.54901407593E+03  0.58628604985E+03  0.47000000000E+01 0. -1.
         -5    1    3    3    0  502  0.17491997181E+03 -0.38487078549E+01 -0.14082540954E+03  0.22464571010E+03  0.47000000000E+01 0.  1.
<mgrwt>
<rscale>  0 0.23946796E+03</rscale>
<asrwt>0</asrwt>
<pdfrwt beam="1">  1        1 0.10449467E+00 0.25381021E+03</pdfrwt>
<pdfrwt beam="2">  1       -1 0.35781795E-01 0.25381021E+03</pdfrwt>
<totfact> 0.22432857E+02</totfact>
</mgrwt>
</event>
<event>
 8    1  0.9456677E-004  0.9391572E+02  0.7546771E-02  0.1294133E+00
         -1   -1    0    0    0  501 -0.00000000000E+00  0.00000000000E+00  0.10863175224E+03  0.10863175224E+03  0.00000000000E+00 0.  1.
          1   -1    0    0  501    0  0.00000000000E+00 -0.00000000000E+00 -0.80504354460E+02  0.80504354460E+02  0.00000000000E+00 0. -1.
         23    2    1    2    0    0  0.15224595204E+02  0.19103298400E+02  0.16483324097E+02  0.94501294054E+02  0.89789032157E+02 0.  0.
         23    2    1    2    0    0 -0.15224595204E+02 -0.19103298400E+02  0.11644073687E+02  0.94634812650E+02  0.90683179280E+02 0.  0.
          5    1    4    4  502    0 -0.45228797226E+02  0.10021935078E+02 -0.95301041969E+01  0.47528898232E+02  0.47000000000E+01 0. -1.
         -5    1    4    4    0  502  0.30004202021E+02 -0.29125233478E+02  0.21174177883E+02  0.47105914417E+02  0.47000000000E+01 0.  1.
          5    1    3    3  503    0 -0.20939447430E+02 -0.24391829384E+02 -0.67284238696E+01  0.33178057314E+02  0.47000000000E+01 0. -1.
         -5    1    3    3    0  503  0.36164042634E+02  0.43495127784E+02  0.23211747967E+02  0.61323236740E+02  0.47000000000E+01 0.  1.
<mgrwt>
<rscale>  0 0.93699207E+02</rscale>
<asrwt>0</asrwt>
<pdfrwt beam="1">  1        1 0.12385285E-01 0.93915725E+02</pdfrwt>
<pdfrwt beam="2">  1       -1 0.16712577E-01 0.93915725E+02</pdfrwt>
<totfact> 0.11743491E+04</totfact>
</mgrwt>
</event>
<event>
 7    1  0.9456677E-004  0.3077516E+03  0.7546771E-02  0.1122641E+00
         -1   -1    0    0    0  501 -0.00000000000E+00  0.00000000000E+00  0.71114534057E+03  0.71114534057E+03  0.00000000000E+00 0.  1.
          1   -1    0    0  501    0  0.00000000000E+00 -0.00000000000E+00 -0.76272473711E+02  0.76272473711E+02  0.00000000000E+00 0. -1.
         23    2    1    2    0    0 -0.29715706884E+02  0.51971697788E+02  0.32338795913E+02  0.11083940321E+03  0.87495685479E+02 0.  0.
          5    1    3    3  502    0  0.65798341363E+01  0.61805667464E+02  0.21182877556E+01  0.62368356488E+02  0.47000000000E+01 0. -1.
         -5    1    1    2    0  503 -0.90965941168E+02  0.83590827387E+01  0.49665593288E+03  0.50500879436E+03  0.47000000000E+01 0.  1.
          5    1    1    2  503    0  0.12068164805E+03 -0.60330780527E+02  0.10587813806E+03  0.17156961670E+03  0.47000000000E+01 0. -1.
         -5    1    3    3    0  502 -0.36295541020E+02 -0.98339696765E+01  0.30220508157E+02  0.48471046727E+02  0.47000000000E+01 0.  1.
<mgrwt>
<rscale>  0 0.23577294E+03</rscale>
<asrwt>0</asrwt>
<pdfrwt beam="1">  1        1 0.11734227E-01 0.30775159E+03</pdfrwt>
<pdfrwt beam="2">  1       -1 0.10940697E+00 0.30775159E+03</pdfrwt>
<totfact> 0.42505574E+02</totfact>
</mgrwt>
</event>
<event>
 8    1  0.9456677E-004  0.1021942E+03  0.7546771E-02  0.1276151E+00
          2   -1    0    0  501    0  0.00000000000E+00  0.00000000000E+00  0.16784317074E+03  0.16784317074E+03  0.00000000000E+00 0. -1.
         -2   -1    0    0    0  501 -0.00000000000E+00 -0.00000000000E+00 -0.61746984649E+02  0.61746984649E+02  0.00000000000E+00 0.  1.
         23    2    1    2    0    0 -0.40495648579E+02 -0.21397229158E+02  0.53385687390E+02  0.11460300050E+03  0.90476942563E+02 0.  0.
         23    2    1    2    0    0  0.40495648579E+02  0.21397229158E+02  0.52710498704E+02  0.11498715489E+03  0.91355952995E+02 0.  0.
          5    1    3    3  502    0  0.25140916000E+02 -0.18508511292E+02  0.30775252855E+01  0.31720526626E+02  0.47000000000E+01 0. -1.
         -5    1    4    4    0  503 -0.23924017918E+01 -0.28628387944E+02  0.37009420380E+02  0.47086042300E+02  0.47000000000E+01 0.  1.
          5    1    4    4  503    0  0.42888050371E+02  0.50025617102E+02  0.15701078325E+02  0.67901112595E+02  0.47000000000E+01 0. -1.
         -5    1    3    3    0  502 -0.65636564579E+02 -0.28887178661E+01  0.50308162105E+02  0.82882473871E+02  0.47000000000E+01 0.  1.
<mgrwt>
<rscale>  0 0.10199735E+03</rscale>
<asrwt>0</asrwt>
<pdfrwt beam="1">  1        2 0.25822026E-01 0.10219417E+03</pdfrwt>
<pdfrwt beam="2">  1       -2 0.94995362E-02 0.10219417E+03</pdfrwt>
<totfact> 0.13624421E+04</totfact>
</mgrwt>
</event>
<event>
 8    1  0.9456677E-004  0.1332835E+03  0.7546771E-02  0.1223249E+00
          2   -1    0    0  501    0  0.00000000000E+00  0.00000000000E+00  0.39891441865E+03  0.39891441865E+03  0.00000000000E+00 0. -1.
         -2   -1    0    0    0  501 -0.00000000000E+00 -0.00000000000E+00 -0.11410838890E+03  0.11410838890E+03  0.00000000000E+00 0.  1.
         23    2    1    2    0    0 -0.43362844764E+02  0.80279489741E+02 -0.59006129479E+02  0.14427995905E+03  0.94920232241E+02 0.  0.
         23    2    1    2    0    0  0.43362844764E+02 -0.80279489741E+02  0.34381215923E+03  0.36874284850E+03  0.97156341577E+02 0.  0.
          5    1    3    3  502    0 -0.46360444084E+02 -0.28480667385E+01 -0.10420163971E+02  0.47833796389E+02  0.47000000000E+01 0. -1.
         -5    1    4    4    0  503 -0.11915420683E+02  0.16879647975E+02  0.62729701102E+02  0.66211820441E+02  0.47000000000E+01 0.  1.
          5    1    4    4  503    0  0.55278265447E+02 -0.97159137717E+02  0.28108245813E+03  0.30253102806E+03  0.47000000000E+01 0. -1.
         -5    1    3    3    0  502  0.29975993195E+01  0.83127556480E+02 -0.48585965508E+02  0.96446162662E+02  0.47000000000E+01 0.  1.
<mgrwt>
<rscale>  0 0.13287635E+03</rscale>
<asrwt>0</asrwt>
<pdfrwt beam="1">  1        2 0.61371448E-01 0.13328349E+03</pdfrwt>
<pdfrwt beam="2">  1       -2 0.17555137E-01 0.13328349E+03</pdfrwt>
<totfact> 0.20579454E+03</totfact>
</mgrwt>
</event>
<event>
 8    1  0.9456677E-004  0.1188201E+03  0.7546771E-02  0.1246511E+00
         -1   -1    0    0    0  501 -0.00000000000E+00  0.00000000000E+00  0.64009978764E+02  0.64009978764E+02  0.00000000000E+00 0.  1.
          1   -1    0    0  501    0  0.00000000000E+00 -0.00000000000E+00 -0.43349005820E+03  0.43349005820E+03  0.00000000000E+00 0. -1.
         23    2    1    2    0    0 -0.40119430339E+02 -0.61021224287E+02 -0.91816838244E+01  0.11917435969E+03  0.93728683894E+02 0.  0.
         23    2    1    2    0    0  0.40119430339E+02  0.61021224287E+02 -0.36029839562E+03  0.37832567728E+03  0.89343302517E+02 0.  0.
          5    1    4    4  502    0  0.41604020722E+02  0.81064136441E+02 -0.25036361004E+03  0.26647010337E+03  0.47000000000E+01 0. -1.
         -5    1    3    3    0  503 -0.14755733998E+02 -0.58236209438E+02  0.33708372171E+02  0.69047318051E+02  0.47000000000E+01 0.  1.
          5    1    3    3  503    0 -0.25363696341E+02 -0.27850148482E+01 -0.42890055995E+02  0.50127041635E+02  0.47000000000E+01 0. -1.
         -5    1    4    4    0  502 -0.14845903830E+01 -0.20042912154E+02 -0.10993478557E+03  0.11185557391E+03  0.47000000000E+01 0.  1.
<mgrwt>
<rscale>  0 0.11795375E+03</rscale>
<asrwt>0</asrwt>
<pdfrwt beam="1">  1        1 0.66690778E-01 0.11882014E+03</pdfrwt>
<pdfrwt beam="2">  1       -1 0.98476891E-02 0.11882014E+03</pdfrwt>
<totfact> 0.32862301E+03</totfact>
</mgrwt>
</event>
<event>
 8    1  0.9456677E-004  0.1759265E+03  0.7546771E-02  0.1173858E+00
          2   -1    0    0  501    0  0.00000000000E+00  0.00000000000E+00  0.84271562734E+03  0.84271562734E+03  0.00000000000E+00 0. -1.
         -2   -1    0    0    0  501 -0.00000000000E+00 -0.00000000000E+00 -0.39361225328E+02  0.39361225328E+02  0.00000000000E+00 0.  1.
         23    2    1    2    0    0  0.97557440436E+02 -0.10598143169E+03  0.26442880888E+03  0.31760468783E+03  0.10099814215E+03 0.  0.
         23    2    1    2    0    0 -0.97557440436E+02  0.10598143169E+03  0.53892559313E+03  0.56447216484E+03  0.86246808048E+02 0.  0.
          5    1    4    4  502    0 -0.26321446042E+02  0.80118281708E+02  0.19923964474E+03  0.21640305825E+03  0.47000000000E+01 0.  1.
         -5    1    3    3    0  503  0.11521455372E+03 -0.77163214678E+02  0.18577896408E+03  0.23187166403E+03  0.47000000000E+01 0.  1.
          5    1    3    3  503    0 -0.17657113285E+02 -0.28818217013E+02  0.78649844802E+02  0.85733023793E+02  0.47000000000E+01 0. -1.
         -5    1    4    4    0  502 -0.71235994394E+02  0.25863149983E+02  0.33968594839E+03  0.34806910659E+03  0.47000000000E+01 0. -1.
<mgrwt>
<rscale>  0 0.17388278E+03</rscale>
<asrwt>0</asrwt>
<pdfrwt beam="1">  1        2 0.12964855E+00 0.17592653E+03</pdfrwt>
<pdfrwt beam="2">  1       -2 0.60555737E-02 0.17592653E+03</pdfrwt>
<totfact> 0.47575182E+03</totfact>
</mgrwt>
</event>
<event>
 8    1  0.9456677E-004  0.9979770E+02  0.7546771E-02  0.1280968E+00
         -2   -1    0    0    0  501 -0.00000000000E+00  0.00000000000E+00  0.30583015491E+03  0.30583015491E+03  0.00000000000E+00 0.  1.
          2   -1    0    0  501    0  0.00000000000E+00 -0.00000000000E+00 -0.32670906369E+02  0.32670906369E+02  0.00000000000E+00 0. -1.
         23    2    1    2    0    0 -0.14528406279E+02 -0.35634340650E+02  0.12187944427E+03  0.15752517032E+03  0.92079854078E+02 0.  0.
         23    2    1    2    0    0  0.14528406279E+02  0.35634340650E+02  0.15127980427E+03  0.18097589096E+03  0.91574085332E+02 0.  0.
          5    1    3    3  502    0  0.21031438844E+02 -0.77042160669E+01 -0.44061078691E+01  0.23306225597E+02  0.47000000000E+01 0. -1.
         -5    1    3    3    0  502 -0.35559845123E+02 -0.27930124583E+02  0.12628555213E+03  0.13421894472E+03  0.47000000000E+01 0.  1.
          5    1    4    4  503    0  0.27895191150E+01  0.56322645979E+02  0.45957246301E+02  0.72898424911E+02  0.47000000000E+01 0. -1.
         -5    1    4    4    0  503  0.11738887164E+02 -0.20688305328E+02  0.10532255797E+03  0.10807746605E+03  0.47000000000E+01 0.  1.
<mgrwt>
<rscale>  0 0.99680876E+02</rscale>
<asrwt>0</asrwt>
<pdfrwt beam="1">  1        2 0.50262935E-02 0.99797697E+02</pdfrwt>
<pdfrwt beam="2">  1       -2 0.47050791E-01 0.99797697E+02</pdfrwt>
<totfact> 0.62246987E+03</totfact>
</mgrwt>
</event>
<event>
 8    1  0.9456677E-004  0.1628686E+03  0.7546771E-02  0.1185807E+00
         -1   -1    0    0    0  501 -0.00000000000E+00  0.00000000000E+00  0.19214656804E+02  0.19214656804E+02  0.00000000000E+00 0.  1.
          1   -1    0    0  501    0  0.00000000000E+00 -0.00000000000E+00 -0.13992592270E+04  0.13992592270E+04  0.00000000000E+00 0. -1.
         23    2    1    2    0    0  0.87705611483E+02 -0.10142317695E+03 -0.79315199782E+03  0.80970135185E+03  0.92451351643E+02 0.  0.
         23    2    1    2    0    0 -0.87705611483E+02  0.10142317695E+03 -0.58689257238E+03  0.60877253196E+03  0.90455342855E+02 0.  0.
          5    1    3    3  502    0 -0.80080393317E+01 -0.46220868046E+02 -0.15408381682E+03  0.16113475709E+03  0.47000000000E+01 0. -1.
         -5    1    3    3    0  502  0.95713650814E+02 -0.55202308908E+02 -0.63906818101E+03  0.64856659476E+03  0.47000000000E+01 0.  1.
          5    1    4    4  503    0 -0.69657020313E+02  0.25077274070E+02 -0.38581447397E+03  0.39288149419E+03  0.47000000000E+01 0. -1.
         -5    1    4    4    0  503 -0.18048591170E+02  0.76345902884E+02 -0.20107809840E+03  0.21589103777E+03  0.47000000000E+01 0.  1.
<mgrwt>
<rscale>  0 0.16258672E+03</rscale>
<asrwt>0</asrwt>
<pdfrwt beam="1">  1        1 0.21527069E+00 0.16286862E+03</pdfrwt>
<pdfrwt beam="2">  1       -1 0.29561005E-02 0.16286862E+03</pdfrwt>
<totfact> 0.31995608E+03</totfact>
</mgrwt>
</event>
<event>
 8    1  0.9456677E-004  0.9869080E+02  0.7546771E-02  0.1283215E+00
         -1   -1    0    0    0  501 -0.00000000000E+00  0.00000000000E+00  0.45679761830E+02  0.45679761830E+02  0.00000000000E+00 0.  1.
          1   -1    0    0  501    0  0.00000000000E+00 -0.00000000000E+00 -0.40012816976E+03  0.40012816976E+03  0.00000000000E+00 0. -1.
         23    2    1    2    0    0  0.34618379451E+02 -0.10174926394E+02 -0.32967629863E+03  0.34405562522E+03  0.91574287014E+02 0.  0.
         23    2    1    2    0    0 -0.34618379451E+02  0.10174926394E+02 -0.24772109300E+02  0.10175230637E+03  0.91858114122E+02 0.  0.
          5    1    3    3  502    0  0.56892301780E+00  0.35602282967E+02 -0.18522302784E+03  0.18867301415E+03  0.47000000000E+01 0. -1.
         -5    1    4    4    0  503 -0.14896425550E+02 -0.39131123098E+02 -0.23886099637E+02  0.48433294798E+02  0.47000000000E+01 0.  1.
          5    1    4    4  503    0 -0.19721953901E+02  0.49306049492E+02 -0.88600966232E+00  0.53319011575E+02  0.47000000000E+01 0. -1.
         -5    1    3    3    0  502  0.34049456433E+02 -0.45777209361E+02 -0.14445327079E+03  0.15538261107E+03  0.47000000000E+01 0.  1.
<mgrwt>
<rscale>  0 0.98624705E+02</rscale>
<asrwt>0</asrwt>
<pdfrwt beam="1">  1        1 0.61558178E-01 0.98690802E+02</pdfrwt>
<pdfrwt beam="2">  1       -1 0.70276558E-02 0.98690802E+02</pdfrwt>
<totfact> 0.59707667E+03</totfact>
</mgrwt>
</event>
<event>
 8    1  0.9456677E-004  0.1077499E+03  0.7546771E-02  0.1269388E+00
          1   -1    0    0  501    0  0.00000000000E+00  0.00000000000E+00  0.69605902613E+02  0.69605902613E+02  0.00000000000E+00 0. -1.
         -1   -1    0    0    0  501 -0.00000000000E+00 -0.00000000000E+00 -0.24626723255E+03  0.24626723255E+03  0.00000000000E+00 0.  1.
         23    2    1    2    0    0 -0.16222176717E+02 -0.55017178591E+02  0.64327455278E+01  0.10794177539E+03  0.91214021415E+02 0.  0.
         23    2    1    2    0    0  0.16222176717E+02  0.55017178591E+02 -0.18309407547E+03  0.20793135977E+03  0.80137138380E+02 0.  0.
          5    1    4    4  502    0 -0.30053416432E+02  0.24988008768E+02 -0.48981460404E+02  0.62840129572E+02  0.47000000000E+01 0. -1.
         -5    1    4    4    0  502  0.46275593149E+02  0.30029169824E+02 -0.13411261507E+03  0.14509123020E+03  0.47000000000E+01 0.  1.
          5    1    3    3  503    0 -0.41247851387E+02 -0.65471559742E+02  0.15306842308E+02  0.79020882054E+02  0.47000000000E+01 0. -1.
         -5    1    3    3    0  503  0.25025674670E+02  0.10454381151E+02 -0.88740967806E+01  0.28920893341E+02  0.47000000000E+01 0.  1.
<mgrwt>
<rscale>  0 0.10537228E+03</rscale>
<asrwt>0</asrwt>
<pdfrwt beam="1">  1        1 0.10708600E-01 0.10774993E+03</pdfrwt>
<pdfrwt beam="2">  1       -1 0.37887267E-01 0.10774993E+03</pdfrwt>
<totfact> 0.37626699E+03</totfact>
</mgrwt>
</event>
<event>
 8    1  0.9456677E-004  0.1386320E+03  0.7546771E-02  0.1215574E+00
          2   -1    0    0  501    0  0.00000000000E+00  0.00000000000E+00  0.80273358829E+03  0.80273358829E+03  0.00000000000E+00 0. -1.
         -2   -1    0    0    0  501 -0.00000000000E+00 -0.00000000000E+00 -0.23745409234E+02  0.23745409234E+02  0.00000000000E+00 0.  1.
         23    2    1    2    0    0 -0.70809149379E+02  0.77054760600E+02  0.39431377770E+03  0.41797391353E+03  0.90925603325E+02 0.  0.
         23    2    1    2    0    0  0.70809149379E+02 -0.77054760600E+02  0.38467440136E+03  0.40850508400E+03  0.89166343561E+02 0.  0.
          5    1    3    3  502    0  0.17654734126E+02  0.31627966425E+02  0.14470089866E+03  0.14923959921E+03  0.47000000000E+01 0. -1.
         -5    1    4    4    0  503  0.37847639906E+02  0.13873612814E+02  0.10779195614E+03  0.11517862991E+03  0.47000000000E+01 0.  1.
          5    1    4    4  503    0  0.32961509473E+02 -0.90928373414E+02  0.27688244522E+03  0.29332645409E+03  0.47000000000E+01 0. -1.
         -5    1    3    3    0  502 -0.88463883505E+02  0.45426794175E+02  0.24961287903E+03  0.26873431432E+03  0.47000000000E+01 0.  1.
<mgrwt>
<rscale>  0 0.13834426E+03</rscale>
<asrwt>0</asrwt>
<pdfrwt beam="1">  1        2 0.12349745E+00 0.13863202E+03</pdfrwt>
<pdfrwt beam="2">  1       -2 0.36531405E-02 0.13863202E+03</pdfrwt>
<totfact> 0.10688774E+04</totfact>
</mgrwt>
</event>
<event>
 8    1  0.9456677E-004  0.9633526E+02  0.7546771E-02  0.1289922E+00
          2   -1    0    0  501    0  0.00000000000E+00  0.00000000000E+00  0.23953582003E+03  0.23953582003E+03  0.00000000000E+00 0. -1.
         -2   -1    0    0    0  501 -0.00000000000E+00 -0.00000000000E+00 -0.54791761977E+02  0.54791761977E+02  0.00000000000E+00 0.  1.
         23    2    1    2    0    0  0.30917649848E+01 -0.25424739012E+02  0.10777581429E+02  0.96936264956E+02  0.92868222970E+02 0.  0.
         23    2    1    2    0    0 -0.30917649848E+01  0.25424739012E+02  0.17396647663E+03  0.19739131705E+03  0.89682889636E+02 0.  0.
          5    1    4    4  502    0  0.38403811761E+02  0.28089108791E+01  0.11678845858E+03  0.12306249142E+03  0.47000000000E+01 0. -1.
         -5    1    3    3    0  503 -0.16151138822E+02 -0.52812745112E+02 -0.11296281186E+02  0.56566255843E+02  0.47000000000E+01 0.  1.
          5    1    3    3  503    0  0.19242903807E+02  0.27388006099E+02  0.22073862615E+02  0.40370009113E+02  0.47000000000E+01 0. -1.
         -5    1    4    4    0  502 -0.41495576746E+02  0.22615828133E+02  0.57178018051E+02  0.74328825632E+02  0.47000000000E+01 0.  1.
<mgrwt>
<rscale>  0 0.95559225E+02</rscale>
<asrwt>0</asrwt>
<pdfrwt beam="1">  1        2 0.36851664E-01 0.96335265E+02</pdfrwt>
<pdfrwt beam="2">  1       -2 0.84295019E-02 0.96335265E+02</pdfrwt>
<totfact> 0.11135960E+04</totfact>
</mgrwt>
</event>
<event>
 8    1  0.9456677E-004  0.9518679E+02  0.7546771E-02  0.1290925E+00
         -3   -1    0    0    0  501 -0.00000000000E+00  0.00000000000E+00  0.69325598883E+02  0.69325598883E+02  0.00000000000E+00 0.  1.
          3   -1    0    0  501    0  0.00000000000E+00 -0.00000000000E+00 -0.13395351470E+03  0.13395351470E+03  0.00000000000E+00 0. -1.
         23    2    1    2    0    0  0.11334808276E+02  0.24097589938E+02 -0.15540742165E+02  0.96447081046E+02  0.91385737705E+02 0.  0.
         23    2    1    2    0    0 -0.11334808276E+02 -0.24097589938E+02 -0.49087173652E+02  0.10683203254E+03  0.91073381620E+02 0.  0.
          5    1    4    4  502    0 -0.44893527788E+02 -0.36087734748E+02 -0.38196312431E+02  0.69273383921E+02  0.47000000000E+01 0. -1.
         -5    1    3    3    0  503  0.42656279253E+02  0.29909141571E+02  0.12462634702E+02  0.53772875810E+02  0.47000000000E+01 0.  1.
          5    1    3    3  503    0 -0.31321470977E+02 -0.58115516330E+01 -0.28003376867E+02  0.42674205236E+02  0.47000000000E+01 0. -1.
         -5    1    4    4    0  502  0.33558719512E+02  0.11990144810E+02 -0.10890861221E+02  0.37558648618E+02  0.47000000000E+01 0.  1.
<mgrwt>
<rscale>  0 0.95111739E+02</rscale>
<asrwt>0</asrwt>
<pdfrwt beam="1">  1        3 0.20608233E-01 0.95186789E+02</pdfrwt>
<pdfrwt beam="2">  1       -3 0.10665477E-01 0.95186789E+02</pdfrwt>
<totfact> 0.30025502E+03</totfact>
</mgrwt>
</event>
<event>
 8    1  0.9456677E-004  0.1521022E+03  0.7546771E-02  0.1203983E+00
          1   -1    0    0  501    0  0.00000000000E+00  0.00000000000E+00  0.24449310741E+03  0.24449310741E+03  0.00000000000E+00 0. -1.
         -1   -1    0    0    0  501 -0.00000000000E+00 -0.00000000000E+00 -0.86439947904E+02  0.86439947904E+02  0.00000000000E+00 0.  1.
         23    2    1    2    0    0 -0.97839547379E+02  0.15260686068E+02  0.11542641491E+03  0.19094066612E+03  0.11545395251E+03 0.  0.
         23    2    1    2    0    0  0.97839547379E+02 -0.15260686068E+02  0.42626744596E+02  0.13999238919E+03  0.89304894078E+02 0.  0.
          5    1    3    3  502    0 -0.75531508634E+02  0.51927933677E+02  0.32350734409E+02  0.97314845267E+02  0.47000000000E+01 0. -1.
         -5    1    4    4    0  503  0.14033320636E+02 -0.41616640924E+02  0.55373462352E+01  0.44515515196E+02  0.47000000000E+01 0.  1.
          5    1    4    4  503    0  0.83806226743E+02  0.26355954856E+02  0.37089398360E+02  0.95476873996E+02  0.47000000000E+01 0. -1.
         -5    1    3    3    0  502 -0.22308038745E+02 -0.36667247610E+02  0.83075680504E+02  0.93625820857E+02  0.47000000000E+01 0.  1.
<mgrwt>
<rscale>  0 0.14717893E+03</rscale>
<asrwt>0</asrwt>
<pdfrwt beam="1">  1        1 0.37614324E-01 0.15210220E+03</pdfrwt>
<pdfrwt beam="2">  1       -1 0.13298454E-01 0.15210220E+03</pdfrwt>
<totfact> 0.42765716E+03</totfact>
</mgrwt>
</event>
<event>
 8    1  0.9456677E-004  0.1152316E+03  0.7546771E-02  0.1251303E+00
          1   -1    0    0  501    0  0.00000000000E+00  0.00000000000E+00  0.75622626184E+03  0.75622626184E+03  0.00000000000E+00 0. -1.
         -1   -1    0    0    0  501 -0.00000000000E+00 -0.00000000000E+00 -0.17549229272E+02  0.17549229272E+02  0.00000000000E+00 0.  1.
         23    2    1    2    0    0 -0.43310793449E+02 -0.55805448593E+02  0.38605451628E+03  0.40280249716E+03  0.90673531190E+02 0.  0.
         23    2    1    2    0    0  0.43310793449E+02  0.55805448593E+02  0.35262251629E+03  0.37097299395E+03  0.91039828230E+02 0.  0.
          5    1    3    3  502    0 -0.19157086543E+02  0.22051593081E+02  0.63198302975E+02  0.69780958872E+02  0.47000000000E+01 0. -1.
         -5    1    4    4    0  503  0.22600562883E+02 -0.11341781314E+02  0.25004741865E+02  0.35871277671E+02  0.47000000000E+01 0.  1.
          5    1    4    4  503    0  0.20710230566E+02  0.67147229907E+02  0.32761777443E+03  0.33510171628E+03  0.47000000000E+01 0. -1.
         -5    1    3    3    0  502 -0.24153706907E+02 -0.77857041674E+02  0.32285621330E+03  0.33302153829E+03  0.47000000000E+01 0.  1.
<mgrwt>
<rscale>  0 0.11515924E+03</rscale>
<asrwt>0</asrwt>
<pdfrwt beam="1">  1        1 0.11634248E+00 0.11523161E+03</pdfrwt>
<pdfrwt beam="2">  1       -1 0.26998820E-02 0.11523161E+03</pdfrwt>
<totfact> 0.10496544E+04</totfact>
</mgrwt>
</event>
<event>
 8    1  0.9456677E-004  0.9969568E+02  0.7546771E-02  0.1281397E+00
         -2   -1    0    0    0  501 -0.00000000000E+00  0.00000000000E+00  0.72311489023E+01  0.72311489023E+01  0.00000000000E+00 0.  1.
          2   -1    0    0  501    0  0.00000000000E+00 -0.00000000000E+00 -0.13688469933E+04  0.13688469933E+04  0.00000000000E+00 0. -1.
         23    2    1    2    0    0 -0.34527261318E+02  0.20107138441E+02 -0.63717472635E+03  0.64492701942E+03  0.91338927570E+02 0.  0.
         23    2    1    2    0    0  0.34527261318E+02 -0.20107138441E+02 -0.72444111809E+03  0.73115112282E+03  0.90391382533E+02 0.  0.
          5    1    4    4  502    0 -0.12981014862E+02 -0.42876564893E+02 -0.38256361579E+03  0.38520633003E+03  0.47000000000E+01 0. -1.
         -5    1    4    4    0  502  0.47508276180E+02  0.22769426452E+02 -0.34187750230E+03  0.34594479280E+03  0.47000000000E+01 0.  1.
          5    1    3    3  503    0  0.20506976174E+02 -0.21771008193E+02 -0.18036456490E+03  0.18288788681E+03  0.47000000000E+01 0. -1.
         -5    1    3    3    0  503 -0.55034237492E+02  0.41878146634E+02 -0.45681016145E+03  0.46203913261E+03  0.47000000000E+01 0.  1.
<mgrwt>
<rscale>  0 0.99478121E+02</rscale>
<asrwt>0</asrwt>
<pdfrwt beam="1">  1        2 0.21059194E+00 0.99695679E+02</pdfrwt>
<pdfrwt beam="2">  1       -2 0.11124840E-02 0.99695679E+02</pdfrwt>
<totfact> 0.27418435E+04</totfact>
</mgrwt>
</event>
<event>
 8    1  0.9456677E-004  0.1103231E+03  0.7546771E-02  0.1268210E+00
          1   -1    0    0  501    0  0.00000000000E+00  0.00000000000E+00  0.57395259957E+02  0.57395259957E+02  0.00000000000E+00 0. -1.
         -1   -1    0    0    0  501 -0.00000000000E+00 -0.00000000000E+00 -0.63436044177E+03  0.63436044177E+03  0.00000000000E+00 0.  1.
         23    2    1    2    0    0  0.36373224148E+02 -0.22247685175E+02 -0.57374732096E+03  0.58138572025E+03  0.83698246539E+02 0.  0.
         23    2    1    2    0    0 -0.36373224148E+02  0.22247685175E+02 -0.32178608548E+01  0.11036998148E+03  0.10175071131E+03 0.  0.
          5    1    4    4  502    0 -0.49254961962E+02  0.43079963757E+02  0.27212620662E+02  0.71025004600E+02  0.47000000000E+01 0. -1.
         -5    1    3    3    0  503  0.26598653371E+02 -0.53348573459E+02 -0.41220667180E+03  0.41652129469E+03  0.47000000000E+01 0.  1.
          5    1    3    3  503    0  0.97745707771E+01  0.31100888284E+02 -0.16154064916E+03  0.16486442556E+03  0.47000000000E+01 0. -1.
         -5    1    4    4    0  502  0.12881737815E+02 -0.20832278582E+02 -0.30430481516E+02  0.39344976876E+02  0.47000000000E+01 0.  1.
<mgrwt>
<rscale>  0 0.10597515E+03</rscale>
<asrwt>0</asrwt>
<pdfrwt beam="1">  1        1 0.88300400E-02 0.11032306E+03</pdfrwt>
<pdfrwt beam="2">  1       -1 0.97593914E-01 0.11032306E+03</pdfrwt>
<totfact> 0.79586443E+02</totfact>
</mgrwt>
</event>
<event>
 8    1  0.9456677E-004  0.1033308E+03  0.7546771E-02  0.1273876E+00
          2   -1    0    0  501    0  0.00000000000E+00  0.00000000000E+00  0.83686419489E+03  0.83686419489E+03  0.00000000000E+00 0. -1.
         -2   -1    0    0    0  501 -0.00000000000E+00 -0.00000000000E+00 -0.13738772119E+02  0.13738772119E+02  0.00000000000E+00 0.  1.
         23    2    1    2    0    0 -0.21117032658E+01 -0.47234078624E+02  0.29359440796E+03  0.31124736557E+03  0.91878880678E+02 0.  0.
         23    2    1    2    0    0  0.21117032658E+01  0.47234078624E+02  0.52953101481E+03  0.53935560144E+03  0.90916729389E+02 0.  0.
          5    1    4    4  502    0 -0.88700791798E+01  0.73185141554E+02  0.37522380176E+03  0.38242611660E+03  0.47000000000E+01 0. -1.
         -5    1    4    4    0  502  0.10981782446E+02 -0.25951062931E+02  0.15430721305E+03  0.15692948484E+03  0.47000000000E+01 0.  1.
          5    1    3    3  503    0  0.75699891336E+01  0.20018519890E+02  0.15796550071E+03  0.15947800879E+03  0.47000000000E+01 0. -1.
         -5    1    3    3    0  503 -0.96816923994E+01 -0.67252598514E+02  0.13562890725E+03  0.15176935678E+03  0.47000000000E+01 0.  1.
<mgrwt>
<rscale>  0 0.10311645E+03</rscale>
<asrwt>0</asrwt>
<pdfrwt beam="1">  1        2 0.12874830E+00 0.10333076E+03</pdfrwt>
<pdfrwt beam="2">  1       -2 0.21136579E-02 0.10333076E+03</pdfrwt>
<totfact> 0.22087197E+04</totfact>
</mgrwt>
</event>
<event>
 8    1  0.9456677E-004  0.1059716E+03  0.7546771E-02  0.1268504E+00
         -2   -1    0    0    0  501 -0.00000000000E+00  0.00000000000E+00  0.22109521862E+02  0.22109521862E+02  0.00000000000E+00 0.  1.
          2   -1    0    0  501    0  0.00000000000E+00 -0.00000000000E+00 -0.50764555170E+03  0.50764555170E+03  0.00000000000E+00 0. -1.
         23    2    1    2    0    0 -0.92784982513E+01  0.53634261757E+02 -0.26214170992E+03  0.28275123557E+03  0.90924477298E+02 0.  0.
         23    2    1    2    0    0  0.92784982513E+01 -0.53634261757E+02 -0.22339431992E+03  0.24700383799E+03  0.90239399640E+02 0.  0.
          5    1    4    4  502    0  0.26878102430E+02 -0.32602910753E+02 -0.21315891490E+03  0.21735729843E+03  0.47000000000E+01 0. -1.
         -5    1    3    3    0  503  0.30627690963E+02 -0.64024767358E+01 -0.56045715275E+02  0.64360386596E+02  0.47000000000E+01 0.  1.
          5    1    3    3  503    0 -0.39906189214E+02  0.60036738493E+02 -0.20609599464E+03  0.21839084897E+03  0.47000000000E+01 0. -1.
         -5    1    4    4    0  502 -0.17599604179E+02 -0.21031351005E+02 -0.10235405024E+02  0.29646539568E+02  0.47000000000E+01 0.  1.
<mgrwt>
<rscale>  0 0.10582451E+03</rscale>
<asrwt>0</asrwt>
<pdfrwt beam="1">  1        2 0.78099303E-01 0.10597162E+03</pdfrwt>
<pdfrwt beam="2">  1       -2 0.34014655E-02 0.10597162E+03</pdfrwt>
<totfact> 0.19755143E+04</totfact>
</mgrwt>
</event>
<event>
 8    1  0.9456677E-004  0.1097591E+03  0.7546771E-02  0.1261895E+00
          1   -1    0    0  501    0  0.00000000000E+00  0.00000000000E+00  0.22820442865E+03  0.22820442865E+03  0.00000000000E+00 0. -1.
         -1   -1    0    0    0  501 -0.00000000000E+00 -0.00000000000E+00 -0.53650010336E+02  0.53650010336E+02  0.00000000000E+00 0.  1.
         23    2    1    2    0    0  0.36142536887E+02  0.46765708192E+02  0.62500685853E+02  0.12630676290E+03  0.92486475692E+02 0.  0.
         23    2    1    2    0    0 -0.36142536887E+02 -0.46765708192E+02  0.11205373246E+03  0.15554767609E+03  0.90253676615E+02 0.  0.
          5    1    3    3  502    0  0.65684696399E+01  0.70688150510E+02  0.36242102905E+02  0.79846975139E+02  0.47000000000E+01 0. -1.
         -5    1    4    4    0  503  0.78724057056E+00  0.24313729957E+02  0.43274364858E+02  0.49865196941E+02  0.47000000000E+01 0. -1.
          5    1    4    4  503    0 -0.36929777458E+02 -0.71079438149E+02  0.68779367599E+02  0.10568247914E+03  0.47000000000E+01 0.  1.
         -5    1    3    3    0  502  0.29574067248E+02 -0.23922442318E+02  0.26258582948E+02  0.46459787757E+02  0.47000000000E+01 0.  1.
<mgrwt>
<rscale>  0 0.10928740E+03</rscale>
<asrwt>0</asrwt>
<pdfrwt beam="1">  1        1 0.35108373E-01 0.10975911E+03</pdfrwt>
<pdfrwt beam="2">  1       -1 0.82538479E-02 0.10975911E+03</pdfrwt>
<totfact> 0.94483436E+03</totfact>
</mgrwt>
</event>
<event>
 8    1  0.9456677E-004  0.1230776E+03  0.7546771E-02  0.1239334E+00
         -3   -1    0    0    0  501 -0.00000000000E+00  0.00000000000E+00  0.15986610153E+03  0.15986610153E+03  0.00000000000E+00 0.  1.
          3   -1    0    0  501    0  0.00000000000E+00 -0.00000000000E+00 -0.96408189554E+02  0.96408189554E+02  0.00000000000E+00 0. -1.
         23    2    1    2    0    0  0.21847225653E+02 -0.78541466706E+02  0.57384071529E+02  0.13304690185E+03  0.88104955405E+02 0.  0.
         23    2    1    2    0    0 -0.21847225653E+02  0.78541466706E+02  0.60738404486E+01  0.12322738923E+03  0.92206478393E+02 0.  0.
          5    1    3    3  502    0  0.27887428995E+02 -0.38690023602E+02 -0.14869428952E+02  0.50177849093E+02  0.47000000000E+01 0. -1.
         -5    1    4    4    0  503 -0.55082863732E+02  0.54118700896E+02 -0.11381195432E+02  0.78195762500E+02  0.47000000000E+01 0.  1.
          5    1    4    4  503    0  0.33235638079E+02  0.24422765810E+02  0.17455035880E+02  0.45031626730E+02  0.47000000000E+01 0. -1.
         -5    1    3    3    0  502 -0.60402033419E+01 -0.39851443104E+02  0.72253500481E+02  0.82869052761E+02  0.47000000000E+01 0.  1.
<mgrwt>
<rscale>  0 0.12230996E+03</rscale>
<asrwt>0</asrwt>
<pdfrwt beam="1">  1        3 0.14832029E-01 0.12307761E+03</pdfrwt>
<pdfrwt beam="2">  1       -3 0.24594785E-01 0.12307761E+03</pdfrwt>
<totfact> 0.13252831E+03</totfact>
</mgrwt>
</event>
<event>
 8    1  0.9456677E-004  0.1062521E+03  0.7546771E-02  0.1268464E+00
          2   -1    0    0  501    0  0.00000000000E+00  0.00000000000E+00  0.10858858601E+03  0.10858858601E+03  0.00000000000E+00 0. -1.
         -2   -1    0    0    0  501 -0.00000000000E+00 -0.00000000000E+00 -0.32095820535E+03  0.32095820535E+03  0.00000000000E+00 0.  1.
         23    2    1    2    0    0  0.47709190029E+02 -0.25268070792E+02 -0.28315919200E+03  0.30187272188E+03  0.89629068861E+02 0.  0.
         23    2    1    2    0    0 -0.47709190029E+02  0.25268070792E+02  0.70789572668E+02  0.12767406948E+03  0.91514273226E+02 0.  0.
          5    1    3    3  502    0  0.30587033241E+02 -0.44988074795E+02 -0.79225383509E+02  0.96219773791E+02  0.47000000000E+01 0. -1.
         -5    1    4    4    0  503  0.19248805593E+02 -0.10881446367E+02 -0.14425271088E+01  0.22651562336E+02  0.47000000000E+01 0.  1.
          5    1    4    4  503    0 -0.66957995622E+02  0.36149517158E+02  0.72232099777E+02  0.10502250714E+03  0.47000000000E+01 0. -1.
         -5    1    3    3    0  502  0.17122156788E+02  0.19720004003E+02 -0.20393380849E+03  0.20565294809E+03  0.47000000000E+01 0.  1.
<mgrwt>
<rscale>  0 0.10584491E+03</rscale>
<asrwt>0</asrwt>
<pdfrwt beam="1">  1        2 0.16705937E-01 0.10625208E+03</pdfrwt>
<pdfrwt beam="2">  1       -2 0.49378185E-01 0.10625208E+03</pdfrwt>
<totfact> 0.13059549E+03</totfact>
</mgrwt>
</event>
<event>
 8    1  0.9456677E-004  0.9506521E+02  0.7546771E-02  0.1293448E+00
          1   -1    0    0  501    0  0.00000000000E+00  0.00000000000E+00  0.17188855482E+03  0.17188855482E+03  0.00000000000E+00 0. -1.
         -1   -1    0    0    0  501 -0.00000000000E+00 -0.00000000000E+00 -0.52903974327E+02  0.52903974327E+02  0.00000000000E+00 0.  1.
         23    2    1    2    0    0  0.22842403760E+02 -0.87769845568E+01  0.33202748128E+02  0.96745985785E+02  0.87513155667E+02 0.  0.
         23    2    1    2    0    0 -0.22842403760E+02  0.87769845568E+01  0.85781832367E+02  0.12804654336E+03  0.91861763732E+02 0.  0.
          5    1    4    4  502    0  0.48900183822E+01  0.26965446043E+02  0.90081757202E+02  0.94275450361E+02  0.47000000000E+01 0. -1.
         -5    1    3    3    0  503  0.34641272788E+02 -0.35858204237E+02 -0.25341235375E+01  0.50143198678E+02  0.47000000000E+01 0.  1.
          5    1    3    3  503    0 -0.11798869028E+02  0.27081219681E+02  0.35736871666E+02  0.46602787108E+02  0.47000000000E+01 0. -1.
         -5    1    4    4    0  502 -0.27732422142E+02 -0.18188461486E+02 -0.42999248355E+01  0.33771093004E+02  0.47000000000E+01 0.  1.
<mgrwt>
<rscale>  0 0.93998601E+02</rscale>
<asrwt>0</asrwt>
<pdfrwt beam="1">  1        1 0.26444393E-01 0.95065212E+02</pdfrwt>
<pdfrwt beam="2">  1       -1 0.81390730E-02 0.95065212E+02</pdfrwt>
<totfact> 0.13506365E+04</totfact>
</mgrwt>
</event>
<event>
 8    1  0.9456677E-004  0.1706204E+03  0.7546771E-02  0.1177246E+00
          1   -1    0    0  501    0  0.00000000000E+00  0.00000000000E+00  0.15584510600E+04  0.15584510600E+04  0.00000000000E+00 0. -1.
         -1   -1    0    0    0  501 -0.00000000000E+00 -0.00000000000E+00 -0.18663781047E+02  0.18663781047E+02  0.00000000000E+00 0.  1.
         23    2    1    2    0    0  0.13253389456E+03  0.55867924386E+02  0.77847003831E+03  0.79691277706E+03  0.91476311227E+02 0.  0.
         23    2    1    2    0    0 -0.13253389456E+03 -0.55867924386E+02  0.76131724067E+03  0.78020206401E+03  0.91787044658E+02 0.  0.
          5    1    4    4  502    0 -0.77901967747E+02 -0.59547783399E+02  0.63364226251E+03  0.64120142071E+03  0.47000000000E+01 0. -1.
         -5    1    4    4    0  502 -0.54631926812E+02  0.36798590135E+01  0.12767497816E+03  0.13900064330E+03  0.47000000000E+01 0.  1.
          5    1    3    3  503    0  0.94640671156E+02  0.20980887306E+02  0.66705071200E+03  0.67407402906E+03  0.47000000000E+01 0. -1.
         -5    1    3    3    0  503  0.37893223402E+02  0.34887037080E+02  0.11141932631E+03  0.12283874801E+03  0.47000000000E+01 0.  1.
<mgrwt>
<rscale>  0 0.17057864E+03</rscale>
<asrwt>0</asrwt>
<pdfrwt beam="1">  1        1 0.23976160E+00 0.17062040E+03</pdfrwt>
<pdfrwt beam="2">  1       -1 0.28713522E-02 0.17062040E+03</pdfrwt>
<totfact> 0.26276805E+03</totfact>
</mgrwt>
</event>
<event>
 8    1  0.9456677E-004  0.9568807E+02  0.7546771E-02  0.1291352E+00
          2   -1    0    0  501    0  0.00000000000E+00  0.00000000000E+00  0.13233891553E+04  0.13233891553E+04  0.00000000000E+00 0. -1.
         -2   -1    0    0    0  501 -0.00000000000E+00 -0.00000000000E+00 -0.67016870529E+01  0.67016870529E+01  0.00000000000E+00 0.  1.
         23    2    1    2    0    0  0.25024560594E+02  0.17213573624E+02  0.65088619475E+03  0.65744863195E+03  0.87540444235E+02 0.  0.
         23    2    1    2    0    0 -0.25024560594E+02 -0.17213573624E+02  0.66580127346E+03  0.67264221038E+03  0.90739581691E+02 0.  0.
          5    1    4    4  502    0  0.22834871571E+02 -0.34697015779E+02  0.38042944227E+03  0.38271917225E+03  0.47000000000E+01 0. -1.
         -5    1    4    4    0  502 -0.47859432165E+02  0.17483442156E+02  0.28537183119E+03  0.28992303813E+03  0.47000000000E+01 0.  1.
          5    1    3    3  503    0  0.55299669410E+02  0.18228722348E+02  0.50561560158E+03  0.50897894486E+03  0.47000000000E+01 0. -1.
         -5    1    3    3    0  503 -0.30275108816E+02 -0.10151487244E+01  0.14527059318E+03  0.14846968708E+03  0.47000000000E+01 0.  1.
<mgrwt>
<rscale>  0 0.94921888E+02</rscale>
<asrwt>0</asrwt>
<pdfrwt beam="1">  1        2 0.20359812E+00 0.95688074E+02</pdfrwt>
<pdfrwt beam="2">  1       -2 0.10310298E-02 0.95688074E+02</pdfrwt>
<totfact> 0.32160991E+04</totfact>
</mgrwt>
</event>
<event>
 8    1  0.9456677E-004  0.1001847E+03  0.7546771E-02  0.1285252E+00
         -1   -1    0    0    0  501 -0.00000000000E+00  0.00000000000E+00  0.10347537309E+03  0.10347537309E+03  0.00000000000E+00 0.  1.
          1   -1    0    0  501    0  0.00000000000E+00 -0.00000000000E+00 -0.13207467398E+03  0.13207467398E+03  0.00000000000E+00 0. -1.
         23    2    1    2    0    0  0.24633218369E+02 -0.30579114945E+02  0.54251324982E+02  0.10554544768E+03  0.81576697322E+02 0.  0.
         23    2    1    2    0    0 -0.24633218369E+02  0.30579114945E+02 -0.82850625867E+02  0.13000459939E+03  0.92168823027E+02 0.  0.
          5    1    3    3  502    0  0.41542190664E+02 -0.38781936790E+01 -0.68553866467E+00  0.41992308280E+02  0.47000000000E+01 0. -1.
         -5    1    4    4    0  503  0.81988316221E+01 -0.29642715849E+02 -0.21094130485E+02  0.37589410527E+02  0.47000000000E+01 0.  1.
          5    1    4    4  503    0 -0.32832049992E+02  0.60221830794E+02 -0.61756495382E+02  0.92415188863E+02  0.47000000000E+01 0. -1.
         -5    1    3    3    0  502 -0.16908972295E+02 -0.26700921266E+02  0.54936863647E+02  0.63553139403E+02  0.47000000000E+01 0.  1.
<mgrwt>
<rscale>  0 0.97679950E+02</rscale>
<asrwt>0</asrwt>
<pdfrwt beam="1">  1        1 0.20319180E-01 0.10018468E+03</pdfrwt>
<pdfrwt beam="2">  1       -1 0.15919288E-01 0.10018468E+03</pdfrwt>
<totfact> 0.67729401E+03</totfact>
</mgrwt>
</event>
<event>
 8    1  0.9456677E-004  0.2138454E+03  0.7546771E-02  0.1138660E+00
         -1   -1    0    0    0  501 -0.00000000000E+00  0.00000000000E+00  0.43952106149E+03  0.43952106149E+03  0.00000000000E+00 0.  1.
          1   -1    0    0  501    0  0.00000000000E+00 -0.00000000000E+00 -0.30312667116E+03  0.30312667116E+03  0.00000000000E+00 0. -1.
         23    2    1    2    0    0  0.13451389079E+03 -0.13950720959E+03 -0.23289302295E+03  0.31617875736E+03  0.90407953863E+02 0.  0.
         23    2    1    2    0    0 -0.13451389079E+03  0.13950720959E+03  0.36928741329E+03  0.42646897529E+03  0.89142273527E+02 0.  0.
          5    1    4    4  502    0 -0.74959093717E+02  0.13067982394E+03  0.23436617567E+03  0.27864973787E+03  0.47000000000E+01 0.  1.
         -5    1    4    4    0  502 -0.59554797070E+02  0.88273856485E+01  0.13492123762E+03  0.14781923742E+03  0.47000000000E+01 0. -1.
          5    1    3    3  503    0  0.71068078722E+02 -0.20560709659E+02 -0.11611385407E+03  0.13776041413E+03  0.47000000000E+01 0. -1.
         -5    1    3    3    0  503  0.63445812065E+02 -0.11894649993E+03 -0.11677916888E+03  0.17841834322E+03  0.47000000000E+01 0.  1.
<mgrwt>
<rscale>  0 0.21371225E+03</rscale>
<asrwt>0</asrwt>
<pdfrwt beam="1">  1        1 0.46634872E-01 0.21384538E+03</pdfrwt>
<pdfrwt beam="2">  1       -1 0.67618625E-01 0.21384538E+03</pdfrwt>
<totfact> 0.20167750E+02</totfact>
</mgrwt>
</event>
<event>
 8    1  0.9456677E-004  0.9646694E+02  0.7546771E-02  0.1288383E+00
         -2   -1    0    0    0  501 -0.00000000000E+00  0.00000000000E+00  0.31693767205E+03  0.31693767205E+03  0.00000000000E+00 0.  1.
          2   -1    0    0  501    0  0.00000000000E+00 -0.00000000000E+00 -0.29210188772E+02  0.29210188772E+02  0.00000000000E+00 0. -1.
         23    2    1    2    0    0  0.35468288478E+02 -0.19739334606E+01  0.15512367433E+03  0.18267245186E+03  0.89688206740E+02 0.  0.
         23    2    1    2    0    0 -0.35468288478E+02  0.19739334606E+01  0.13260380895E+03  0.16347540897E+03  0.88761158671E+02 0.  0.
          5    1    4    4  502    0 -0.59925881498E+02  0.67237063014E+01  0.54703321385E+02  0.81552822577E+02  0.47000000000E+01 0. -1.
         -5    1    3    3    0  503  0.12797170951E+02 -0.30266126962E+02  0.13865984810E+03  0.14257787171E+03  0.47000000000E+01 0.  1.
          5    1    3    3  503    0  0.22671117527E+02  0.28292193501E+02  0.16463826230E+02  0.40094580147E+02  0.47000000000E+01 0. -1.
         -5    1    4    4    0  502  0.24457593020E+02 -0.47497728408E+01  0.77900487562E+02  0.81922586390E+02  0.47000000000E+01 0.  1.
<mgrwt>
<rscale>  0 0.96250891E+02</rscale>
<asrwt>0</asrwt>
<pdfrwt beam="1">  1        2 0.44938754E-02 0.96466939E+02</pdfrwt>
<pdfrwt beam="2">  1       -2 0.48759639E-01 0.96466939E+02</pdfrwt>
<totfact> 0.66932860E+03</totfact>
</mgrwt>
</event>
<event>
 8    1  0.9456677E-004  0.1026263E+03  0.7546771E-02  0.1278270E+00
          2   -1    0    0  501    0  0.00000000000E+00  0.00000000000E+00  0.14385494922E+03  0.14385494922E+03  0.00000000000E+00 0. -1.
         -2   -1    0    0    0  501 -0.00000000000E+00 -0.00000000000E+00 -0.82819583992E+02  0.82819583992E+02  0.00000000000E+00 0.  1.
         23    2    1    2    0    0  0.16574307052E+01  0.28240148310E+02 -0.17128396101E+02  0.97671722160E+02  0.91902830770E+02 0.  0.
         23    2    1    2    0    0 -0.16574307052E+01 -0.28240148310E+02  0.78163761328E+02  0.12900281105E+03  0.98650385814E+02 0.  0.
          5    1    3    3  502    0  0.32614870047E+02 -0.11320637533E+02  0.14917997762E+02  0.37901493896E+02  0.47000000000E+01 0. -1.
         -5    1    3    3    0  502 -0.30957439342E+02  0.39560785842E+02 -0.32046393863E+02  0.59770228264E+02  0.47000000000E+01 0.  1.
          5    1    4    4  503    0  0.42655970321E+02 -0.36285425767E+02  0.52748448585E+02  0.77075630099E+02  0.47000000000E+01 0. -1.
         -5    1    4    4    0  503 -0.44313401026E+02  0.80452774570E+01  0.25415312743E+02  0.51927180952E+02  0.47000000000E+01 0.  1.
<mgrwt>
<rscale>  0 0.10096955E+03</rscale>
<asrwt>0</asrwt>
<pdfrwt beam="1">  1        2 0.22131531E-01 0.10262627E+03</pdfrwt>
<pdfrwt beam="2">  1       -2 0.12741474E-01 0.10262627E+03</pdfrwt>
<totfact> 0.10173233E+04</totfact>
</mgrwt>
</event>
<event>
 8    1  0.9456677E-004  0.1597678E+03  0.7546771E-02  0.1189408E+00
          1   -1    0    0  501    0  0.00000000000E+00  0.00000000000E+00  0.27698438283E+02  0.27698438283E+02  0.00000000000E+00 0. -1.
         -1   -1    0    0    0  501 -0.00000000000E+00 -0.00000000000E+00 -0.98729689971E+03  0.98729689971E+03  0.00000000000E+00 0.  1.
         23    2    1    2    0    0  0.11181886190E+03 -0.63076997733E+02 -0.61730390251E+03  0.63725029694E+03  0.92421141364E+02 0.  0.
         23    2    1    2    0    0 -0.11181886190E+03  0.63076997733E+02 -0.34229455891E+03  0.37774504105E+03  0.95097767902E+02 0.  0.
          5    1    3    3  502    0  0.87526839180E+02 -0.49591976603E+02 -0.58812813287E+03  0.59668844668E+03  0.47000000000E+01 0. -1.
         -5    1    3    3    0  502  0.24292022718E+02 -0.13485021130E+02 -0.29175769641E+02  0.40561850263E+02  0.47000000000E+01 0.  1.
          5    1    4    4  503    0 -0.43046397234E+02  0.55474445654E+02 -0.80516473822E+02  0.10693642500E+03  0.47000000000E+01 0. -1.
         -5    1    4    4    0  503 -0.68772464665E+02  0.76025520789E+01 -0.26177808509E+03  0.27080861605E+03  0.47000000000E+01 0.  1.
<mgrwt>
<rscale>  0 0.15937169E+03</rscale>
<asrwt>0</asrwt>
<pdfrwt beam="1">  1        1 0.42612987E-02 0.15976780E+03</pdfrwt>
<pdfrwt beam="2">  1       -1 0.15189181E+00 0.15976780E+03</pdfrwt>
<totfact> 0.75420983E+02</totfact>
</mgrwt>
</event>
<event>
 8    1  0.9456677E-004  0.1134352E+03  0.7546771E-02  0.1254561E+00
          2   -1    0    0  501    0  0.00000000000E+00  0.00000000000E+00  0.55071276657E+03  0.55071276657E+03  0.00000000000E+00 0. -1.
         -2   -1    0    0    0  501 -0.00000000000E+00 -0.00000000000E+00 -0.24134661270E+02  0.24134661270E+02  0.00000000000E+00 0.  1.
         23    2    1    2    0    0 -0.63196588146E+02  0.24564595663E+02  0.31849765507E+03  0.33809509669E+03  0.90941244790E+02 0.  0.
         23    2    1    2    0    0  0.63196588146E+02 -0.24564595663E+02  0.20808045022E+03  0.23675233115E+03  0.90315914576E+02 0.  0.
          5    1    4    4  502    0  0.80559686648E+02 -0.39074105359E+02  0.16009017791E+03  0.18348733985E+03  0.47000000000E+01 0. -1.
         -5    1    3    3    0  503 -0.84053948292E+02  0.22097963330E+02  0.20724532821E+03  0.22478011983E+03  0.47000000000E+01 0.  1.
          5    1    3    3  503    0  0.20857360146E+02  0.24666323330E+01  0.11125232687E+03  0.11331497686E+03  0.47000000000E+01 0. -1.
         -5    1    4    4    0  502 -0.17363098502E+02  0.14509509696E+02  0.47990272315E+02  0.53264991299E+02  0.47000000000E+01 0.  1.
<mgrwt>
<rscale>  0 0.11330979E+03</rscale>
<asrwt>0</asrwt>
<pdfrwt beam="1">  1        2 0.84725032E-01 0.11343517E+03</pdfrwt>
<pdfrwt beam="2">  1       -2 0.37130252E-02 0.11343517E+03</pdfrwt>
<totfact> 0.15975736E+04</totfact>
</mgrwt>
</event>
<event>
 8    1  0.9456677E-004  0.1157421E+03  0.7546771E-02  0.1251553E+00
         -1   -1    0    0    0  501 -0.00000000000E+00  0.00000000000E+00  0.40152411929E+02  0.40152411929E+02  0.00000000000E+00 0.  1.
          1   -1    0    0  501    0  0.00000000000E+00 -0.00000000000E+00 -0.32946887059E+03  0.32946887059E+03  0.00000000000E+00 0. -1.
         23    2    1    2    0    0 -0.68428334892E+02 -0.12750845454E+02 -0.16701173823E+03  0.20319735158E+03  0.92472817115E+02 0.  0.
         23    2    1    2    0    0  0.68428334892E+02  0.12750845454E+02 -0.12230472043E+03  0.16642393094E+03  0.88845140974E+02 0.  0.
          5    1    3    3  502    0 -0.56975798020E+02 -0.49160070418E+02 -0.92411162393E+02  0.11926804693E+03  0.47000000000E+01 0. -1.
         -5    1    4    4    0  503  0.85897623338E+02  0.23194715083E+02 -0.82291318550E+02  0.12128622185E+03  0.47000000000E+01 0.  1.
          5    1    4    4  503    0 -0.17469288446E+02 -0.10443869630E+02 -0.40013401879E+02  0.45137709087E+02  0.47000000000E+01 0. -1.
         -5    1    3    3    0  502 -0.11452536872E+02  0.36409224964E+02 -0.74600575838E+02  0.83929304648E+02  0.47000000000E+01 0.  1.
<mgrwt>
<rscale>  0 0.11501602E+03</rscale>
<asrwt>0</asrwt>
<pdfrwt beam="1">  1        1 0.50687518E-01 0.11574214E+03</pdfrwt>
<pdfrwt beam="2">  1       -1 0.61772943E-02 0.11574214E+03</pdfrwt>
<totfact> 0.93099900E+03</totfact>
</mgrwt>
</event>
<event>
 8    1  0.9456677E-004  0.1595823E+03  0.7546771E-02  0.1190289E+00
          1   -1    0    0  501    0  0.00000000000E+00  0.00000000000E+00  0.61206116807E+03  0.61206116807E+03  0.00000000000E+00 0. -1.
         -1   -1    0    0    0  501 -0.00000000000E+00 -0.00000000000E+00 -0.55048963159E+02  0.55048963159E+02  0.00000000000E+00 0.  1.
         23    2    1    2    0    0 -0.35152353177E+01  0.13026947808E+03  0.45194414228E+03  0.47929116631E+03  0.92108743144E+02 0.  0.
         23    2    1    2    0    0  0.35152353177E+01 -0.13026947808E+03  0.10506806263E+03  0.18781896492E+03  0.85171427132E+02 0.  0.
          5    1    3    3  502    0  0.41849817927E+02  0.80291601134E+02  0.28799605743E+03  0.30193040186E+03  0.47000000000E+01 0.  1.
         -5    1    3    3    0  502 -0.45365053245E+02  0.49977876944E+02  0.16394808486E+03  0.17736076446E+03  0.47000000000E+01 0. -1.
          5    1    4    4  503    0 -0.26996329353E+00 -0.77135392491E+02  0.10965146837E+03  0.13414721827E+03  0.47000000000E+01 0. -1.
         -5    1    4    4    0  503  0.37851986112E+01 -0.53134085587E+02 -0.45834057398E+01  0.53671746644E+02  0.47000000000E+01 0.  1.
<mgrwt>
<rscale>  0 0.15859799E+03</rscale>
<asrwt>0</asrwt>
<pdfrwt beam="1">  1        1 0.94163252E-01 0.15958231E+03</pdfrwt>
<pdfrwt beam="2">  1       -1 0.84690717E-02 0.15958231E+03</pdfrwt>
<totfact> 0.26542897E+03</totfact>
</mgrwt>
</event>
<event>
 8    1  0.9456677E-004  0.1019773E+03  0.7546771E-02  0.1276239E+00
         -3   -1    0    0    0  501 -0.00000000000E+00  0.00000000000E+00  0.45781811090E+03  0.45781811090E+03  0.00000000000E+00 0.  1.
          3   -1    0    0  501    0  0.00000000000E+00 -0.00000000000E+00 -0.22695236987E+02  0.22695236987E+02  0.00000000000E+00 0. -1.
         23    2    1    2    0    0 -0.44937922039E+02 -0.12430577325E+02  0.21645288462E+03  0.23923356383E+03  0.90592001369E+02 0.  0.
         23    2    1    2    0    0  0.44937922039E+02  0.12430577325E+02  0.21866998929E+03  0.24127978406E+03  0.90694177805E+02 0.  0.
          5    1    3    3  502    0 -0.54501122107E+02  0.22426651002E+02  0.17123421919E+03  0.18115345652E+03  0.47000000000E+01 0. -1.
         -5    1    3    3    0  502  0.95632000676E+01 -0.34857228327E+02  0.45218665426E+02  0.58080107309E+02  0.47000000000E+01 0.  1.
          5    1    4    4  503    0 -0.19678175653E+02  0.28521138567E+02  0.83425769717E+02  0.90457918366E+02  0.47000000000E+01 0. -1.
         -5    1    4    4    0  503  0.64616097692E+02 -0.16090561242E+02  0.13524421958E+03  0.15082186569E+03  0.47000000000E+01 0.  1.
<mgrwt>
<rscale>  0 0.10195458E+03</rscale>
<asrwt>0</asrwt>
<pdfrwt beam="1">  1        3 0.34915753E-02 0.10197730E+03</pdfrwt>
<pdfrwt beam="2">  1       -3 0.70433549E-01 0.10197730E+03</pdfrwt>
<totfact> 0.17215723E+03</totfact>
</mgrwt>
</event>
<event>
 8    1  0.9456677E-004  0.9122859E+02  0.7546771E-02  0.1301658E+00
         -1   -1    0    0    0  501 -0.00000000000E+00  0.00000000000E+00  0.62776761341E+01  0.62776761341E+01  0.00000000000E+00 0.  1.
          1   -1    0    0  501    0  0.00000000000E+00 -0.00000000000E+00 -0.12871233198E+04  0.12871233198E+04  0.00000000000E+00 0. -1.
         23    2    1    2    0    0 -0.81984801671E+01  0.91321139780E+01 -0.66226413388E+03  0.66812846348E+03  0.87471424471E+02 0.  0.
         23    2    1    2    0    0  0.81984801671E+01 -0.91321139780E+01 -0.61858150983E+03  0.62527253250E+03  0.90399364027E+02 0.  0.
          5    1    4    4  502    0  0.25973081632E+02 -0.41919720708E+02 -0.25609349270E+03  0.26084062367E+03  0.47000000000E+01 0. -1.
         -5    1    4    4    0  502 -0.17774601465E+02  0.32787606730E+02 -0.36248801713E+03  0.36443190883E+03  0.47000000000E+01 0.  1.
          5    1    3    3  503    0 -0.43704909841E+02 -0.12986726700E+02 -0.37671151073E+03  0.37948969226E+03  0.47000000000E+01 0. -1.
         -5    1    3    3    0  503  0.35506429674E+02  0.22118840678E+02 -0.28555262315E+03  0.28863877122E+03  0.47000000000E+01 0.  1.
<mgrwt>
<rscale>  0 0.90494669E+02</rscale>
<asrwt>0</asrwt>
<pdfrwt beam="1">  1        1 0.19801893E+00 0.91228590E+02</pdfrwt>
<pdfrwt beam="2">  1       -1 0.96579654E-03 0.91228590E+02</pdfrwt>
<totfact> 0.18374314E+04</totfact>
</mgrwt>
</event>
<event>
 8    1  0.9456677E-004  0.1155864E+03  0.7546771E-02  0.1254534E+00
         -1   -1    0    0    0  501 -0.00000000000E+00  0.00000000000E+00  0.21277079251E+02  0.21277079251E+02  0.00000000000E+00 0.  1.
          1   -1    0    0  501    0  0.00000000000E+00 -0.00000000000E+00 -0.75648229386E+03  0.75648229386E+03  0.00000000000E+00 0. -1.
         23    2    1    2    0    0 -0.68238661887E+02 -0.14881195274E+02 -0.56589265828E+03  0.57757658586E+03  0.92099114448E+02 0.  0.
         23    2    1    2    0    0  0.68238661887E+02  0.14881195274E+02 -0.16931255633E+03  0.20018278725E+03  0.80798772482E+02 0.  0.
          5    1    4    4  502    0  0.32368249064E+02 -0.20852955901E+02 -0.13069895004E+03  0.13633361602E+03  0.47000000000E+01 0. -1.
         -5    1    4    4    0  502  0.35870412824E+02  0.35734151175E+02 -0.38613606289E+02  0.63849171232E+02  0.47000000000E+01 0.  1.
          5    1    3    3  503    0 -0.31358979639E+02 -0.38146685636E+02 -0.46402588357E+03  0.46666976102E+03  0.47000000000E+01 0. -1.
         -5    1    3    3    0  503 -0.36879682248E+02  0.23265490363E+02 -0.10186677471E+03  0.11090682484E+03  0.47000000000E+01 0.  1.
<mgrwt>
<rscale>  0 0.11332445E+03</rscale>
<asrwt>0</asrwt>
<pdfrwt beam="1">  1        1 0.11638190E+00 0.11558638E+03</pdfrwt>
<pdfrwt beam="2">  1       -1 0.32733966E-02 0.11558638E+03</pdfrwt>
<totfact> 0.79369405E+03</totfact>
</mgrwt>
</event>
<event>
 8    1  0.9456677E-004  0.9872430E+02  0.7546771E-02  0.1284009E+00
         -1   -1    0    0    0  501 -0.00000000000E+00  0.00000000000E+00  0.23612559870E+03  0.23612559870E+03  0.00000000000E+00 0.  1.
          1   -1    0    0  501    0  0.00000000000E+00 -0.00000000000E+00 -0.48449697483E+02  0.48449697483E+02  0.00000000000E+00 0. -1.
         23    2    1    2    0    0  0.19246810208E+02  0.33447084529E+02  0.15221800709E+03  0.18142989968E+03  0.90869905063E+02 0.  0.
         23    2    1    2    0    0 -0.19246810208E+02 -0.33447084529E+02  0.35457894121E+02  0.10314539650E+03  0.88840100168E+02 0.  0.
          5    1    3    3  502    0 -0.34389132576E+02  0.14608694752E+02  0.36636839299E+02  0.52539265274E+02  0.47000000000E+01 0. -1.
         -5    1    3    3    0  502  0.53635942784E+02  0.18838389777E+02  0.11558116779E+03  0.12889063440E+03  0.47000000000E+01 0.  1.
          5    1    4    4  503    0 -0.36951200833E+02 -0.54200095954E+02  0.11977990767E+02  0.66847617065E+02  0.47000000000E+01 0. -1.
         -5    1    4    4    0  503  0.17704390626E+02  0.20753011425E+02  0.23479903354E+02  0.36297779439E+02  0.47000000000E+01 0.  1.
<mgrwt>
<rscale>  0 0.98254690E+02</rscale>
<asrwt>0</asrwt>
<pdfrwt beam="1">  1        1 0.74537998E-02 0.98724297E+02</pdfrwt>
<pdfrwt beam="2">  1       -1 0.36327014E-01 0.98724297E+02</pdfrwt>
<totfact> 0.64891593E+03</totfact>
</mgrwt>
</event>
<event>
 8    1  0.9456677E-004  0.9433604E+02  0.7546771E-02  0.1301169E+00
          2   -1    0    0  501    0  0.00000000000E+00  0.00000000000E+00  0.10348491828E+03  0.10348491828E+03  0.00000000000E+00 0. -1.
         -2   -1    0    0    0  501 -0.00000000000E+00 -0.00000000000E+00 -0.18203733194E+03  0.18203733194E+03  0.00000000000E+00 0.  1.
         23    2    1    2    0    0  0.94412276924E+01 -0.21322831032E+02 -0.14790026474E+03  0.16843932111E+03  0.77159034996E+02 0.  0.
         23    2    1    2    0    0 -0.94412276924E+01  0.21322831032E+02  0.69347851082E+02  0.11708292911E+03  0.91408358125E+02 0.  0.
          5    1    4    4  502    0  0.13054470569E+02  0.20036177284E+02  0.85537772187E+02  0.88941936525E+02  0.47000000000E+01 0. -1.
         -5    1    4    4    0  502 -0.22495698261E+02  0.12866537476E+01 -0.16189921106E+02  0.28140992583E+02  0.47000000000E+01 0.  1.
          5    1    3    3  503    0 -0.14146175602E+02  0.14298367239E+02 -0.81096237359E+01  0.22190394025E+02  0.47000000000E+01 0. -1.
         -5    1    3    3    0  503  0.23587403294E+02 -0.35621198270E+02 -0.13979064101E+03  0.14624892709E+03  0.47000000000E+01 0.  1.
<mgrwt>
<rscale>  0 0.90698473E+02</rscale>
<asrwt>0</asrwt>
<pdfrwt beam="1">  1        2 0.15920757E-01 0.94336037E+02</pdfrwt>
<pdfrwt beam="2">  1       -2 0.28005743E-01 0.94336037E+02</pdfrwt>
<totfact> 0.39314144E+03</totfact>
</mgrwt>
</event>
<event>
 8    1  0.9456677E-004  0.9202077E+02  0.7546771E-02  0.1307630E+00
          1   -1    0    0  501    0  0.00000000000E+00  0.00000000000E+00  0.26006659840E+03  0.26006659840E+03  0.00000000000E+00 0. -1.
         -1   -1    0    0    0  501 -0.00000000000E+00 -0.00000000000E+00 -0.35483711199E+02  0.35483711199E+02  0.00000000000E+00 0.  1.
         23    2    1    2    0    0 -0.10945911817E+02  0.12935380873E+02  0.18976957104E+03  0.21090356215E+03  0.90447141309E+02 0.  0.
         23    2    1    2    0    0  0.10945911817E+02 -0.12935380873E+02  0.34813316156E+02  0.84646747444E+02  0.75272623225E+02 0.  0.
          5    1    4    4  502    0 -0.20007532091E+02  0.17538426940E+02  0.30496688526E+02  0.40743536554E+02  0.47000000000E+01 0. -1.
         -5    1    4    4    0  502  0.30953443907E+02 -0.30473807813E+02  0.43166276297E+01  0.43903210890E+02  0.47000000000E+01 0.  1.
          5    1    3    3  503    0  0.27739298823E+02  0.24734732676E+02  0.14762105568E+03  0.15230017000E+03  0.47000000000E+01 0. -1.
         -5    1    3    3    0  503 -0.38685210640E+02 -0.11799351802E+02  0.42148515358E+02  0.58603392155E+02  0.47000000000E+01 0.  1.
<mgrwt>
<rscale>  0 0.88055674E+02</rscale>
<asrwt>0</asrwt>
<pdfrwt beam="1">  1        1 0.40010245E-01 0.92020772E+02</pdfrwt>
<pdfrwt beam="2">  1       -1 0.54590327E-02 0.92020772E+02</pdfrwt>
<totfact> 0.14638717E+04</totfact>
</mgrwt>
</event>
<event>
 8    1  0.9456677E-004  0.1115612E+03  0.7546771E-02  0.1258347E+00
          3   -1    0    0  501    0  0.00000000000E+00  0.00000000000E+00  0.24865423703E+03  0.24865423703E+03  0.00000000000E+00 0. -1.
         -3   -1    0    0    0  501 -0.00000000000E+00 -0.00000000000E+00 -0.55650770512E+02  0.55650770512E+02  0.00000000000E+00 0.  1.
         23    2    1    2    0    0 -0.51526047428E+02  0.31727177019E+02  0.14684492016E+03  0.18357175212E+03  0.92052214940E+02 0.  0.
         23    2    1    2    0    0  0.51526047428E+02 -0.31727177019E+02  0.46158546353E+02  0.12073325542E+03  0.93724917907E+02 0.  0.
          5    1    3    3  502    0 -0.30153833607E+01  0.55560123885E+02  0.77672642040E+02  0.95661639252E+02  0.47000000000E+01 0. -1.
         -5    1    4    4    0  503  0.11668039398E+02 -0.60296558643E+02  0.18892503233E+02  0.64426972659E+02  0.47000000000E+01 0.  1.
          5    1    4    4  503    0  0.39858008030E+02  0.28569381624E+02  0.27266043121E+02  0.56306282757E+02  0.47000000000E+01 0. -1.
         -5    1    3    3    0  502 -0.48510664067E+02 -0.23832946866E+02  0.69172278120E+02  0.87910112870E+02  0.47000000000E+01 0.  1.
<mgrwt>
<rscale>  0 0.11120918E+03</rscale>
<asrwt>0</asrwt>
<pdfrwt beam="1">  1        3 0.38254497E-01 0.11156123E+03</pdfrwt>
<pdfrwt beam="2">  1       -3 0.85616572E-02 0.11156123E+03</pdfrwt>
<totfact> 0.14360245E+03</totfact>
</mgrwt>
</event>
<event>
 8    1  0.9456677E-004  0.9736150E+02  0.7546771E-02  0.1287775E+00
         -2   -1    0    0    0  501 -0.00000000000E+00  0.00000000000E+00  0.10199325680E+04  0.10199325680E+04  0.00000000000E+00 0.  1.
          2   -1    0    0  501    0  0.00000000000E+00 -0.00000000000E+00 -0.12515077933E+02  0.12515077933E+02  0.00000000000E+00 0. -1.
         23    2    1    2    0    0 -0.14903423568E+02 -0.12893072036E+02  0.78419536795E+03  0.79021619663E+03  0.95346310746E+02 0.  0.
         23    2    1    2    0    0  0.14903423568E+02  0.12893072036E+02  0.22322212214E+03  0.24223144932E+03  0.91976170208E+02 0.  0.
          5    1    4    4  502    0 -0.20938024012E+02  0.14427793601E+02  0.13044192525E+02  0.28962096546E+02  0.47000000000E+01 0. -1.
         -5    1    3    3    0  503 -0.23584002930E+02 -0.51844382405E+02  0.46985895023E+03  0.47332184430E+03  0.47000000000E+01 0.  1.
          5    1    3    3  503    0  0.86805793626E+01  0.38951310369E+02  0.31433641771E+03  0.31689435233E+03  0.47000000000E+01 0. -1.
         -5    1    4    4    0  502  0.35841447580E+02 -0.15347215646E+01  0.21017792962E+03  0.21326935278E+03  0.47000000000E+01 0.  1.
<mgrwt>
<rscale>  0 0.96526341E+02</rscale>
<asrwt>0</asrwt>
<pdfrwt beam="1">  1        2 0.19253974E-02 0.97361503E+02</pdfrwt>
<pdfrwt beam="2">  1       -2 0.15691264E+00 0.97361503E+02</pdfrwt>
<totfact> 0.15257400E+03</totfact>
</mgrwt>
</event>
<event>
 8    1  0.9456677E-004  0.1028914E+03  0.7546771E-02  0.1274401E+00
          1   -1    0    0  501    0  0.00000000000E+00  0.00000000000E+00  0.93424425643E+03  0.93424425643E+03  0.00000000000E+00 0. -1.
         -1   -1    0    0    0  501 -0.00000000000E+00 -0.00000000000E+00 -0.36192076358E+02  0.36192076358E+02  0.00000000000E+00 0.  1.
         23    2    1    2    0    0 -0.35977550606E+02  0.34587592605E+02  0.46851492603E+02  0.11305621173E+03  0.89977546881E+02 0.  0.
         23    2    1    2    0    0  0.35977550606E+02 -0.34587592605E+02  0.85120068747E+03  0.85738012105E+03  0.89818572243E+02 0.  0.
          5    1    3    3  502    0 -0.13085490234E+02  0.26558413785E+02  0.71882488414E+02  0.77882999030E+02  0.47000000000E+01 0. -1.
         -5    1    4    4    0  503  0.10868369829E+02  0.30441552630E+02  0.29811163774E+03  0.29989572879E+03  0.47000000000E+01 0.  1.
          5    1    4    4  503    0  0.25109180777E+02 -0.65029145235E+02  0.55308904973E+03  0.55748439227E+03  0.47000000000E+01 0. -1.
         -5    1    3    3    0  502 -0.22892060372E+02  0.80291788204E+01 -0.25030995811E+02  0.35173212703E+02  0.47000000000E+01 0.  1.
<mgrwt>
<rscale>  0 0.10285666E+03</rscale>
<asrwt>0</asrwt>
<pdfrwt beam="1">  1        1 0.14372987E+00 0.10289142E+03</pdfrwt>
<pdfrwt beam="2">  1       -1 0.55680125E-02 0.10289142E+03</pdfrwt>
<totfact> 0.26278942E+03</totfact>
</mgrwt>
</event>
<event>
 8    1  0.9456677E-004  0.1019682E+03  0.7546771E-02  0.1276590E+00
         -1   -1    0    0    0  501 -0.00000000000E+00  0.00000000000E+00  0.13568541595E+03  0.13568541595E+03  0.00000000000E+00 0.  1.
          1   -1    0    0  501    0  0.00000000000E+00 -0.00000000000E+00 -0.12184606294E+03  0.12184606294E+03  0.00000000000E+00 0. -1.
         23    2    1    2    0    0  0.43557485995E+02 -0.62632739729E+01  0.85854095375E+02  0.13329834357E+03  0.91983909015E+02 0.  0.
         23    2    1    2    0    0 -0.43557485995E+02  0.62632739729E+01 -0.72014742370E+02  0.12423313533E+03  0.91166142881E+02 0.  0.
          5    1    3    3  502    0 -0.17210322236E+02  0.26898610325E+02  0.32142769060E+02  0.45551926762E+02  0.47000000000E+01 0. -1.
         -5    1    4    4    0  503  0.80892972587E+01 -0.28153109442E+02 -0.83478356783E+00  0.29678631454E+02  0.47000000000E+01 0.  1.
          5    1    4    4  503    0 -0.51646783254E+02  0.34416383415E+02 -0.71179958802E+02  0.94554503874E+02  0.47000000000E+01 0. -1.
         -5    1    3    3    0  502  0.60767808231E+02 -0.33161884297E+02  0.53711326315E+02  0.87746416804E+02  0.47000000000E+01 0.  1.
<mgrwt>
<rscale>  0 0.10178347E+03</rscale>
<asrwt>0</asrwt>
<pdfrwt beam="1">  1        1 0.18745548E-01 0.10196824E+03</pdfrwt>
<pdfrwt beam="2">  1       -1 0.20874679E-01 0.10196824E+03</pdfrwt>
<totfact> 0.48926898E+03</totfact>
</mgrwt>
</event>
<event>
 8    1  0.9456677E-004  0.9647631E+02  0.7546771E-02  0.1287970E+00
          1   -1    0    0  501    0  0.00000000000E+00  0.00000000000E+00  0.98144515474E+03  0.98144515474E+03  0.00000000000E+00 0. -1.
         -1   -1    0    0    0  501 -0.00000000000E+00 -0.00000000000E+00 -0.94700710458E+01  0.94700710458E+01  0.00000000000E+00 0.  1.
         23    2    1    2    0    0 -0.19213980492E+02 -0.26370502068E+02  0.48007164689E+03  0.48966974954E+03  0.90791503131E+02 0.  0.
         23    2    1    2    0    0  0.19213980492E+02  0.26370502068E+02  0.49190343680E+03  0.50124547624E+03  0.90628118659E+02 0.  0.
          5    1    3    3  502    0  0.85487852849E+01  0.25255551764E+02  0.64409288925E+02  0.69868241172E+02  0.47000000000E+01 0.  1.
         -5    1    4    4    0  503  0.20456431104E+02  0.58680026692E+02  0.28114505934E+03  0.28796952182E+03  0.47000000000E+01 0.  1.
          5    1    4    4  503    0 -0.12424506120E+01 -0.32309524624E+02  0.21075837746E+03  0.21327595442E+03  0.47000000000E+01 0. -1.
         -5    1    3    3    0  502 -0.27762765777E+02 -0.51626053832E+02  0.41566235797E+03  0.41980150837E+03  0.47000000000E+01 0. -1.
<mgrwt>
<rscale>  0 0.96437847E+02</rscale>
<asrwt>0</asrwt>
<pdfrwt beam="1">  1        1 0.15099148E+00 0.96476305E+02</pdfrwt>
<pdfrwt beam="2">  1       -1 0.14569348E-02 0.96476305E+02</pdfrwt>
<totfact> 0.16750513E+04</totfact>
</mgrwt>
</event>
<event>
 8    1  0.9456677E-004  0.1008558E+03  0.7546771E-02  0.1279350E+00
         -1   -1    0    0    0  501 -0.00000000000E+00  0.00000000000E+00  0.87501574104E+02  0.87501574104E+02  0.00000000000E+00 0.  1.
          1   -1    0    0  501    0  0.00000000000E+00 -0.00000000000E+00 -0.14017053250E+03  0.14017053250E+03  0.00000000000E+00 0. -1.
         23    2    1    2    0    0 -0.37635106706E+02  0.11932226284E+02 -0.75314473733E+02  0.12587361007E+03  0.92806877320E+02 0.  0.
         23    2    1    2    0    0  0.37635106706E+02 -0.11932226284E+02  0.22645515336E+02  0.10179849653E+03  0.91056769385E+02 0.  0.
          5    1    3    3  502    0 -0.96137523107E+01  0.29646653566E+02 -0.85297339185E+02  0.90934450970E+02  0.47000000000E+01 0. -1.
         -5    1    4    4    0  503 -0.26768162389E+02  0.11827245901E+02  0.95967543292E+00  0.29655172234E+02  0.47000000000E+01 0. -1.
          5    1    4    4  503    0  0.64403269095E+02 -0.23759472184E+02  0.21685839903E+02  0.72143324299E+02  0.47000000000E+01 0.  1.
         -5    1    3    3    0  502 -0.28021354395E+02 -0.17714427282E+02  0.99828654524E+01  0.34939159101E+02  0.47000000000E+01 0.  1.
<mgrwt>
<rscale>  0 0.10045137E+03</rscale>
<asrwt>0</asrwt>
<pdfrwt beam="1">  1        1 0.21564697E-01 0.10085582E+03</pdfrwt>
<pdfrwt beam="2">  1       -1 0.13461781E-01 0.10085582E+03</pdfrwt>
<totfact> 0.81578001E+03</totfact>
</mgrwt>
</event>
<event>
 8    1  0.9456677E-004  0.1047514E+03  0.7546771E-02  0.1272826E+00
         -1   -1    0    0    0  501 -0.00000000000E+00  0.00000000000E+00  0.22704576104E+02  0.22704576104E+02  0.00000000000E+00 0.  1.
          1   -1    0    0  501    0  0.00000000000E+00 -0.00000000000E+00 -0.60310089637E+03  0.60310089637E+03  0.00000000000E+00 0. -1.
         23    2    1    2    0    0  0.44040580196E+02  0.21504983995E+02 -0.14432838219E+03  0.17833545799E+03  0.92578705057E+02 0.  0.
         23    2    1    2    0    0 -0.44040580196E+02 -0.21504983995E+02 -0.43606793807E+03  0.44747001448E+03  0.87590697016E+02 0.  0.
          5    1    4    4  502    0 -0.69303322821E+02 -0.46419768562E+01 -0.30632701914E+03  0.31413823575E+03  0.47000000000E+01 0. -1.
         -5    1    4    4    0  502  0.25262742625E+02 -0.16863007138E+02 -0.12974091893E+03  0.13333177873E+03  0.47000000000E+01 0.  1.
          5    1    3    3  503    0 -0.21302522324E+02 -0.76603375644E+01 -0.75414760772E+02  0.78879365941E+02  0.47000000000E+01 0. -1.
         -5    1    3    3    0  503  0.65343102520E+02  0.29165321559E+02 -0.68913621418E+02  0.99456092048E+02  0.47000000000E+01 0.  1.
<mgrwt>
<rscale>  0 0.10363847E+03</rscale>
<asrwt>0</asrwt>
<pdfrwt beam="1">  1        1 0.92784765E-01 0.10475139E+03</pdfrwt>
<pdfrwt beam="2">  1       -1 0.34930113E-02 0.10475139E+03</pdfrwt>
<totfact> 0.98573469E+03</totfact>
</mgrwt>
</event>
<event>
 8    1  0.9456677E-004  0.9564041E+02  0.7546771E-02  0.1290021E+00
         -2   -1    0    0    0  501 -0.00000000000E+00  0.00000000000E+00  0.12854066163E+03  0.12854066163E+03  0.00000000000E+00 0.  1.
          2   -1    0    0  501    0  0.00000000000E+00 -0.00000000000E+00 -0.20324150377E+03  0.20324150377E+03  0.00000000000E+00 0. -1.
         23    2    1    2    0    0 -0.24814441123E+02 -0.95168024949E+01  0.96604440163E+02  0.13558688643E+03  0.91351299358E+02 0.  0.
         23    2    1    2    0    0  0.24814441123E+02  0.95168024949E+01 -0.17130528230E+03  0.19619527897E+03  0.91873618232E+02 0.  0.
          5    1    4    4  502    0  0.11299248226E+02  0.40020569913E+02 -0.15136468840E+03  0.15704355422E+03  0.47000000000E+01 0. -1.
         -5    1    4    4    0  502  0.13515192897E+02 -0.30503767418E+02 -0.19940593899E+02  0.39151724749E+02  0.47000000000E+01 0.  1.
          5    1    3    3  503    0 -0.41511609544E+02  0.28888285228E+02  0.38138591672E+02  0.63516839697E+02  0.47000000000E+01 0. -1.
         -5    1    3    3    0  503  0.16697168421E+02 -0.38405087722E+02  0.58465848491E+02  0.72070046733E+02  0.47000000000E+01 0.  1.
<mgrwt>
<rscale>  0 0.95514752E+02</rscale>
<asrwt>0</asrwt>
<pdfrwt beam="1">  1        2 0.31267924E-01 0.95640409E+02</pdfrwt>
<pdfrwt beam="2">  1       -2 0.19775486E-01 0.95640409E+02</pdfrwt>
<totfact> 0.33911895E+03</totfact>
</mgrwt>
</event>
<event>
 8    1  0.9456677E-004  0.2022697E+03  0.7546771E-02  0.1148042E+00
          1   -1    0    0  501    0  0.00000000000E+00  0.00000000000E+00  0.14219709962E+03  0.14219709962E+03  0.00000000000E+00 0. -1.
         -1   -1    0    0    0  501 -0.00000000000E+00 -0.00000000000E+00 -0.51181660412E+03  0.51181660412E+03  0.00000000000E+00 0.  1.
         23    2    1    2    0    0 -0.18016274289E+03  0.19058641152E+02 -0.40210918768E+03  0.45011645934E+03  0.89951000136E+02 0.  0.
         23    2    1    2    0    0  0.18016274289E+03 -0.19058641152E+02  0.32489683177E+02  0.20389724439E+03  0.87730616275E+02 0.  0.
          5    1    3    3  502    0 -0.43828760908E+02  0.16501128080E+02 -0.35537798758E+02  0.58976882346E+02  0.47000000000E+01 0. -1.
         -5    1    3    3    0  502 -0.13633398198E+03  0.25575130720E+01 -0.36657138892E+03  0.39113957699E+03  0.47000000000E+01 0.  1.
          5    1    4    4  503    0  0.14564392686E+03 -0.34762546065E+02  0.54953973258E+02  0.15957010126E+03  0.47000000000E+01 0. -1.
         -5    1    4    4    0  503  0.34518816028E+02  0.15703904914E+02 -0.22464290081E+02  0.44327143134E+02  0.47000000000E+01 0.  1.
<mgrwt>
<rscale>  0 0.20202485E+03</rscale>
<asrwt>0</asrwt>
<pdfrwt beam="1">  1        1 0.21876477E-01 0.20226969E+03</pdfrwt>
<pdfrwt beam="2">  1       -1 0.78741016E-01 0.20226969E+03</pdfrwt>
<totfact> 0.38552959E+02</totfact>
</mgrwt>
</event>
<event>
 8    1  0.9456677E-004  0.3224806E+03  0.7546771E-02  0.1074648E+00
          2   -1    0    0  501    0  0.00000000000E+00  0.00000000000E+00  0.58239908166E+03  0.58239908166E+03  0.00000000000E+00 0. -1.
         -2   -1    0    0    0  501 -0.00000000000E+00 -0.00000000000E+00 -0.17841379377E+03  0.17841379377E+03  0.00000000000E+00 0.  1.
         23    2    1    2    0    0 -0.27651118690E+03  0.13681271081E+03  0.22190312955E+03  0.39047837454E+03  0.89756380066E+02 0.  0.
         23    2    1    2    0    0  0.27651118690E+03 -0.13681271081E+03  0.18208215834E+03  0.37033450089E+03  0.93901948054E+02 0.  0.
          5    1    3    3  502    0 -0.29668430196E+02  0.37542059202E+02  0.67357008637E+02  0.82756743362E+02  0.47000000000E+01 0. -1.
         -5    1    3    3    0  502 -0.24684275670E+03  0.99270651604E+02  0.15454612091E+03  0.30772163118E+03  0.47000000000E+01 0.  1.
          5    1    4    4  503    0  0.26078290991E+03 -0.10813868795E+03  0.18436483601E+03  0.33721533875E+03  0.47000000000E+01 0. -1.
         -5    1    4    4    0  503  0.15728276991E+02 -0.28674022860E+02 -0.22826776631E+01  0.33119162148E+02  0.47000000000E+01 0.  1.
<mgrwt>
<rscale>  0 0.32218452E+03</rscale>
<asrwt>0</asrwt>
<pdfrwt beam="1">  1        2 0.89599857E-01 0.32248059E+03</pdfrwt>
<pdfrwt beam="2">  1       -2 0.27448276E-01 0.32248059E+03</pdfrwt>
<totfact> 0.62995794E+02</totfact>
</mgrwt>
</event>
<event>
 8    1  0.9456677E-004  0.9090873E+02  0.7546771E-02  0.1309150E+00
         -1   -1    0    0    0  501 -0.00000000000E+00  0.00000000000E+00  0.15751259156E+02  0.15751259156E+02  0.00000000000E+00 0.  1.
          1   -1    0    0  501    0  0.00000000000E+00 -0.00000000000E+00 -0.51512024448E+03  0.51512024448E+03  0.00000000000E+00 0. -1.
         23    2    1    2    0    0  0.17062937533E+02 -0.13823186576E+02 -0.35935058901E+03  0.37067134050E+03  0.88216622678E+02 0.  0.
         23    2    1    2    0    0 -0.17062937533E+02  0.13823186576E+02 -0.14001839631E+03  0.16020016314E+03  0.74677417202E+02 0.  0.
          5    1    4    4  502    0 -0.57698907454E+01 -0.29386482355E+02 -0.77556677951E+02  0.83270554695E+02  0.47000000000E+01 0. -1.
         -5    1    3    3    0  503 -0.23373517904E+02  0.24183830838E+02 -0.10750584109E+03  0.11274207236E+03  0.47000000000E+01 0.  1.
          5    1    3    3  503    0  0.40436455437E+02 -0.38007017414E+02 -0.25184474793E+03  0.25792926813E+03  0.47000000000E+01 0. -1.
         -5    1    4    4    0  502 -0.11293046788E+02  0.43209668931E+02 -0.62461718356E+02  0.76929608441E+02  0.47000000000E+01 0.  1.
<mgrwt>
<rscale>  0 0.87448784E+02</rscale>
<asrwt>0</asrwt>
<pdfrwt beam="1">  1        1 0.79249250E-01 0.90908728E+02</pdfrwt>
<pdfrwt beam="2">  1       -1 0.24232712E-02 0.90908728E+02</pdfrwt>
<totfact> 0.20312782E+04</totfact>
</mgrwt>
</event>
<event>
 8    1  0.9456677E-004  0.1099972E+03  0.7546771E-02  0.1263495E+00
          1   -1    0    0  501    0  0.00000000000E+00  0.00000000000E+00  0.12921753266E+04  0.12921753266E+04  0.00000000000E+00 0. -1.
         -1   -1    0    0    0  501 -0.00000000000E+00 -0.00000000000E+00 -0.11477245446E+02  0.11477245446E+02  0.00000000000E+00 0.  1.
         23    2    1    2    0    0 -0.48880291715E+02 -0.10535110831E+02  0.31447269622E+03  0.33118617974E+03  0.91054585307E+02 0.  0.
         23    2    1    2    0    0  0.48880291715E+02  0.10535110831E+02  0.96622538492E+03  0.97246639229E+03  0.97975089654E+02 0.  0.
          5    1    3    3  502    0 -0.21749931374E+02 -0.50283451600E+02  0.15039600127E+03  0.16013285802E+03  0.47000000000E+01 0. -1.
         -5    1    3    3    0  502 -0.27130360341E+02  0.39748340770E+02  0.16407669495E+03  0.17105332172E+03  0.47000000000E+01 0.  1.
          5    1    4    4  503    0 -0.16959120216E+02 -0.28362398853E+02  0.28981936838E+03  0.29173514309E+03  0.47000000000E+01 0. -1.
         -5    1    4    4    0  503  0.65839411931E+02  0.38897509683E+02  0.67640601653E+03  0.68073124919E+03  0.47000000000E+01 0.  1.
<mgrwt>
<rscale>  0 0.10843514E+03</rscale>
<asrwt>0</asrwt>
<pdfrwt beam="1">  1        1 0.19879609E+00 0.10999723E+03</pdfrwt>
<pdfrwt beam="2">  1       -1 0.17657311E-02 0.10999723E+03</pdfrwt>
<totfact> 0.78343441E+03</totfact>
</mgrwt>
</event>
<event>
 8    1  0.9456677E-004  0.1248747E+03  0.7546771E-02  0.1236025E+00
         -1   -1    0    0    0  501 -0.00000000000E+00  0.00000000000E+00  0.29313581319E+03  0.29313581319E+03  0.00000000000E+00 0.  1.
          1   -1    0    0  501    0  0.00000000000E+00 -0.00000000000E+00 -0.17513327409E+03  0.17513327409E+03  0.00000000000E+00 0. -1.
         23    2    1    2    0    0  0.43745619789E+02  0.73463882561E+02  0.25515630304E+03  0.28407468638E+03  0.91011357346E+02 0.  0.
         23    2    1    2    0    0 -0.43745619789E+02 -0.73463882561E+02 -0.13715376395E+03  0.18419440090E+03  0.88350444627E+02 0.  0.
          5    1    4    4  502    0  0.25832577121E+01 -0.40378220122E+02 -0.11655945648E+03  0.12347174080E+03  0.47000000000E+01 0. -1.
         -5    1    3    3    0  503  0.17585534371E+01  0.54955889152E+02  0.21790887311E+03  0.22478792059E+03  0.47000000000E+01 0.  1.
          5    1    3    3  503    0  0.41987066352E+02  0.18507993408E+02  0.37247429931E+02  0.59286765786E+02  0.47000000000E+01 0. -1.
         -5    1    4    4    0  502 -0.46328877501E+02 -0.33085662439E+02 -0.20594307465E+02  0.60722660099E+02  0.47000000000E+01 0.  1.
<mgrwt>
<rscale>  0 0.12439042E+03</rscale>
<asrwt>0</asrwt>
<pdfrwt beam="1">  1        1 0.26943581E-01 0.12487469E+03</pdfrwt>
<pdfrwt beam="2">  1       -1 0.45097818E-01 0.12487469E+03</pdfrwt>
<totfact> 0.85674026E+02</totfact>
</mgrwt>
</event>
<event>
 8    1  0.9456677E-004  0.1181205E+03  0.7546771E-02  0.1248191E+00
         -1   -1    0    0    0  501 -0.00000000000E+00  0.00000000000E+00  0.29983765264E+02  0.29983765264E+02  0.00000000000E+00 0.  1.
          1   -1    0    0  501    0  0.00000000000E+00 -0.00000000000E+00 -0.45155920470E+03  0.45155920470E+03  0.00000000000E+00 0. -1.
         23    2    1    2    0    0  0.47305875619E+02  0.52972132597E+02 -0.22935840755E+03  0.25593304947E+03  0.88614637595E+02 0.  0.
         23    2    1    2    0    0 -0.47305875619E+02 -0.52972132597E+02 -0.19221703188E+03  0.22560992049E+03  0.94385148085E+02 0.  0.
          5    1    4    4  502    0  0.22166758691E+02  0.94998044056E+01 -0.39470097521E+02  0.46492903469E+02  0.47000000000E+01 0. -1.
         -5    1    3    3    0  503  0.53275200096E+00  0.64872088061E+02 -0.12864399315E+03  0.14415283073E+03  0.47000000000E+01 0.  1.
          5    1    3    3  503    0  0.46773123618E+02 -0.11899955464E+02 -0.10071441440E+03  0.11178021874E+03  0.47000000000E+01 0. -1.
         -5    1    4    4    0  502 -0.69472634310E+02 -0.62471937002E+02 -0.15274693436E+03  0.17911701702E+03  0.47000000000E+01 0.  1.
<mgrwt>
<rscale>  0 0.11696412E+03</rscale>
<asrwt>0</asrwt>
<pdfrwt beam="1">  1        1 0.69470642E-01 0.11812048E+03</pdfrwt>
<pdfrwt beam="2">  1       -1 0.46128873E-02 0.11812048E+03</pdfrwt>
<totfact> 0.96734370E+03</totfact>
</mgrwt>
</event>
<event>
 8    1  0.9456677E-004  0.9358618E+02  0.7546771E-02  0.1295231E+00
          1   -1    0    0  501    0  0.00000000000E+00  0.00000000000E+00  0.46980250182E+03  0.46980250182E+03  0.00000000000E+00 0. -1.
         -1   -1    0    0    0  501 -0.00000000000E+00 -0.00000000000E+00 -0.21355303541E+02  0.21355303541E+02  0.00000000000E+00 0.  1.
         23    2    1    2    0    0 -0.11142810523E+02  0.53082094173E+01  0.31776292384E+03  0.33125767826E+03  0.92768714133E+02 0.  0.
         23    2    1    2    0    0  0.11142810523E+02 -0.53082094173E+01  0.13068427444E+03  0.15990012710E+03  0.91308990516E+02 0.  0.
          5    1    4    4  502    0  0.20543384575E+01 -0.27044178153E+02  0.51355595906E+00  0.27531102742E+02  0.47000000000E+01 0. -1.
         -5    1    3    3    0  503  0.20937724417E+02  0.20319175896E+01  0.13890422220E+02  0.25642753797E+02  0.47000000000E+01 0.  1.
          5    1    3    3  503    0 -0.32080534941E+02  0.32762918277E+01  0.30387250162E+03  0.30561492446E+03  0.47000000000E+01 0. -1.
         -5    1    4    4    0  502  0.90884720660E+01  0.21735968735E+02  0.13017071848E+03  0.13236902436E+03  0.47000000000E+01 0.  1.
<mgrwt>
<rscale>  0 0.93222374E+02</rscale>
<asrwt>0</asrwt>
<pdfrwt beam="1">  1        1 0.72277300E-01 0.93586183E+02</pdfrwt>
<pdfrwt beam="2">  1       -1 0.32854317E-02 0.93586183E+02</pdfrwt>
<totfact> 0.14792521E+04</totfact>
</mgrwt>
</event>
<event>
 8    1  0.9456677E-004  0.9961935E+02  0.7546771E-02  0.1283064E+00
          1   -1    0    0  501    0  0.00000000000E+00  0.00000000000E+00  0.66009355650E+02  0.66009355650E+02  0.00000000000E+00 0. -1.
         -1   -1    0    0    0  501 -0.00000000000E+00 -0.00000000000E+00 -0.14491069196E+03  0.14491069196E+03  0.00000000000E+00 0.  1.
         23    2    1    2    0    0 -0.17038486531E+02 -0.29196976598E+02 -0.41389653193E+02  0.10787547964E+03  0.93708282724E+02 0.  0.
         23    2    1    2    0    0  0.17038486531E+02  0.29196976598E+02 -0.37511683115E+02  0.10304456796E+03  0.89823622456E+02 0.  0.
          5    1    4    4  502    0 -0.70494484166E+01  0.29863594125E+02  0.22411458325E+02  0.38286974826E+02  0.47000000000E+01 0. -1.
         -5    1    4    4    0  502  0.24087934948E+02 -0.66661752689E+00 -0.59923141440E+02  0.64757593138E+02  0.47000000000E+01 0.  1.
          5    1    3    3  503    0  0.89280019901E+01  0.19684922649E+02 -0.47097276951E+02  0.52033151888E+02  0.47000000000E+01 0. -1.
         -5    1    3    3    0  503 -0.25966488521E+02 -0.48881899248E+02  0.57076237576E+01  0.55842327755E+02  0.47000000000E+01 0.  1.
<mgrwt>
<rscale>  0 0.98695300E+02</rscale>
<asrwt>0</asrwt>
<pdfrwt beam="1">  1        1 0.10155286E-01 0.99619354E+02</pdfrwt>
<pdfrwt beam="2">  1       -1 0.22293953E-01 0.99619354E+02</pdfrwt>
<totfact> 0.96851506E+03</totfact>
</mgrwt>
</event>
<event>
 8    1  0.9456677E-004  0.9434274E+02  0.7546771E-02  0.1292714E+00
          3   -1    0    0  501    0  0.00000000000E+00  0.00000000000E+00  0.38850778402E+03  0.38850778402E+03  0.00000000000E+00 0. -1.
         -3   -1    0    0    0  501 -0.00000000000E+00 -0.00000000000E+00 -0.22910904405E+02  0.22910904405E+02  0.00000000000E+00 0.  1.
         23    2    1    2    0    0  0.21783598013E+02 -0.98985992658E+01  0.17639855145E+03  0.20004250018E+03  0.91258125755E+02 0.  0.
         23    2    1    2    0    0 -0.21783598013E+02  0.98985992658E+01  0.18919832816E+03  0.21137618824E+03  0.91166760196E+02 0.  0.
          5    1    4    4  502    0 -0.57378047731E+02  0.87442816685E+01  0.11219179235E+03  0.12640328751E+03  0.47000000000E+01 0. -1.
         -5    1    3    3    0  503  0.40726347480E+02  0.19947615558E+02  0.14674113351E+03  0.15366064236E+03  0.47000000000E+01 0.  1.
          5    1    3    3  503    0 -0.18942749467E+02 -0.29846214824E+02  0.29657417939E+02  0.46381857827E+02  0.47000000000E+01 0. -1.
         -5    1    4    4    0  502  0.35594449718E+02  0.11543175973E+01  0.77006535815E+02  0.84972900727E+02  0.47000000000E+01 0.  1.
<mgrwt>
<rscale>  0 0.94320640E+02</rscale>
<asrwt>0</asrwt>
<pdfrwt beam="1">  1        3 0.59770423E-01 0.94342742E+02</pdfrwt>
<pdfrwt beam="2">  1       -3 0.35247548E-02 0.94342742E+02</pdfrwt>
<totfact> 0.23500072E+03</totfact>
</mgrwt>
</event>
<event>
 8    1  0.9456677E-004  0.9767286E+02  0.7546771E-02  0.1285825E+00
          1   -1    0    0  501    0  0.00000000000E+00  0.00000000000E+00  0.64991210913E+03  0.64991210913E+03  0.00000000000E+00 0. -1.
         -1   -1    0    0    0  501 -0.00000000000E+00 -0.00000000000E+00 -0.21015543253E+02  0.21015543253E+02  0.00000000000E+00 0.  1.
         23    2    1    2    0    0  0.29400970906E+02  0.22036726910E+02  0.50200944663E+03  0.51142298799E+03  0.90498363034E+02 0.  0.
         23    2    1    2    0    0 -0.29400970906E+02 -0.22036726910E+02  0.12688711924E+03  0.15950466439E+03  0.89394421023E+02 0.  0.
          5    1    4    4  502    0  0.25348672550E+02 -0.41998638073E+01  0.79916016839E+01  0.27315741863E+02  0.47000000000E+01 0. -1.
         -5    1    3    3    0  503 -0.14327495330E+02 -0.23086692789E+02  0.77433061428E+02  0.82196359460E+02  0.47000000000E+01 0.  1.
          5    1    3    3  503    0  0.43728466236E+02  0.45123419699E+02  0.42457638521E+03  0.42922662853E+03  0.47000000000E+01 0. -1.
         -5    1    4    4    0  502 -0.54749643456E+02 -0.17836863103E+02  0.11889551756E+03  0.13218892253E+03  0.47000000000E+01 0.  1.
<mgrwt>
<rscale>  0 0.97416364E+02</rscale>
<asrwt>0</asrwt>
<pdfrwt beam="1">  1        1 0.99986463E-01 0.97672863E+02</pdfrwt>
<pdfrwt beam="2">  1       -1 0.32331610E-02 0.97672863E+02</pdfrwt>
<totfact> 0.99064657E+03</totfact>
</mgrwt>
</event>
<event>
 8    1  0.9456677E-004  0.1072827E+03  0.7546771E-02  0.1266198E+00
          1   -1    0    0  501    0  0.00000000000E+00  0.00000000000E+00  0.22653658415E+03  0.22653658415E+03  0.00000000000E+00 0. -1.
         -1   -1    0    0    0  501 -0.00000000000E+00 -0.00000000000E+00 -0.74456891781E+02  0.74456891781E+02  0.00000000000E+00 0.  1.
         23    2    1    2    0    0  0.45858339683E+02 -0.33127653827E+02 -0.94188753066E+01  0.10769540959E+03  0.91154578978E+02 0.  0.
         23    2    1    2    0    0 -0.45858339683E+02  0.33127653827E+02  0.16149856767E+03  0.19329806634E+03  0.89899534605E+02 0.  0.
          5    1    4    4  502    0 -0.29957784894E+02 -0.26386146321E+02  0.91470500769E+02  0.99913162818E+02  0.47000000000E+01 0. -1.
         -5    1    4    4    0  502 -0.15900554789E+02  0.59513800148E+02  0.70028066904E+02  0.93384903518E+02  0.47000000000E+01 0.  1.
          5    1    3    3  503    0 -0.21592708540E+02  0.10854289981E+02  0.65337521064E+01  0.25472349513E+02  0.47000000000E+01 0. -1.
         -5    1    3    3    0  503  0.67451048223E+02 -0.43981943808E+02 -0.15952627413E+02  0.82223060080E+02  0.47000000000E+01 0.  1.
<mgrwt>
<rscale>  0 0.10701567E+03</rscale>
<asrwt>0</asrwt>
<pdfrwt beam="1">  1        1 0.34851782E-01 0.10728274E+03</pdfrwt>
<pdfrwt beam="2">  1       -1 0.11454907E-01 0.10728274E+03</pdfrwt>
<totfact> 0.57923440E+03</totfact>
</mgrwt>
</event>
<event>
 8    1  0.9456677E-004  0.1460206E+03  0.7546771E-02  0.1206116E+00
         -1   -1    0    0    0  501 -0.00000000000E+00  0.00000000000E+00  0.79485846446E+02  0.79485846446E+02  0.00000000000E+00 0.  1.
          1   -1    0    0  501    0  0.00000000000E+00 -0.00000000000E+00 -0.26557537408E+03  0.26557537408E+03  0.00000000000E+00 0. -1.
         23    2    1    2    0    0 -0.32462688014E+02 -0.10879917589E+03 -0.82478190453E+02  0.16770408084E+03  0.91820041625E+02 0.  0.
         23    2    1    2    0    0  0.32462688014E+02  0.10879917589E+03 -0.10361133718E+03  0.17735713968E+03  0.88482535095E+02 0.  0.
          5    1    4    4  502    0  0.10792799559E+02  0.11896767930E+03 -0.85657752791E+02  0.14706846655E+03  0.47000000000E+01 0. -1.
         -5    1    4    4    0  502  0.21669888456E+02 -0.10168503416E+02 -0.17953584391E+02  0.30288673129E+02  0.47000000000E+01 0.  1.
          5    1    3    3  503    0  0.27082938329E+02 -0.60867326601E+02 -0.54387101414E+02  0.86129923931E+02  0.47000000000E+01 0. -1.
         -5    1    3    3    0  503 -0.59545626343E+02 -0.47931849287E+02 -0.28091089039E+02  0.81574156913E+02  0.47000000000E+01 0.  1.
<mgrwt>
<rscale>  0 0.14549896E+03</rscale>
<asrwt>0</asrwt>
<pdfrwt beam="1">  1        1 0.40857749E-01 0.14602057E+03</pdfrwt>
<pdfrwt beam="2">  1       -1 0.12228592E-01 0.14602057E+03</pdfrwt>
<totfact> 0.43870799E+03</totfact>
</mgrwt>
</event>
<event>
 7    1  0.9456677E-004  0.2420982E+03  0.7546771E-02  0.1136555E+00
         -1   -1    0    0    0  501 -0.00000000000E+00  0.00000000000E+00  0.11902441256E+04  0.11902441256E+04  0.00000000000E+00 0.  1.
          1   -1    0    0  501    0  0.00000000000E+00 -0.00000000000E+00 -0.49430207205E+02  0.49430207205E+02  0.00000000000E+00 0. -1.
         23    2    1    2    0    0  0.12615107507E+03 -0.46970907164E+01  0.13559029275E+03  0.20570814351E+03  0.89414520166E+02 0.  0.
          5    1    1    2  502    0  0.53086530624E+02 -0.27367829462E+02  0.25739118108E+03  0.26427161770E+03  0.47000000000E+01 0. -1.
         -5    1    1    2    0  502 -0.17923760569E+03  0.32064920179E+02  0.74783244458E+03  0.76969457161E+03  0.47000000000E+01 0.  1.
          5    1    3    3  503    0  0.11309723824E+03  0.17647681917E+02  0.68101750429E+02  0.13327552058E+03  0.47000000000E+01 0. -1.
         -5    1    3    3    0  503  0.13053836828E+02 -0.22344772634E+02  0.67488542320E+02  0.72432622929E+02  0.47000000000E+01 0.  1.
<mgrwt>
<rscale>  0 0.21645322E+03</rscale>
<asrwt>0</asrwt>
<pdfrwt beam="1">  1        1 0.76046482E-02 0.24209821E+03</pdfrwt>
<pdfrwt beam="2">  1       -1 0.18311446E+00 0.24209821E+03</pdfrwt>
<totfact> 0.20335844E+02</totfact>
</mgrwt>
</event>
<event>
 8    1  0.9456677E-004  0.9898930E+02  0.7546771E-02  0.1282795E+00
         -1   -1    0    0    0  501 -0.00000000000E+00  0.00000000000E+00  0.44054115749E+02  0.44054115749E+02  0.00000000000E+00 0.  1.
          1   -1    0    0  501    0  0.00000000000E+00 -0.00000000000E+00 -0.22483643726E+03  0.22483643726E+03  0.00000000000E+00 0. -1.
         23    2    1    2    0    0  0.30812181291E+02  0.16359985925E+02 -0.72950736990E+02  0.12296622153E+03  0.92638231604E+02 0.  0.
         23    2    1    2    0    0 -0.30812181291E+02 -0.16359985925E+02 -0.10783158452E+03  0.14592433148E+03  0.91919640132E+02 0.  0.
          5    1    4    4  502    0 -0.61399964795E+02 -0.24228798276E+02 -0.68175332618E+02  0.95010295865E+02  0.47000000000E+01 0. -1.
         -5    1    4    4    0  502  0.30587783504E+02  0.78688123513E+01 -0.39656251903E+02  0.50914035614E+02  0.47000000000E+01 0.  1.
          5    1    3    3  503    0  0.58015728848E+01  0.53151739199E+02 -0.33129006352E+02  0.63074453542E+02  0.47000000000E+01 0. -1.
         -5    1    3    3    0  503  0.25010608406E+02 -0.36791753274E+02 -0.39821730638E+02  0.59891767988E+02  0.47000000000E+01 0.  1.
<mgrwt>
<rscale>  0 0.98820831E+02</rscale>
<asrwt>0</asrwt>
<pdfrwt beam="1">  1        1 0.34590221E-01 0.98989300E+02</pdfrwt>
<pdfrwt beam="2">  1       -1 0.67775562E-02 0.98989300E+02</pdfrwt>
<totfact> 0.12797332E+04</totfact>
</mgrwt>
</event>
<event>
 8    1  0.9456677E-004  0.1013499E+03  0.7546771E-02  0.1279970E+00
         -1   -1    0    0    0  501 -0.00000000000E+00  0.00000000000E+00  0.26035386617E+02  0.26035386617E+02  0.00000000000E+00 0.  1.
          1   -1    0    0  501    0  0.00000000000E+00 -0.00000000000E+00 -0.42793389811E+03  0.42793389811E+03  0.00000000000E+00 0. -1.
         23    2    1    2    0    0  0.34646379006E+02  0.24804584284E+00 -0.28384009564E+03  0.30139177348E+03  0.95243730104E+02 0.  0.
         23    2    1    2    0    0 -0.34646379006E+02 -0.24804584284E+00 -0.11805841585E+03  0.15257751124E+03  0.90231226742E+02 0.  0.
          5    1    3    3  502    0 -0.12247755566E+02 -0.37136185183E+02 -0.14109597748E+03  0.14648982431E+03  0.47000000000E+01 0. -1.
         -5    1    4    4    0  503 -0.45032898328E-01  0.39935298699E+02 -0.32025171147E+02  0.51405560955E+02  0.47000000000E+01 0.  1.
          5    1    4    4  503    0 -0.34601346107E+02 -0.40183344542E+02 -0.86033244703E+02  0.10117195029E+03  0.47000000000E+01 0. -1.
         -5    1    3    3    0  502  0.46894134571E+02  0.37384231026E+02 -0.14274411816E+03  0.15490194917E+03  0.47000000000E+01 0.  1.
<mgrwt>
<rscale>  0 0.10015510E+03</rscale>
<asrwt>0</asrwt>
<pdfrwt beam="1">  1        1 0.65835984E-01 0.10134990E+03</pdfrwt>
<pdfrwt beam="2">  1       -1 0.40054441E-02 0.10134990E+03</pdfrwt>
<totfact> 0.12575393E+04</totfact>
</mgrwt>
</event>
<event>
 8    1  0.9456677E-004  0.9996366E+02  0.7546771E-02  0.1280553E+00
          2   -1    0    0  501    0  0.00000000000E+00  0.00000000000E+00  0.10234083244E+03  0.10234083244E+03  0.00000000000E+00 0.  1.
         -2   -1    0    0    0  501 -0.00000000000E+00 -0.00000000000E+00 -0.97414259443E+02  0.97414259443E+02  0.00000000000E+00 0. -1.
         23    2    1    2    0    0  0.37392339446E+02  0.16541934461E+02 -0.85766966460E+00  0.99967338451E+02  0.91219024961E+02 0.  0.
         23    2    1    2    0    0 -0.37392339446E+02 -0.16541934461E+02  0.57842426647E+01  0.99787753435E+02  0.90842256838E+02 0.  0.
          5    1    3    3  502    0 -0.15918612160E+02  0.29913829487E+02  0.21544637460E+02  0.40428960053E+02  0.47000000000E+01 0. -1.
         -5    1    3    3    0  502  0.53310951606E+02 -0.13371895026E+02 -0.22402307125E+02  0.59538378398E+02  0.47000000000E+01 0.  1.
          5    1    4    4  503    0 -0.37480204654E+02  0.18064280655E+02 -0.28656517673E+02  0.50738249690E+02  0.47000000000E+01 0. -1.
         -5    1    4    4    0  503  0.87865208353E-01 -0.34606215116E+02  0.34440760338E+02  0.49049503744E+02  0.47000000000E+01 0.  1.
<mgrwt>
<rscale>  0 0.99877626E+02</rscale>
<asrwt>0</asrwt>
<pdfrwt beam="1">  1        2 0.15744743E-01 0.99963659E+02</pdfrwt>
<pdfrwt beam="2">  1       -2 0.14986809E-01 0.99963659E+02</pdfrwt>
<totfact> 0.11486432E+04</totfact>
</mgrwt>
</event>
<event>
 8    1  0.9456677E-004  0.9647531E+02  0.7546771E-02  0.1289752E+00
         -3   -1    0    0    0  501 -0.00000000000E+00  0.00000000000E+00  0.12762152730E+02  0.12762152730E+02  0.00000000000E+00 0.  1.
          3   -1    0    0  501    0  0.00000000000E+00 -0.00000000000E+00 -0.70828453387E+03  0.70828453387E+03  0.00000000000E+00 0. -1.
         23    2    1    2    0    0 -0.23341913969E+02 -0.19132537274E+02 -0.32726111249E+03  0.34118517003E+03  0.91632884760E+02 0.  0.
         23    2    1    2    0    0  0.23341913969E+02  0.19132537274E+02 -0.36826126865E+03  0.37986151657E+03  0.88133483161E+02 0.  0.
          5    1    3    3  502    0 -0.43967502107E+02  0.22431640061E+02 -0.18100421369E+03  0.18767241430E+03  0.47000000000E+01 0. -1.
         -5    1    3    3    0  502  0.20625588138E+02 -0.41564177335E+02 -0.14625689880E+03  0.15351275573E+03  0.47000000000E+01 0.  1.
          5    1    4    4  503    0 -0.16121002602E+02  0.37372867585E+02 -0.10013610298E+03  0.10819402514E+03  0.47000000000E+01 0. -1.
         -5    1    4    4    0  503  0.39462916571E+02 -0.18240330310E+02 -0.26812516567E+03  0.27166749143E+03  0.47000000000E+01 0.  1.
<mgrwt>
<rscale>  0 0.95635061E+02</rscale>
<asrwt>0</asrwt>
<pdfrwt beam="1">  1        3 0.10896682E+00 0.96475305E+02</pdfrwt>
<pdfrwt beam="2">  1       -3 0.19634086E-02 0.96475305E+02</pdfrwt>
<totfact> 0.15777600E+03</totfact>
</mgrwt>
</event>
<event>
 8    1  0.9456677E-004  0.1168290E+03  0.7546771E-02  0.1248574E+00
          3   -1    0    0  501    0  0.00000000000E+00  0.00000000000E+00  0.63868276263E+02  0.63868276263E+02  0.00000000000E+00 0. -1.
         -3   -1    0    0    0  501 -0.00000000000E+00 -0.00000000000E+00 -0.22008873049E+03  0.22008873049E+03  0.00000000000E+00 0.  1.
         23    2    1    2    0    0 -0.64662386207E+02  0.30251440265E+02 -0.10360525926E+03  0.15615076025E+03  0.92480464706E+02 0.  0.
         23    2    1    2    0    0  0.64662386207E+02 -0.30251440265E+02 -0.52615194971E+02  0.12780624650E+03  0.92030995191E+02 0.  0.
          5    1    4    4  502    0  0.27518422986E+02 -0.58693278051E+02 -0.12905690525E+02  0.66263197477E+02  0.47000000000E+01 0. -1.
         -5    1    4    4    0  502  0.37143963220E+02  0.28441837785E+02 -0.39709504445E+02  0.61543049028E+02  0.47000000000E+01 0.  1.
          5    1    3    3  503    0 -0.17213244182E+02 -0.32988679778E+02 -0.29992934612E+02  0.48023066285E+02  0.47000000000E+01 0. -1.
         -5    1    3    3    0  503 -0.47449142024E+02  0.63240120044E+02 -0.73612324644E+02  0.10812769396E+03  0.47000000000E+01 0.  1.
<mgrwt>
<rscale>  0 0.11674001E+03</rscale>
<asrwt>0</asrwt>
<pdfrwt beam="1">  1        3 0.98258887E-02 0.11682898E+03</pdfrwt>
<pdfrwt beam="2">  1       -3 0.33859805E-01 0.11682898E+03</pdfrwt>
<totfact> 0.14549056E+03</totfact>
</mgrwt>
</event>
<event>
 8    1  0.9456677E-004  0.1000244E+03  0.7546771E-02  0.1282784E+00
          3   -1    0    0  501    0  0.00000000000E+00  0.00000000000E+00  0.37381208686E+02  0.37381208686E+02  0.00000000000E+00 0. -1.
         -3   -1    0    0    0  501 -0.00000000000E+00 -0.00000000000E+00 -0.28411075689E+03  0.28411075689E+03  0.00000000000E+00 0.  1.
         23    2    1    2    0    0  0.12572866980E+02  0.80695183462E+01 -0.17730356254E+03  0.20357171398E+03  0.98902453614E+02 0.  0.
         23    2    1    2    0    0 -0.12572866980E+02 -0.80695183462E+01 -0.69425985658E+02  0.11792025160E+03  0.94138324509E+02 0.  0.
          5    1    3    3  502    0  0.76697344859E+01 -0.45273979786E+02 -0.86245054757E+02  0.97820537428E+02  0.47000000000E+01 0. -1.
         -5    1    3    3    0  502  0.49031324944E+01  0.53343498133E+02 -0.91058507785E+02  0.10575117655E+03  0.47000000000E+01 0.  1.
          5    1    4    4  503    0 -0.44495799758E+02  0.40475899854E+01 -0.54566534359E+01  0.45256206729E+02  0.47000000000E+01 0. -1.
         -5    1    4    4    0  503  0.31922932778E+02 -0.12117108332E+02 -0.63969332222E+02  0.72664044867E+02  0.47000000000E+01 0.  1.
<mgrwt>
<rscale>  0 0.98826071E+02</rscale>
<asrwt>0</asrwt>
<pdfrwt beam="1">  1        3 0.57509553E-02 0.10002444E+03</pdfrwt>
<pdfrwt beam="2">  1       -3 0.43709346E-01 0.10002444E+03</pdfrwt>
<totfact> 0.20605879E+03</totfact>
</mgrwt>
</event>
<event>
 8    1  0.9456677E-004  0.9258509E+02  0.7546771E-02  0.1299903E+00
          2   -1    0    0  501    0  0.00000000000E+00  0.00000000000E+00  0.48467023081E+02  0.48467023081E+02  0.00000000000E+00 0. -1.
         -2   -1    0    0    0  501 -0.00000000000E+00 -0.00000000000E+00 -0.23137297585E+03  0.23137297585E+03  0.00000000000E+00 0.  1.
         23    2    1    2    0    0  0.50170184594E+01  0.54523285063E+01 -0.19544422405E+02  0.94625488215E+02  0.92288136899E+02 0.  0.
         23    2    1    2    0    0 -0.50170184594E+01 -0.54523285063E+01 -0.16336153037E+03  0.18521451072E+03  0.86962790992E+02 0.  0.
          5    1    4    4  502    0 -0.41038271643E+01  0.36018043228E+02 -0.36485323328E+02  0.51646971390E+02  0.47000000000E+01 0. -1.
         -5    1    3    3    0  503  0.21821197154E+02 -0.11351589823E+02  0.30238332045E+02  0.39261558319E+02  0.47000000000E+01 0.  1.
          5    1    3    3  503    0 -0.16804178695E+02  0.16803918330E+02 -0.49782754451E+02  0.55363929896E+02  0.47000000000E+01 0. -1.
         -5    1    4    4    0  502 -0.91319129507E+00 -0.41470371735E+02 -0.12687620704E+03  0.13356753933E+03  0.47000000000E+01 0.  1.
<mgrwt>
<rscale>  0 0.91228768E+02</rscale>
<asrwt>0</asrwt>
<pdfrwt beam="1">  1        2 0.74564653E-02 0.92585088E+02</pdfrwt>
<pdfrwt beam="2">  1       -2 0.35595842E-01 0.92585088E+02</pdfrwt>
<totfact> 0.63399627E+03</totfact>
</mgrwt>
</event>
<event>
 7    1  0.9456677E-004  0.1546927E+03  0.7546771E-02  0.1214697E+00
          1   -1    0    0  501    0  0.00000000000E+00  0.00000000000E+00  0.10987563602E+03  0.10987563602E+03  0.00000000000E+00 0. -1.
         -1   -1    0    0    0  501 -0.00000000000E+00 -0.00000000000E+00 -0.23116302927E+03  0.23116302927E+03  0.00000000000E+00 0.  1.
         23    2    1    2    0    0  0.68767159665E+01  0.41033425922E+02  0.48054071354E+02  0.11167790852E+03  0.91824453234E+02 0.  0.
          5    1    1    2  502    0 -0.42422765553E+02  0.44593269697E+02 -0.62986572841E+02  0.88190980818E+02  0.47000000000E+01 0. -1.
         -5    1    3    3    0  503 -0.16612114766E+02  0.38278680586E+02 -0.14668663521E+02  0.44480101550E+02  0.47000000000E+01 0.  1.
          5    1    3    3  503    0  0.23488830733E+02  0.27547453366E+01  0.62722734875E+02  0.67197806968E+02  0.47000000000E+01 0. -1.
         -5    1    1    2    0  502  0.35546049587E+02 -0.85626695619E+02 -0.10635489176E+03  0.14116977596E+03  0.47000000000E+01 0.  1.
<mgrwt>
<rscale>  0 0.13898847E+03</rscale>
<asrwt>0</asrwt>
<pdfrwt beam="1">  1        1 0.16903944E-01 0.15469268E+03</pdfrwt>
<pdfrwt beam="2">  1       -1 0.35563543E-01 0.15469268E+03</pdfrwt>
<totfact> 0.23618208E+03</totfact>
</mgrwt>
</event>
<event>
 8    1  0.9456677E-004  0.9805138E+02  0.7546771E-02  0.1284575E+00
          2   -1    0    0  501    0  0.00000000000E+00  0.00000000000E+00  0.51151599558E+03  0.51151599558E+03  0.00000000000E+00 0. -1.
         -2   -1    0    0    0  501 -0.00000000000E+00 -0.00000000000E+00 -0.18750639915E+02  0.18750639915E+02  0.00000000000E+00 0.  1.
         23    2    1    2    0    0 -0.63988762681E+01 -0.30606346089E+02  0.24779704522E+03  0.26649099350E+03  0.92932125544E+02 0.  0.
         23    2    1    2    0    0  0.63988762681E+01  0.30606346089E+02  0.24496831045E+03  0.26377564200E+03  0.92684530263E+02 0.  0.
          5    1    4    4  502    0 -0.14812566345E+02  0.18201684819E+02  0.23598245420E+03  0.23719300610E+03  0.47000000000E+01 0. -1.
         -5    1    3    3    0  503 -0.13553366771E+02  0.24611826926E+02  0.15931640012E+03  0.16184326098E+03  0.47000000000E+01 0.  1.
          5    1    3    3  503    0  0.71544905025E+01 -0.55218173015E+02  0.88480645099E+02  0.10464773252E+03  0.47000000000E+01 0. -1.
         -5    1    4    4    0  502  0.21211442613E+02  0.12404661270E+02  0.89858562489E+01  0.26582635902E+02  0.47000000000E+01 0.  1.
<mgrwt>
<rscale>  0 0.97992673E+02</rscale>
<asrwt>0</asrwt>
<pdfrwt beam="1">  1        2 0.78694758E-01 0.98051384E+02</pdfrwt>
<pdfrwt beam="2">  1       -2 0.28847142E-02 0.98051384E+02</pdfrwt>
<totfact> 0.24735879E+04</totfact>
</mgrwt>
</event>
<event>
 8    1  0.9456677E-004  0.9474550E+02  0.7546771E-02  0.1292880E+00
          1   -1    0    0  501    0  0.00000000000E+00  0.00000000000E+00  0.11663650932E+03  0.11663650932E+03  0.00000000000E+00 0. -1.
         -1   -1    0    0    0  501 -0.00000000000E+00 -0.00000000000E+00 -0.36469657664E+03  0.36469657664E+03  0.00000000000E+00 0.  1.
         23    2    1    2    0    0  0.14433317679E+02 -0.20608473848E+01  0.90059018131E+02  0.13071854100E+03  0.93616998796E+02 0.  0.
         23    2    1    2    0    0 -0.14433317679E+02  0.20608473848E+01 -0.33811908545E+03  0.35061454496E+03  0.91615912610E+02 0.  0.
          5    1    3    3  502    0 -0.24365725699E+02  0.28325400741E+02  0.14430496488E+02  0.40327982157E+02  0.47000000000E+01 0. -1.
         -5    1    3    3    0  502  0.38799043378E+02 -0.30386248126E+02  0.75628521643E+02  0.90390558844E+02  0.47000000000E+01 0.  1.
          5    1    4    4  503    0  0.26448011017E+02  0.12925058288E+02 -0.25956926178E+03  0.26127542188E+03  0.47000000000E+01 0. -1.
         -5    1    4    4    0  503 -0.40881328696E+02 -0.10864210903E+02 -0.78549823673E+02  0.89339123085E+02  0.47000000000E+01 0.  1.
<mgrwt>
<rscale>  0 0.94247403E+02</rscale>
<asrwt>0</asrwt>
<pdfrwt beam="1">  1        1 0.17944078E-01 0.94745502E+02</pdfrwt>
<pdfrwt beam="2">  1       -1 0.56107166E-01 0.94745502E+02</pdfrwt>
<totfact> 0.95377396E+02</totfact>
</mgrwt>
</event>
<event>
 8    1  0.9456677E-004  0.9436338E+02  0.7546771E-02  0.1295514E+00
         -2   -1    0    0    0  501 -0.00000000000E+00  0.00000000000E+00  0.37916726778E+02  0.37916726778E+02  0.00000000000E+00 0.  1.
          2   -1    0    0  501    0  0.00000000000E+00 -0.00000000000E+00 -0.22271595004E+03  0.22271595004E+03  0.00000000000E+00 0. -1.
         23    2    1    2    0    0  0.47482947806E+01 -0.60532327397E+01 -0.93126058546E+02  0.13257794357E+03  0.94049244605E+02 0.  0.
         23    2    1    2    0    0 -0.47482947806E+01  0.60532327397E+01 -0.91673164715E+02  0.12805473325E+03  0.89077817936E+02 0.  0.
          5    1    3    3  502    0 -0.95239621108E+01  0.40291906911E+02 -0.24245875276E+02  0.48208879729E+02  0.47000000000E+01 0. -1.
         -5    1    3    3    0  502  0.14272256891E+02 -0.46345139650E+02 -0.68880183270E+02  0.84369063840E+02  0.47000000000E+01 0.  1.
          5    1    4    4  503    0  0.20894422211E+02  0.40495802659E+02 -0.53238669397E+02  0.70234840583E+02  0.47000000000E+01 0. -1.
         -5    1    4    4    0  503 -0.25642716992E+02 -0.34442569919E+02 -0.38434495318E+02  0.57819892664E+02  0.47000000000E+01 0.  1.
<mgrwt>
<rscale>  0 0.93099738E+02</rscale>
<asrwt>0</asrwt>
<pdfrwt beam="1">  1        2 0.34263992E-01 0.94363385E+02</pdfrwt>
<pdfrwt beam="2">  1       -2 0.58333426E-02 0.94363385E+02</pdfrwt>
<totfact> 0.20983085E+04</totfact>
</mgrwt>
</event>
<event>
 8    1  0.9456677E-004  0.1173992E+03  0.7546771E-02  0.1248737E+00
          2   -1    0    0  501    0  0.00000000000E+00  0.00000000000E+00  0.11745512390E+03  0.11745512390E+03  0.00000000000E+00 0. -1.
         -2   -1    0    0    0  501 -0.00000000000E+00 -0.00000000000E+00 -0.15324339512E+03  0.15324339512E+03  0.00000000000E+00 0.  1.
         23    2    1    2    0    0  0.32396859806E+02  0.61670676797E+02 -0.85882537261E+02  0.14305837748E+03  0.90758251736E+02 0.  0.
         23    2    1    2    0    0 -0.32396859806E+02 -0.61670676797E+02  0.50094266049E+02  0.12764014154E+03  0.94497308640E+02 0.  0.
          5    1    3    3  502    0 -0.95361122406E+00 -0.22786272686E+02 -0.14182947567E+02  0.27264805133E+02  0.47000000000E+01 0. -1.
         -5    1    4    4    0  503  0.13416070901E+02 -0.69157119809E+02  0.33180921711E+02  0.78011292415E+02  0.47000000000E+01 0.  1.
          5    1    4    4  503    0 -0.45812930708E+02  0.74864430123E+01  0.16913344338E+02  0.49628849127E+02  0.47000000000E+01 0. -1.
         -5    1    3    3    0  502  0.33350471030E+02  0.84456949483E+02 -0.71699589695E+02  0.11579357234E+03  0.47000000000E+01 0.  1.
<mgrwt>
<rscale>  0 0.11664492E+03</rscale>
<asrwt>0</asrwt>
<pdfrwt beam="1">  1        2 0.18070019E-01 0.11739919E+03</pdfrwt>
<pdfrwt beam="2">  1       -2 0.23575907E-01 0.11739919E+03</pdfrwt>
<totfact> 0.46611845E+03</totfact>
</mgrwt>
</event>
<event>
 8    1  0.9456677E-004  0.9263369E+02  0.7546771E-02  0.1298951E+00
          2   -1    0    0  501    0  0.00000000000E+00  0.00000000000E+00  0.27758450919E+03  0.27758450919E+03  0.00000000000E+00 0. -1.
         -2   -1    0    0    0  501 -0.00000000000E+00 -0.00000000000E+00 -0.29668048820E+02  0.29668048820E+02  0.00000000000E+00 0.  1.
         23    2    1    2    0    0 -0.14323462678E+02 -0.27572636824E+01  0.11983440049E+03  0.15146380523E+03  0.91478066586E+02 0.  0.
         23    2    1    2    0    0  0.14323462678E+02  0.27572636824E+01  0.12808205988E+03  0.15578875278E+03  0.87477753430E+02 0.  0.
          5    1    4    4  502    0 -0.23996927922E+02  0.31978119394E+02  0.56951109531E+02  0.69742179107E+02  0.47000000000E+01 0. -1.
         -5    1    4    4    0  502  0.38320390600E+02 -0.29220855712E+02  0.71130950346E+02  0.86046573676E+02  0.47000000000E+01 0.  1.
          5    1    3    3  503    0 -0.11426490413E+02  0.27949730286E+02  0.31968682154E+01  0.30725593121E+02  0.47000000000E+01 0. -1.
         -5    1    3    3    0  503 -0.28969722649E+01 -0.30706993969E+02  0.11663753228E+03  0.12073821211E+03  0.47000000000E+01 0.  1.
<mgrwt>
<rscale>  0 0.91630468E+02</rscale>
<asrwt>0</asrwt>
<pdfrwt beam="1">  1        2 0.42705307E-01 0.92633691E+02</pdfrwt>
<pdfrwt beam="2">  1       -2 0.45643154E-02 0.92633691E+02</pdfrwt>
<totfact> 0.23933050E+04</totfact>
</mgrwt>
</event>
<event>
 8    1  0.9456677E-004  0.9404514E+02  0.7546771E-02  0.1293691E+00
          2   -1    0    0  501    0  0.00000000000E+00  0.00000000000E+00  0.28254398098E+02  0.28254398098E+02  0.00000000000E+00 0. -1.
         -2   -1    0    0    0  501 -0.00000000000E+00 -0.00000000000E+00 -0.44902502345E+03  0.44902502345E+03  0.00000000000E+00 0.  1.
         23    2    1    2    0    0  0.22808679072E+02 -0.57906291230E+00 -0.34221759019E+03  0.35474343749E+03  0.90606049734E+02 0.  0.
         23    2    1    2    0    0 -0.22808679072E+02  0.57906291230E+00 -0.78553035160E+02  0.12253598406E+03  0.91235502422E+02 0.  0.
          5    1    3    3  502    0  0.26733426829E+02 -0.36645283377E+02 -0.10165692139E+03  0.11141711076E+03  0.47000000000E+01 0. -1.
         -5    1    3    3    0  502 -0.39247477564E+01  0.36066220465E+02 -0.24056066880E+03  0.24332632673E+03  0.47000000000E+01 0.  1.
          5    1    4    4  503    0 -0.78798475554E+01 -0.34549965056E+02 -0.75948645863E+00  0.35755543661E+02  0.47000000000E+01 0. -1.
         -5    1    4    4    0  503 -0.14928831517E+02  0.35129027968E+02 -0.77793548702E+02  0.86780440400E+02  0.47000000000E+01 0.  1.
<mgrwt>
<rscale>  0 0.93892135E+02</rscale>
<asrwt>0</asrwt>
<pdfrwt beam="1">  1        2 0.43468308E-02 0.94045138E+02</pdfrwt>
<pdfrwt beam="2">  1       -2 0.69080768E-01 0.94045138E+02</pdfrwt>
<totfact> 0.34421534E+03</totfact>
</mgrwt>
</event>
<event>
 8    1  0.9456677E-004  0.1558933E+03  0.7546771E-02  0.1193416E+00
         -2   -1    0    0    0  501 -0.00000000000E+00  0.00000000000E+00  0.22603048344E+03  0.22603048344E+03  0.00000000000E+00 0.  1.
          2   -1    0    0  501    0  0.00000000000E+00 -0.00000000000E+00 -0.30360623690E+03  0.30360623690E+03  0.00000000000E+00 0. -1.
         23    2    1    2    0    0 -0.10230671236E+03  0.73650313311E+02  0.17403777110E+03  0.23364899589E+03  0.91715186649E+02 0.  0.
         23    2    1    2    0    0  0.10230671236E+03 -0.73650313311E+02 -0.25161352456E+03  0.29598772446E+03  0.91696975100E+02 0.  0.
          5    1    4    4  502    0  0.92063727214E+02 -0.92310052476E+02 -0.18870291367E+03  0.22940740024E+03  0.47000000000E+01 0. -1.
         -5    1    4    4    0  502  0.10242985150E+02  0.18659739165E+02 -0.62910610894E+02  0.66580324222E+02  0.47000000000E+01 0.  1.
          5    1    3    3  503    0 -0.21256522205E+02  0.33448196027E+02  0.29033903068E+01  0.40014262819E+02  0.47000000000E+01 0. -1.
         -5    1    3    3    0  503 -0.81050190158E+02  0.40202117284E+02  0.17113438080E+03  0.19363473307E+03  0.47000000000E+01 0.  1.
<mgrwt>
<rscale>  0 0.15589058E+03</rscale>
<asrwt>0</asrwt>
<pdfrwt beam="1">  1        2 0.46708652E-01 0.15589326E+03</pdfrwt>
<pdfrwt beam="2">  1       -2 0.34773920E-01 0.15589326E+03</pdfrwt>
<totfact> 0.83565052E+02</totfact>
</mgrwt>
</event>
<event>
 8    1  0.9456677E-004  0.1165317E+03  0.7546771E-02  0.1249387E+00
         -1   -1    0    0    0  501 -0.00000000000E+00  0.00000000000E+00  0.27430082125E+03  0.27430082125E+03  0.00000000000E+00 0.  1.
          1   -1    0    0  501    0  0.00000000000E+00 -0.00000000000E+00 -0.54414097524E+02  0.54414097524E+02  0.00000000000E+00 0. -1.
         23    2    1    2    0    0  0.63571983103E+02 -0.33651481620E+02  0.58828787322E+02  0.13053910660E+03  0.91683220288E+02 0.  0.
         23    2    1    2    0    0 -0.63571983103E+02  0.33651481620E+02  0.16105793640E+03  0.19817581218E+03  0.90333683653E+02 0.  0.
          5    1    3    3  502    0  0.61833269376E+02  0.11107920354E+02  0.94472000700E+01  0.63703050834E+02  0.47000000000E+01 0. -1.
         -5    1    4    4    0  503 -0.34437321445E+02  0.23054219161E+02  0.16151808421E+03  0.16681608932E+03  0.47000000000E+01 0.  1.
          5    1    4    4  503    0 -0.29134661658E+02  0.10597262459E+02 -0.46014780658E+00  0.31359722855E+02  0.47000000000E+01 0. -1.
         -5    1    3    3    0  502  0.17387137273E+01 -0.44759401974E+02  0.49381587252E+02  0.66836055763E+02  0.47000000000E+01 0.  1.
<mgrwt>
<rscale>  0 0.11626608E+03</rscale>
<asrwt>0</asrwt>
<pdfrwt beam="1">  1        1 0.83713998E-02 0.11653168E+03</pdfrwt>
<pdfrwt beam="2">  1       -1 0.42200125E-01 0.11653168E+03</pdfrwt>
<totfact> 0.43392838E+03</totfact>
</mgrwt>
</event>
<event>
 8    1  0.9456677E-004  0.9890838E+02  0.7546771E-02  0.1294642E+00
          2   -1    0    0  501    0  0.00000000000E+00  0.00000000000E+00  0.72965509320E+03  0.72965509320E+03  0.00000000000E+00 0. -1.
         -2   -1    0    0    0  501 -0.00000000000E+00 -0.00000000000E+00 -0.10882614689E+02  0.10882614689E+02  0.00000000000E+00 0.  1.
         23    2    1    2    0    0  0.33982761395E+02  0.17590624641E+02  0.42428873346E+03  0.43566477487E+03  0.91206406427E+02 0.  0.
         23    2    1    2    0    0 -0.33982761395E+02 -0.17590624641E+02  0.29448374505E+03  0.30487293302E+03  0.69011383421E+02 0.  0.
          5    1    3    3  502    0  0.92638764235E+01 -0.35817506168E+02  0.21490582103E+03  0.21811766335E+03  0.47000000000E+01 0. -1.
         -5    1    3    3    0  502  0.24718884971E+02  0.53408130809E+02  0.20938291243E+03  0.21754711151E+03  0.47000000000E+01 0.  1.
          5    1    4    4  503    0 -0.55874335383E+00 -0.28259893463E+02  0.22573070024E+03  0.22754202426E+03  0.47000000000E+01 0. -1.
         -5    1    4    4    0  503 -0.33424018041E+02  0.10669268822E+02  0.68753044815E+02  0.77330908766E+02  0.47000000000E+01 0.  1.
<mgrwt>
<rscale>  0 0.93477733E+02</rscale>
<asrwt>0</asrwt>
<pdfrwt beam="1">  1        2 0.11225459E+00 0.98908375E+02</pdfrwt>
<pdfrwt beam="2">  1       -2 0.16742490E-02 0.98908375E+02</pdfrwt>
<totfact> 0.36337574E+04</totfact>
</mgrwt>
</event>
<event>
 8    1  0.9456677E-004  0.9993109E+02  0.7546771E-02  0.1280671E+00
         -2   -1    0    0    0  501 -0.00000000000E+00  0.00000000000E+00  0.85789639002E+02  0.85789639002E+02  0.00000000000E+00 0.  1.
          2   -1    0    0  501    0  0.00000000000E+00 -0.00000000000E+00 -0.11591375303E+03  0.11591375303E+03  0.00000000000E+00 0. -1.
         23    2    1    2    0    0  0.25318910706E+02 -0.25864720760E+02 -0.16262910944E+02  0.10081555331E+03  0.92678274141E+02 0.  0.
         23    2    1    2    0    0 -0.25318910706E+02  0.25864720760E+02 -0.13861203086E+02  0.10088783872E+03  0.93146078993E+02 0.  0.
          5    1    3    3  502    0  0.28415433907E+02  0.29292725683E+01 -0.48964062256E+02  0.56882219669E+02  0.47000000000E+01 0. -1.
         -5    1    4    4    0  503  0.21409835608E+02 -0.20656175664E+02  0.81717331534E+01  0.31207785512E+02  0.47000000000E+01 0.  1.
          5    1    4    4  503    0 -0.46728746314E+02  0.46520896423E+02 -0.22032936239E+02  0.69680053211E+02  0.47000000000E+01 0. -1.
         -5    1    3    3    0  502 -0.30965232007E+01 -0.28793993328E+02  0.32701151312E+02  0.43933333641E+02  0.47000000000E+01 0.  1.
<mgrwt>
<rscale>  0 0.99821938E+02</rscale>
<asrwt>0</asrwt>
<pdfrwt beam="1">  1        2 0.17832885E-01 0.99931092E+02</pdfrwt>
<pdfrwt beam="2">  1       -2 0.13198406E-01 0.99931092E+02</pdfrwt>
<totfact> 0.12222159E+04</totfact>
</mgrwt>
</event>
<event>
 8    1  0.9456677E-004  0.1066540E+03  0.7546771E-02  0.1267961E+00
         -1   -1    0    0    0  501 -0.00000000000E+00  0.00000000000E+00  0.52581840009E+03  0.52581840009E+03  0.00000000000E+00 0.  1.
          1   -1    0    0  501    0  0.00000000000E+00 -0.00000000000E+00 -0.21719310409E+02  0.21719310409E+02  0.00000000000E+00 0. -1.
         23    2    1    2    0    0  0.60949931371E+01 -0.49896865592E+02  0.20685011238E+03  0.23173393008E+03  0.91579469417E+02 0.  0.
         23    2    1    2    0    0 -0.60949931371E+01  0.49896865592E+02  0.29724897730E+03  0.31580378043E+03  0.94065015213E+02 0.  0.
          5    1    4    4  502    0  0.26539256236E+02  0.15703309810E+02  0.26530765735E+02  0.40949940061E+02  0.47000000000E+01 0. -1.
         -5    1    3    3    0  503 -0.35502223971E+02  0.18435625686E+01  0.51777174263E+02  0.62982318190E+02  0.47000000000E+01 0.  1.
          5    1    3    3  503    0  0.41597217108E+02 -0.51740428161E+02  0.15507293812E+03  0.16875161189E+03  0.47000000000E+01 0. -1.
         -5    1    4    4    0  502 -0.32634249373E+02  0.34193555782E+02  0.27071821157E+03  0.27485384037E+03  0.47000000000E+01 0.  1.
<mgrwt>
<rscale>  0 0.10610334E+03</rscale>
<asrwt>0</asrwt>
<pdfrwt beam="1">  1        1 0.33414328E-02 0.10665399E+03</pdfrwt>
<pdfrwt beam="2">  1       -1 0.80895129E-01 0.10665399E+03</pdfrwt>
<totfact> 0.43873682E+03</totfact>
</mgrwt>
</event>
<event>
 8    1  0.9456677E-004  0.1224625E+03  0.7546771E-02  0.1239270E+00
         -1   -1    0    0    0  501 -0.00000000000E+00  0.00000000000E+00  0.20982889144E+03  0.20982889144E+03  0.00000000000E+00 0.  1.
          1   -1    0    0  501    0  0.00000000000E+00 -0.00000000000E+00 -0.10194888853E+03  0.10194888853E+03  0.00000000000E+00 0. -1.
         23    2    1    2    0    0  0.79110554041E+02  0.64883978730E+01  0.13946855660E+03  0.18530679490E+03  0.92663643821E+02 0.  0.
         23    2    1    2    0    0 -0.79110554041E+02 -0.64883978730E+01 -0.31588553694E+02  0.12647098508E+03  0.93254995979E+02 0.  0.
          5    1    4    4  502    0 -0.99377889460E+02 -0.56379253661E+01 -0.34487202143E+02  0.10544765634E+03  0.47000000000E+01 0. -1.
         -5    1    4    4    0  502  0.20267335419E+02 -0.85047250690E+00  0.28986484493E+01  0.21023328740E+02  0.47000000000E+01 0.  1.
          5    1    3    3  503    0 -0.16437001943E+02 -0.15664418840E+02  0.34510589222E+02  0.41576673976E+02  0.47000000000E+01 0. -1.
         -5    1    3    3    0  503  0.95547555984E+02  0.22152816713E+02  0.10495796738E+03  0.14373012092E+03  0.47000000000E+01 0.  1.
<mgrwt>
<rscale>  0 0.12234996E+03</rscale>
<asrwt>0</asrwt>
<pdfrwt beam="1">  1        1 0.15684444E-01 0.12246254E+03</pdfrwt>
<pdfrwt beam="2">  1       -1 0.32281368E-01 0.12246254E+03</pdfrwt>
<totfact> 0.30351021E+03</totfact>
</mgrwt>
</event>
<event>
 8    1  0.9456677E-004  0.1032991E+03  0.7546771E-02  0.1273981E+00
          2   -1    0    0  501    0  0.00000000000E+00  0.00000000000E+00  0.35669353969E+03  0.35669353969E+03  0.00000000000E+00 0. -1.
         -2   -1    0    0    0  501 -0.00000000000E+00 -0.00000000000E+00 -0.31777087019E+02  0.31777087019E+02  0.00000000000E+00 0.  1.
         23    2    1    2    0    0  0.26253399332E+01  0.46149403750E+02  0.21345494842E+03  0.23713648653E+03  0.92379859052E+02 0.  0.
         23    2    1    2    0    0 -0.26253399332E+01 -0.46149403750E+02  0.11146150425E+03  0.15133414019E+03  0.91332881156E+02 0.  0.
          5    1    3    3  502    0  0.41090058310E+02  0.30819588267E+02  0.16673996806E+03  0.17453523100E+03  0.47000000000E+01 0. -1.
         -5    1    3    3    0  502 -0.38464718377E+02  0.15329815482E+02  0.46714980367E+02  0.62601255524E+02  0.47000000000E+01 0.  1.
          5    1    4    4  503    0  0.43242334096E+02 -0.27290161953E+02  0.68101516644E+02  0.85291025124E+02  0.47000000000E+01 0. -1.
         -5    1    4    4    0  503 -0.45867674029E+02 -0.18859241797E+02  0.43359987606E+02  0.66043115063E+02  0.47000000000E+01 0.  1.
<mgrwt>
<rscale>  0 0.10306446E+03</rscale>
<asrwt>0</asrwt>
<pdfrwt beam="1">  1        2 0.54875926E-01 0.10329907E+03</pdfrwt>
<pdfrwt beam="2">  1       -2 0.48887829E-02 0.10329907E+03</pdfrwt>
<totfact> 0.16802517E+04</totfact>
</mgrwt>
</event>
<event>
 8    1  0.9456677E-004  0.1118946E+03  0.7546771E-02  0.1267742E+00
         -2   -1    0    0    0  501 -0.00000000000E+00  0.00000000000E+00  0.11966553753E+03  0.11966553753E+03  0.00000000000E+00 0.  1.
          2   -1    0    0  501    0  0.00000000000E+00 -0.00000000000E+00 -0.10241877346E+03  0.10241877346E+03  0.00000000000E+00 0. -1.
         23    2    1    2    0    0  0.21911961930E+02  0.29898170114E+01  0.52297859524E+02  0.10482827064E+03  0.88118256530E+02 0.  0.
         23    2    1    2    0    0 -0.21911961930E+02 -0.29898170114E+01 -0.35051095449E+02  0.11725604035E+03  0.10968740413E+03 0.  0.
          5    1    4    4  502    0 -0.23079710335E+02  0.42484342036E+02 -0.49443565841E+02  0.69313408158E+02  0.47000000000E+01 0. -1.
         -5    1    4    4    0  502  0.11677484052E+01 -0.45474159047E+02  0.14392470392E+02  0.47942632191E+02  0.47000000000E+01 0.  1.
          5    1    3    3  503    0 -0.30135417459E+02  0.66440349534E+01  0.58983892689E+00  0.31220578083E+02  0.47000000000E+01 0. -1.
         -5    1    3    3    0  503  0.52047379389E+02 -0.36542179420E+01  0.51708020597E+02  0.73607692560E+02  0.47000000000E+01 0.  1.
<mgrwt>
<rscale>  0 0.10621582E+03</rscale>
<asrwt>0</asrwt>
<pdfrwt beam="1">  1        2 0.15756734E-01 0.11189459E+03</pdfrwt>
<pdfrwt beam="2">  1       -2 0.18410083E-01 0.11189459E+03</pdfrwt>
<totfact> 0.82674321E+03</totfact>
</mgrwt>
</event>
<event>
 8    1  0.9456677E-004  0.9639974E+02  0.7546771E-02  0.1288828E+00
          1   -1    0    0  501    0  0.00000000000E+00  0.00000000000E+00  0.59573649255E+02  0.59573649255E+02  0.00000000000E+00 0. -1.
         -1   -1    0    0    0  501 -0.00000000000E+00 -0.00000000000E+00 -0.22860529018E+03  0.22860529018E+03  0.00000000000E+00 0.  1.
         23    2    1    2    0    0 -0.27306101960E+02 -0.71176190494E+01 -0.16655390957E+03  0.19174736323E+03  0.90722449299E+02 0.  0.
         23    2    1    2    0    0  0.27306101960E+02  0.71176190494E+01 -0.24777313526E+01  0.96431576204E+02  0.92177144843E+02 0.  0.
          5    1    3    3  502    0  0.22061281824E+02 -0.32269284939E+02 -0.71587234410E+02  0.81699626907E+02  0.47000000000E+01 0. -1.
         -5    1    3    3    0  502 -0.49367383784E+02  0.25151665889E+02 -0.94966675160E+02  0.11004773632E+03  0.47000000000E+01 0.  1.
          5    1    4    4  503    0  0.23666799349E+02 -0.38627310738E+02  0.13679586934E+02  0.47554259799E+02  0.47000000000E+01 0. -1.
         -5    1    4    4    0  503  0.36393026104E+01  0.45744929788E+02 -0.16157318287E+02  0.48877316405E+02  0.47000000000E+01 0.  1.
<mgrwt>
<rscale>  0 0.96050339E+02</rscale>
<asrwt>0</asrwt>
<pdfrwt beam="1">  1        1 0.91651768E-02 0.96399739E+02</pdfrwt>
<pdfrwt beam="2">  1       -1 0.35170044E-01 0.96399739E+02</pdfrwt>
<totfact> 0.52042943E+03</totfact>
</mgrwt>
</event>
<event>
 8    1  0.9456677E-004  0.1049111E+03  0.7546771E-02  0.1271087E+00
          1   -1    0    0  501    0  0.00000000000E+00  0.00000000000E+00  0.23361820944E+03  0.23361820944E+03  0.00000000000E+00 0. -1.
         -1   -1    0    0    0  501 -0.00000000000E+00 -0.00000000000E+00 -0.17416637887E+03  0.17416637887E+03  0.00000000000E+00 0.  1.
         23    2    1    2    0    0  0.41000458974E+02  0.26648549608E+02 -0.14496681224E+03  0.17801660819E+03  0.91012929345E+02 0.  0.
         23    2    1    2    0    0 -0.41000458974E+02 -0.26648549608E+02  0.20441864281E+03  0.22976798011E+03  0.92817887959E+02 0.  0.
          5    1    3    3  502    0 -0.20484336499E+02  0.29074623420E+02 -0.27060220040E+02  0.44936480475E+02  0.47000000000E+01 0. -1.
         -5    1    3    3    0  502  0.61484795473E+02 -0.24260738120E+01 -0.11790659220E+03  0.13308012771E+03  0.47000000000E+01 0.  1.
          5    1    4    4  503    0  0.10715790546E+02 -0.40196116166E+02  0.13891722445E+03  0.14508839089E+03  0.47000000000E+01 0. -1.
         -5    1    4    4    0  503 -0.51716249520E+02  0.13547566558E+02  0.65501418354E+02  0.84679589220E+02  0.47000000000E+01 0.  1.
<mgrwt>
<rscale>  0 0.10451046E+03</rscale>
<asrwt>0</asrwt>
<pdfrwt beam="1">  1        1 0.35941263E-01 0.10491112E+03</pdfrwt>
<pdfrwt beam="2">  1       -1 0.26794827E-01 0.10491112E+03</pdfrwt>
<totfact> 0.14550586E+03</totfact>
</mgrwt>
</event>
<event>
 8    1  0.9456677E-004  0.9759413E+02  0.7546771E-02  0.1287359E+00
          1   -1    0    0  501    0  0.00000000000E+00  0.00000000000E+00  0.32464363690E+03  0.32464363690E+03  0.00000000000E+00 0. -1.
         -1   -1    0    0    0  501 -0.00000000000E+00 -0.00000000000E+00 -0.46375455717E+02  0.46375455717E+02  0.00000000000E+00 0.  1.
         23    2    1    2    0    0  0.11440140893E+02 -0.27339596429E+02  0.21810766176E+02  0.96619713144E+02  0.89338284572E+02 0.  0.
         23    2    1    2    0    0 -0.11440140893E+02  0.27339596429E+02  0.25645741500E+03  0.27439937947E+03  0.92985393405E+02 0.  0.
          5    1    3    3  502    0  0.49870745566E+01  0.29629863766E+02  0.24466975745E+02  0.39032328159E+02  0.47000000000E+01 0. -1.
         -5    1    4    4    0  503 -0.14917352357E+02 -0.32696073139E+02  0.77662722432E+02  0.85703845045E+02  0.47000000000E+01 0.  1.
          5    1    4    4  503    0  0.34772114631E+01  0.60035669568E+02  0.17879469257E+03  0.18869553443E+03  0.47000000000E+01 0. -1.
         -5    1    3    3    0  502  0.64530663368E+01 -0.56969460195E+02 -0.26562095693E+01  0.57587384984E+02  0.47000000000E+01 0.  1.
<mgrwt>
<rscale>  0 0.96715235E+02</rscale>
<asrwt>0</asrwt>
<pdfrwt beam="1">  1        1 0.49945173E-01 0.97594128E+02</pdfrwt>
<pdfrwt beam="2">  1       -1 0.71346857E-02 0.97594128E+02</pdfrwt>
<totfact> 0.75536271E+03</totfact>
</mgrwt>
</event>
<event>
 8    1  0.9456677E-004  0.1258140E+03  0.7546771E-02  0.1236805E+00
          1   -1    0    0  501    0  0.00000000000E+00  0.00000000000E+00  0.15586239267E+03  0.15586239267E+03  0.00000000000E+00 0. -1.
         -1   -1    0    0    0  501 -0.00000000000E+00 -0.00000000000E+00 -0.11049208960E+03  0.11049208960E+03  0.00000000000E+00 0.  1.
         23    2    1    2    0    0 -0.67513817403E+02  0.53518280464E+02  0.72168012187E+02  0.14504269456E+03  0.91688818169E+02 0.  0.
         23    2    1    2    0    0  0.67513817403E+02 -0.53518280464E+02 -0.26797709119E+02  0.12131178771E+03  0.81093222530E+02 0.  0.
          5    1    3    3  502    0  0.19374359778E+02  0.27615561910E+02  0.11935340090E+02  0.36090544737E+02  0.47000000000E+01 0.  1.
         -5    1    4    4    0  503  0.74504751964E+02 -0.16934670462E+02 -0.32824152953E+02  0.83290192376E+02  0.47000000000E+01 0.  1.
          5    1    4    4  503    0 -0.69909345613E+01 -0.36583610002E+02  0.60264438348E+01  0.38021595339E+02  0.47000000000E+01 0. -1.
         -5    1    3    3    0  502 -0.86888177181E+02  0.25902718554E+02  0.60232672097E+02  0.10895214982E+03  0.47000000000E+01 0. -1.
<mgrwt>
<rscale>  0 0.12389582E+03</rscale>
<asrwt>0</asrwt>
<pdfrwt beam="1">  1        1 0.23978830E-01 0.12581399E+03</pdfrwt>
<pdfrwt beam="2">  1       -1 0.16998783E-01 0.12581399E+03</pdfrwt>
<totfact> 0.50431131E+03</totfact>
</mgrwt>
</event>
<event>
 8    1  0.9456677E-004  0.1527744E+03  0.7546771E-02  0.1197550E+00
          1   -1    0    0  501    0  0.00000000000E+00  0.00000000000E+00  0.43231816484E+02  0.43231816484E+02  0.00000000000E+00 0. -1.
         -1   -1    0    0    0  501 -0.00000000000E+00 -0.00000000000E+00 -0.55434122357E+03  0.55434122357E+03  0.00000000000E+00 0.  1.
         23    2    1    2    0    0  0.12000315470E+03  0.24583776577E+02 -0.31063048293E+03  0.34551786315E+03  0.88804153177E+02 0.  0.
         23    2    1    2    0    0 -0.12000315470E+03 -0.24583776577E+02 -0.20047892416E+03  0.25205517690E+03  0.91295640449E+02 0.  0.
          5    1    4    4  502    0 -0.57663310913E+01 -0.28753519788E+02 -0.82630379423E+02  0.87805951268E+02  0.47000000000E+01 0. -1.
         -5    1    4    4    0  502 -0.11423682361E+03  0.41697432115E+01 -0.11784854473E+03  0.16424922564E+03  0.47000000000E+01 0.  1.
          5    1    3    3  503    0  0.58911831082E+02  0.20780397871E+01 -0.51900216773E+02  0.78680649411E+02  0.47000000000E+01 0. -1.
         -5    1    3    3    0  503  0.61091323618E+02  0.22505736790E+02 -0.25873026615E+03  0.26683721373E+03  0.47000000000E+01 0.  1.
<mgrwt>
<rscale>  0 0.15240412E+03</rscale>
<asrwt>0</asrwt>
<pdfrwt beam="1">  1        1 0.66510484E-02 0.15277439E+03</pdfrwt>
<pdfrwt beam="2">  1       -1 0.85283269E-01 0.15277439E+03</pdfrwt>
<totfact> 0.15666215E+03</totfact>
</mgrwt>
</event>
<event>
 8    1  0.9456677E-004  0.9252354E+02  0.7546771E-02  0.1296900E+00
         -1   -1    0    0    0  501 -0.00000000000E+00  0.00000000000E+00  0.72049127912E+02  0.72049127912E+02  0.00000000000E+00 0.  1.
          1   -1    0    0  501    0  0.00000000000E+00 -0.00000000000E+00 -0.11889888246E+03  0.11889888246E+03  0.00000000000E+00 0. -1.
         23    2    1    2    0    0  0.48660442455E+01 -0.13927058919E+02 -0.19640578006E+02  0.94506600218E+02  0.91258445218E+02 0.  0.
         23    2    1    2    0    0 -0.48660442455E+01  0.13927058919E+02 -0.27209176539E+02  0.96441410151E+02  0.91339832205E+02 0.  0.
          5    1    4    4  502    0  0.27728597712E+02 -0.21206024467E+02 -0.32590335256E+02  0.47987399980E+02  0.47000000000E+01 0. -1.
         -5    1    4    4    0  502 -0.32594641958E+02  0.35133083386E+02  0.53811587165E+01  0.48454010171E+02  0.47000000000E+01 0.  1.
          5    1    3    3  503    0  0.17477417516E+01 -0.36897468893E+02  0.24398245531E+02  0.44517886259E+02  0.47000000000E+01 0. -1.
         -5    1    3    3    0  503  0.31183024939E+01  0.22970409975E+02 -0.44038823536E+02  0.49988713959E+02  0.47000000000E+01 0.  1.
<mgrwt>
<rscale>  0 0.92503452E+02</rscale>
<asrwt>0</asrwt>
<pdfrwt beam="1">  1        1 0.18292136E-01 0.92523545E+02</pdfrwt>
<pdfrwt beam="2">  1       -1 0.11084481E-01 0.92523545E+02</pdfrwt>
<totfact> 0.13406143E+04</totfact>
</mgrwt>
</event>
<event>
 8    1  0.9456677E-004  0.1022791E+03  0.7546771E-02  0.1276230E+00
          1   -1    0    0  501    0  0.00000000000E+00  0.00000000000E+00  0.41526590071E+03  0.41526590071E+03  0.00000000000E+00 0. -1.
         -1   -1    0    0    0  501 -0.00000000000E+00 -0.00000000000E+00 -0.69256897849E+02  0.69256897849E+02  0.00000000000E+00 0.  1.
         23    2    1    2    0    0 -0.41989192280E+02  0.17191495180E+02 -0.20532581531E+02  0.10431975232E+03  0.91664519002E+02 0.  0.
         23    2    1    2    0    0  0.41989192280E+02 -0.17191495180E+02  0.36654158439E+03  0.38020304624E+03  0.90238481315E+02 0.  0.
          5    1    4    4  502    0 -0.68996709132E+01 -0.34352105646E+02  0.25114320144E+03  0.25361914409E+03  0.47000000000E+01 0. -1.
         -5    1    4    4    0  502  0.48888863194E+02  0.17160610466E+02  0.11539838295E+03  0.12658390215E+03  0.47000000000E+01 0.  1.
          5    1    3    3  503    0 -0.13474165524E+02 -0.37300594933E+02 -0.13881465733E+02  0.42280877590E+02  0.47000000000E+01 0. -1.
         -5    1    3    3    0  503 -0.28515026756E+02  0.54492090113E+02 -0.66511157985E+01  0.62038874725E+02  0.47000000000E+01 0.  1.
<mgrwt>
<rscale>  0 0.10195863E+03</rscale>
<asrwt>0</asrwt>
<pdfrwt beam="1">  1        1 0.63887060E-01 0.10227915E+03</pdfrwt>
<pdfrwt beam="2">  1       -1 0.10654908E-01 0.10227915E+03</pdfrwt>
<totfact> 0.30560724E+03</totfact>
</mgrwt>
</event>
<event>
 8    1  0.9456677E-004  0.1053603E+03  0.7546771E-02  0.1272162E+00
          1   -1    0    0  501    0  0.00000000000E+00  0.00000000000E+00  0.40797788013E+03  0.40797788013E+03  0.00000000000E+00 0. -1.
         -1   -1    0    0    0  501 -0.00000000000E+00 -0.00000000000E+00 -0.27176597291E+02  0.27176597291E+02  0.00000000000E+00 0.  1.
         23    2    1    2    0    0 -0.32368251917E+02 -0.27101089093E+02  0.23419951938E+03  0.25461954997E+03  0.90551242870E+02 0.  0.
         23    2    1    2    0    0  0.32368251917E+02  0.27101089093E+02  0.14660176345E+03  0.18053492745E+03  0.96532948880E+02 0.  0.
          5    1    3    3  502    0 -0.49596044173E+02 -0.16441487400E+01  0.20820905655E+03  0.21409243810E+03  0.47000000000E+01 0. -1.
         -5    1    3    3    0  502  0.17227792257E+02 -0.25456940353E+02  0.25990462835E+02  0.40527111870E+02  0.47000000000E+01 0.  1.
          5    1    4    4  503    0 -0.29690082018E+02  0.29822625009E+02  0.69867337187E+02  0.81697152572E+02  0.47000000000E+01 0. -1.
         -5    1    4    4    0  503  0.62058333934E+02 -0.27215359167E+01  0.76734426267E+02  0.98837774879E+02  0.47000000000E+01 0.  1.
<mgrwt>
<rscale>  0 0.10397003E+03</rscale>
<asrwt>0</asrwt>
<pdfrwt beam="1">  1        1 0.62765823E-01 0.10536025E+03</pdfrwt>
<pdfrwt beam="2">  1       -1 0.41810153E-02 0.10536025E+03</pdfrwt>
<totfact> 0.12584534E+04</totfact>
</mgrwt>
</event>
<event>
 8    1  0.9456677E-004  0.1237010E+03  0.7546771E-02  0.1239556E+00
          4   -1    0    0  501    0  0.00000000000E+00  0.00000000000E+00  0.76227599374E+02  0.76227599374E+02  0.00000000000E+00 0. -1.
         -4   -1    0    0    0  501 -0.00000000000E+00 -0.00000000000E+00 -0.39777777757E+03  0.39777777757E+03  0.00000000000E+00 0.  1.
         23    2    1    2    0    0  0.37525861274E+02  0.65281387322E+02 -0.33349917151E+03  0.35570160663E+03  0.98143190089E+02 0.  0.
         23    2    1    2    0    0 -0.37525861274E+02 -0.65281387322E+02  0.11948993314E+02  0.11830377032E+03  0.90460786178E+02 0.  0.
          5    1    3    3  502    0  0.44059482878E+02  0.22549307770E+02 -0.56288448539E+02  0.75101190079E+02  0.47000000000E+01 0. -1.
         -5    1    3    3    0  502 -0.65336216040E+01  0.42732079552E+02 -0.27721072297E+03  0.28060041655E+03  0.47000000000E+01 0.  1.
          5    1    4    4  503    0 -0.55305750676E+02 -0.74775275525E+02  0.21399623781E+02  0.95551566108E+02  0.47000000000E+01 0. -1.
         -5    1    4    4    0  503  0.17779889402E+02  0.94938882025E+01 -0.94506304670E+01  0.22752204214E+02  0.47000000000E+01 0.  1.
<mgrwt>
<rscale>  0 0.12217234E+03</rscale>
<asrwt>0</asrwt>
<pdfrwt beam="1">  1        4 0.11727323E-01 0.12370099E+03</pdfrwt>
<pdfrwt beam="2">  1       -4 0.61196582E-01 0.12370099E+03</pdfrwt>
<totfact> 0.24115806E+02</totfact>
</mgrwt>
</event>
<event>
 8    1  0.9456677E-004  0.1264330E+03  0.7546771E-02  0.1233980E+00
         -2   -1    0    0    0  501 -0.00000000000E+00  0.00000000000E+00  0.48062015928E+02  0.48062015928E+02  0.00000000000E+00 0.  1.
          2   -1    0    0  501    0  0.00000000000E+00 -0.00000000000E+00 -0.37432120954E+03  0.37432120954E+03  0.00000000000E+00 0. -1.
         23    2    1    2    0    0 -0.83103005464E+02 -0.11201500072E+01 -0.88114901959E+02  0.15410884140E+03  0.95278196854E+02 0.  0.
         23    2    1    2    0    0  0.83103005464E+02  0.11201500072E+01 -0.23814429165E+03  0.26827438407E+03  0.91384228670E+02 0.  0.
          5    1    4    4  502    0  0.98201448359E+02  0.17328292466E+02 -0.20647795536E+03  0.22934478462E+03  0.47000000000E+01 0. -1.
         -5    1    4    4    0  502 -0.15098442895E+02 -0.16208142459E+02 -0.31666336289E+02  0.38929599456E+02  0.47000000000E+01 0.  1.
          5    1    3    3  503    0 -0.77459273357E+02  0.28181271659E+02 -0.92044702078E+02  0.12364643255E+03  0.47000000000E+01 0. -1.
         -5    1    3    3    0  503 -0.56437321070E+01 -0.29301421667E+02  0.39298001188E+01  0.30462408847E+02  0.47000000000E+01 0.  1.
<mgrwt>
<rscale>  0 0.12569965E+03</rscale>
<asrwt>0</asrwt>
<pdfrwt beam="1">  1        2 0.57587880E-01 0.12643298E+03</pdfrwt>
<pdfrwt beam="2">  1       -2 0.73941561E-02 0.12643298E+03</pdfrwt>
<totfact> 0.86912377E+03</totfact>
</mgrwt>
</event>
<event>
 8    1  0.9456677E-004  0.1213865E+03  0.7546771E-02  0.1242547E+00
          1   -1    0    0  501    0  0.00000000000E+00  0.00000000000E+00  0.75241040572E+03  0.75241040572E+03  0.00000000000E+00 0. -1.
         -1   -1    0    0    0  501 -0.00000000000E+00 -0.00000000000E+00 -0.21041959117E+02  0.21041959117E+02  0.00000000000E+00 0.  1.
         23    2    1    2    0    0  0.52166614748E+02 -0.49534845701E+02  0.49423907642E+03  0.50892724052E+03  0.97773282918E+02 0.  0.
         23    2    1    2    0    0 -0.52166614748E+02  0.49534845701E+02  0.23712937018E+03  0.26452512432E+03  0.92564283379E+02 0.  0.
          5    1    4    4  502    0 -0.62723600108E+00  0.22661108418E+02  0.31222834716E+01  0.23361462151E+02  0.47000000000E+01 0. -1.
         -5    1    3    3    0  503 -0.29082575315E+01 -0.32700409413E+02  0.44538318601E+02  0.55529510726E+02  0.47000000000E+01 0.  1.
          5    1    3    3  503    0  0.55074872279E+02 -0.16834436288E+02  0.44970075782E+03  0.45339772980E+03  0.47000000000E+01 0. -1.
         -5    1    4    4    0  502 -0.51539378747E+02  0.26873737283E+02  0.23400708671E+03  0.24116366217E+03  0.47000000000E+01 0.  1.
<mgrwt>
<rscale>  0 0.12033409E+03</rscale>
<asrwt>0</asrwt>
<pdfrwt beam="1">  1        1 0.11575543E+00 0.12138646E+03</pdfrwt>
<pdfrwt beam="2">  1       -1 0.32372251E-02 0.12138646E+03</pdfrwt>
<totfact> 0.81544269E+03</totfact>
</mgrwt>
</event>
<event>
 8    1  0.9456677E-004  0.1096225E+03  0.7546771E-02  0.1261539E+00
          1   -1    0    0  501    0  0.00000000000E+00  0.00000000000E+00  0.21906272091E+02  0.21906272091E+02  0.00000000000E+00 0. -1.
         -1   -1    0    0    0  501 -0.00000000000E+00 -0.00000000000E+00 -0.60446243697E+03  0.60446243697E+03  0.00000000000E+00 0.  1.
         23    2    1    2    0    0  0.26253207421E+02 -0.52477250522E+02 -0.38962522482E+03  0.40475290792E+03  0.92595939105E+02 0.  0.
         23    2    1    2    0    0 -0.26253207421E+02  0.52477250522E+02 -0.19293094007E+03  0.22161580114E+03  0.91913671224E+02 0.  0.
          5    1    3    3  502    0 -0.92527092622E+01  0.20352942340E+02 -0.15063739285E+03  0.15235999808E+03  0.47000000000E+01 0. -1.
         -5    1    4    4    0  503 -0.54846948155E+02  0.30009714644E+02 -0.73118261387E+02  0.96317915484E+02  0.47000000000E+01 0.  1.
          5    1    4    4  503    0  0.28593740733E+02  0.22467535878E+02 -0.11981267868E+03  0.12529788566E+03  0.47000000000E+01 0. -1.
         -5    1    3    3    0  502  0.35505916684E+02 -0.72830192862E+02 -0.23898783197E+03  0.25239290985E+03  0.47000000000E+01 0.  1.
<mgrwt>
<rscale>  0 0.10947833E+03</rscale>
<asrwt>0</asrwt>
<pdfrwt beam="1">  1        1 0.33701956E-02 0.10962254E+03</pdfrwt>
<pdfrwt beam="2">  1       -1 0.92994225E-01 0.10962254E+03</pdfrwt>
<totfact> 0.32485272E+03</totfact>
</mgrwt>
</event>
<event>
 8    1  0.9456677E-004  0.1020430E+03  0.7546771E-02  0.1276264E+00
          3   -1    0    0  501    0  0.00000000000E+00  0.00000000000E+00  0.20046694174E+03  0.20046694174E+03  0.00000000000E+00 0. -1.
         -3   -1    0    0    0  501 -0.00000000000E+00 -0.00000000000E+00 -0.53650669321E+02  0.53650669321E+02  0.00000000000E+00 0.  1.
         23    2    1    2    0    0  0.45197705652E+02 -0.48478109117E+01  0.49559242271E+02  0.11344114039E+03  0.91358852732E+02 0.  0.
         23    2    1    2    0    0 -0.45197705652E+02  0.48478109117E+01  0.97257030153E+02  0.14067647067E+03  0.90909876358E+02 0.  0.
          5    1    3    3  502    0 -0.28007755696E+02  0.12828447702E+01  0.13434419702E+02  0.31442864096E+02  0.47000000000E+01 0. -1.
         -5    1    4    4    0  503  0.18471507756E+02 -0.12314190588E+02 -0.46114532520E+00  0.22696663711E+02  0.47000000000E+01 0.  1.
          5    1    4    4  503    0 -0.63669213408E+02  0.17162001500E+02  0.97718175478E+02  0.11797980696E+03  0.47000000000E+01 0. -1.
         -5    1    3    3    0  502  0.73205461348E+02 -0.61306556819E+01  0.36124822569E+02  0.81998276298E+02  0.47000000000E+01 0.  1.
<mgrwt>
<rscale>  0 0.10194241E+03</rscale>
<asrwt>0</asrwt>
<pdfrwt beam="1">  1        3 0.30841068E-01 0.10204300E+03</pdfrwt>
<pdfrwt beam="2">  1       -3 0.82539492E-02 0.10204300E+03</pdfrwt>
<totfact> 0.22433033E+03</totfact>
</mgrwt>
</event>
<event>
 8    1  0.9456677E-004  0.1243592E+03  0.7546771E-02  0.1242726E+00
         -1   -1    0    0    0  501 -0.00000000000E+00  0.00000000000E+00  0.25713751226E+02  0.25713751226E+02  0.00000000000E+00 0.  1.
          1   -1    0    0  501    0  0.00000000000E+00 -0.00000000000E+00 -0.53944749316E+03  0.53944749316E+03  0.00000000000E+00 0. -1.
         23    2    1    2    0    0  0.54351094797E+02  0.14566202990E+02 -0.19842118056E+03  0.22621108200E+03  0.92920788576E+02 0.  0.
         23    2    1    2    0    0 -0.54351094797E+02 -0.14566202990E+02 -0.31531256138E+03  0.33895016239E+03  0.11090079101E+03 0.  0.
          5    1    3    3  502    0  0.54367411682E+01  0.47013718838E+02 -0.66629758994E+02  0.81862462075E+02  0.47000000000E+01 0. -1.
         -5    1    3    3    0  502  0.48914353629E+02 -0.32447515848E+02 -0.13179142157E+03  0.14434861992E+03  0.47000000000E+01 0.  1.
          5    1    4    4  503    0 -0.33206074571E+02 -0.18496766905E+02 -0.31460114250E+03  0.31692387514E+03  0.47000000000E+01 0. -1.
         -5    1    4    4    0  503 -0.21145020226E+02  0.39305639146E+01 -0.71141887923E+00  0.22026287247E+02  0.47000000000E+01 0.  1.
<mgrwt>
<rscale>  0 0.12022529E+03</rscale>
<asrwt>0</asrwt>
<pdfrwt beam="1">  1        1 0.82991906E-01 0.12435916E+03</pdfrwt>
<pdfrwt beam="2">  1       -1 0.39559625E-02 0.12435916E+03</pdfrwt>
<totfact> 0.96597367E+03</totfact>
</mgrwt>
</event>
<event>
 8    1  0.9456677E-004  0.1043601E+03  0.7546771E-02  0.1272115E+00
         -2   -1    0    0    0  501 -0.00000000000E+00  0.00000000000E+00  0.18389987496E+02  0.18389987496E+02  0.00000000000E+00 0.  1.
          2   -1    0    0  501    0  0.00000000000E+00 -0.00000000000E+00 -0.64574380552E+03  0.64574380552E+03  0.00000000000E+00 0. -1.
         23    2    1    2    0    0 -0.20948923656E+02  0.45012309049E+02 -0.41437836785E+03  0.42696386024E+03  0.90131797076E+02 0.  0.
         23    2    1    2    0    0  0.20948923656E+02 -0.45012309049E+02 -0.21297545018E+03  0.23716993277E+03  0.91793623231E+02 0.  0.
          5    1    3    3  502    0  0.26647112502E+02 -0.77394703384E+01 -0.17398408999E+03  0.17624562853E+03  0.47000000000E+01 0. -1.
         -5    1    3    3    0  502 -0.47596036159E+02  0.52751779388E+02 -0.24039427786E+03  0.25071823171E+03  0.47000000000E+01 0.  1.
          5    1    4    4  503    0  0.40808304604E+02  0.10945423108E+02 -0.11382122526E+03  0.12150095198E+03  0.47000000000E+01 0. -1.
         -5    1    4    4    0  503 -0.19859380948E+02 -0.55957732158E+02 -0.99154224919E+02  0.11566898080E+03  0.47000000000E+01 0.  1.
<mgrwt>
<rscale>  0 0.10399352E+03</rscale>
<asrwt>0</asrwt>
<pdfrwt beam="1">  1        2 0.99345187E-01 0.10436012E+03</pdfrwt>
<pdfrwt beam="2">  1       -2 0.28292292E-02 0.10436012E+03</pdfrwt>
<totfact> 0.19743052E+04</totfact>
</mgrwt>
</event>
<event>
 8    1  0.9456677E-004  0.1146464E+03  0.7546771E-02  0.1252585E+00
         -1   -1    0    0    0  501 -0.00000000000E+00  0.00000000000E+00  0.48819861795E+02  0.48819861795E+02  0.00000000000E+00 0.  1.
          1   -1    0    0  501    0  0.00000000000E+00 -0.00000000000E+00 -0.29555946066E+03  0.29555946066E+03  0.00000000000E+00 0. -1.
         23    2    1    2    0    0 -0.22715558251E+02  0.64139224320E+02 -0.17715566646E+03  0.21101643124E+03  0.92271162406E+02 0.  0.
         23    2    1    2    0    0  0.22715558251E+02 -0.64139224320E+02 -0.69583932400E+02  0.13336289121E+03  0.91180592347E+02 0.  0.
          5    1    3    3  502    0  0.10444530837E+02  0.45897976139E+02 -0.16398096761E+03  0.17066798229E+03  0.47000000000E+01 0. -1.
         -5    1    4    4    0  503 -0.31267685474E+02 -0.50400936633E+01 -0.30272932133E+02  0.44063716581E+02  0.47000000000E+01 0.  1.
          5    1    4    4  503    0  0.53983243725E+02 -0.59099130656E+02 -0.39311000267E+02  0.89299174629E+02  0.47000000000E+01 0. -1.
         -5    1    3    3    0  502 -0.33160089089E+02  0.18241248181E+02 -0.13174698851E+02  0.40348448959E+02  0.47000000000E+01 0.  1.
<mgrwt>
<rscale>  0 0.11442683E+03</rscale>
<asrwt>0</asrwt>
<pdfrwt beam="1">  1        1 0.45470686E-01 0.11464643E+03</pdfrwt>
<pdfrwt beam="2">  1       -1 0.75107481E-02 0.11464643E+03</pdfrwt>
<totfact> 0.79473931E+03</totfact>
</mgrwt>
</event>
<event>
 8    1  0.9456677E-004  0.1212690E+03  0.7546771E-02  0.1241053E+00
          2   -1    0    0  501    0  0.00000000000E+00  0.00000000000E+00  0.47105009793E+03  0.47105009793E+03  0.00000000000E+00 0. -1.
         -2   -1    0    0    0  501 -0.00000000000E+00 -0.00000000000E+00 -0.31605221169E+02  0.31605221169E+02  0.00000000000E+00 0.  1.
         23    2    1    2    0    0 -0.49320892162E+02  0.59604952909E+02  0.24817367295E+03  0.27618048725E+03  0.93274802481E+02 0.  0.
         23    2    1    2    0    0  0.49320892162E+02 -0.59604952909E+02  0.19127120381E+03  0.22647483185E+03  0.93385626510E+02 0.  0.
          5    1    3    3  502    0 -0.30788064393E+02  0.84148432319E+02  0.17482360952E+03  0.19650508394E+03  0.47000000000E+01 0. -1.
         -5    1    4    4    0  503  0.22980519779E+02  0.12951053167E+02  0.86513447011E+01  0.28156168642E+02  0.47000000000E+01 0.  1.
          5    1    4    4  503    0  0.26340372383E+02 -0.72556006076E+02  0.18261985911E+03  0.19831866321E+03  0.47000000000E+01 0.  1.
         -5    1    3    3    0  502 -0.18532827769E+02 -0.24543479410E+02  0.73350063435E+02  0.79675403310E+02  0.47000000000E+01 0.  1.
<mgrwt>
<rscale>  0 0.12124769E+03</rscale>
<asrwt>0</asrwt>
<pdfrwt beam="1">  1        2 0.72469241E-01 0.12126902E+03</pdfrwt>
<pdfrwt beam="2">  1       -2 0.48623421E-02 0.12126902E+03</pdfrwt>
<totfact> 0.12773083E+04</totfact>
</mgrwt>
</event>
<event>
 8    1  0.9456677E-004  0.1613286E+03  0.7546771E-02  0.1187584E+00
          1   -1    0    0  501    0  0.00000000000E+00  0.00000000000E+00  0.11150770231E+04  0.11150770231E+04  0.00000000000E+00 0. -1.
         -1   -1    0    0    0  501 -0.00000000000E+00 -0.00000000000E+00 -0.70413914950E+02  0.70413914950E+02  0.00000000000E+00 0.  1.
         23    2    1    2    0    0 -0.12871676826E+03  0.32620530316E+02  0.10087022588E+04  0.10215219819E+04  0.91623180549E+02 0.  0.
         23    2    1    2    0    0  0.12871676826E+03 -0.32620530316E+02  0.35960849363E+02  0.16396895614E+03  0.89221804857E+02 0.  0.
          5    1    3    3  502    0 -0.10839224399E+03  0.62144780820E+02  0.80011402204E+03  0.80982429613E+03  0.47000000000E+01 0. -1.
         -5    1    3    3    0  502 -0.20324524270E+02 -0.29524250504E+02  0.20858823673E+03  0.21169768576E+03  0.47000000000E+01 0.  1.
          5    1    4    4  503    0  0.11262800612E+03 -0.24085447553E+01  0.53974640772E+02  0.12500488269E+03  0.47000000000E+01 0. -1.
         -5    1    4    4    0  503  0.16088762137E+02 -0.30211985561E+02 -0.18013791410E+02  0.38964073447E+02  0.47000000000E+01 0.  1.
<mgrwt>
<rscale>  0 0.16098962E+03</rscale>
<asrwt>0</asrwt>
<pdfrwt beam="1">  1        1 0.17155030E+00 0.16132859E+03</pdfrwt>
<pdfrwt beam="2">  1       -1 0.10832911E-01 0.16132859E+03</pdfrwt>
<totfact> 0.71601856E+02</totfact>
</mgrwt>
</event>
<event>
 6    1  0.9456677E-004  0.3342176E+03  0.7546771E-02  0.1069286E+00
          2   -1    0    0  501    0  0.00000000000E+00  0.00000000000E+00  0.11349523285E+04  0.11349523285E+04  0.00000000000E+00 0. -1.
         -2   -1    0    0    0  501 -0.00000000000E+00 -0.00000000000E+00 -0.24604864635E+02  0.24604864635E+02  0.00000000000E+00 0.  1.
          5    1    1    2  502    0 -0.99241890291E+01 -0.61404403739E+02  0.92376580749E+02  0.11146529952E+03  0.47000000000E+01 0. -1.
         -5    1    1    2    0  503 -0.30326991552E+02 -0.18833358216E+02  0.21545733037E+03  0.21844535474E+03  0.47000000000E+01 0.  1.
          5    1    1    2  503    0  0.75129694290E+02  0.93942398073E+02  0.77133340279E+03  0.78067083548E+03  0.47000000000E+01 0. -1.
         -5    1    1    2    0  502 -0.34878513709E+02 -0.13704636118E+02  0.31180149923E+02  0.48975703353E+02  0.47000000000E+01 0.  1.
<mgrwt>
<rscale>  0 0.33421758E+03</rscale>
<asrwt>0</asrwt>
<pdfrwt beam="1">  1        2 0.17460801E+00 0.33421758E+03</pdfrwt>
<pdfrwt beam="2">  1       -2 0.37853647E-02 0.33421758E+03</pdfrwt>
<totfact> 0.65314592E+03</totfact>
</mgrwt>
</event>
<event>
 8    1  0.9456677E-004  0.1050893E+03  0.7546771E-02  0.1270689E+00
         -2   -1    0    0    0  501 -0.00000000000E+00  0.00000000000E+00  0.20411409144E+02  0.20411409144E+02  0.00000000000E+00 0.  1.
          2   -1    0    0  501    0  0.00000000000E+00 -0.00000000000E+00 -0.56109263868E+03  0.56109263868E+03  0.00000000000E+00 0. -1.
         23    2    1    2    0    0 -0.50982677275E+02  0.28013242750E+01 -0.33314622658E+03  0.34887872469E+03  0.90126996276E+02 0.  0.
         23    2    1    2    0    0  0.50982677275E+02 -0.28013242750E+01 -0.20753500295E+03  0.23262532313E+03  0.91851416487E+02 0.  0.
          5    1    3    3  502    0 -0.52490005552E+02  0.34071876662E+02 -0.28060875216E+03  0.28754035413E+03  0.47000000000E+01 0. -1.
         -5    1    3    3    0  502  0.15073282769E+01 -0.31270552387E+02 -0.52537474416E+02  0.61338370561E+02  0.47000000000E+01 0.  1.
          5    1    4    4  503    0  0.33020817865E+02  0.38821639359E+02 -0.15418660117E+03  0.16245950903E+03  0.47000000000E+01 0. -1.
         -5    1    4    4    0  503  0.17961859411E+02 -0.41622963634E+02 -0.53348401787E+02  0.70165814101E+02  0.47000000000E+01 0.  1.
<mgrwt>
<rscale>  0 0.10471133E+03</rscale>
<asrwt>0</asrwt>
<pdfrwt beam="1">  1        2 0.86321934E-01 0.10508931E+03</pdfrwt>
<pdfrwt beam="2">  1       -2 0.31402172E-02 0.10508931E+03</pdfrwt>
<totfact> 0.19878062E+04</totfact>
</mgrwt>
</event>
<event>
 8    1  0.9456677E-004  0.9745596E+02  0.7546771E-02  0.1289744E+00
         -4   -1    0    0    0  501 -0.00000000000E+00  0.00000000000E+00  0.73977805452E+01  0.73977805452E+01  0.00000000000E+00 0.  1.
          4   -1    0    0  501    0  0.00000000000E+00 -0.00000000000E+00 -0.12002481994E+04  0.12002481994E+04  0.00000000000E+00 0. -1.
         23    2    1    2    0    0 -0.11666217159E+02  0.67544841446E+01 -0.52542483998E+03  0.53314277903E+03  0.89376936018E+02 0.  0.
         23    2    1    2    0    0  0.11666217159E+02 -0.67544841446E+01 -0.66742557892E+03  0.67450320096E+03  0.96519122568E+02 0.  0.
          5    1    4    4  502    0 -0.13648933863E+02  0.38318576035E+02 -0.39968634026E+03  0.40177838077E+03  0.47000000000E+01 0. -1.
         -5    1    4    4    0  502  0.25315151022E+02 -0.45073060179E+02 -0.26773923866E+03  0.27272482018E+03  0.47000000000E+01 0.  1.
          5    1    3    3  503    0  0.38096336119E+02 -0.54615753628E+01 -0.21017212246E+03  0.21371843788E+03  0.47000000000E+01 0. -1.
         -5    1    3    3    0  503 -0.49762553278E+02  0.12216059507E+02 -0.31525271751E+03  0.31942434115E+03  0.47000000000E+01 0.  1.
<mgrwt>
<rscale>  0 0.95638731E+02</rscale>
<asrwt>0</asrwt>
<pdfrwt beam="1">  1        4 0.18465355E+00 0.97455963E+02</pdfrwt>
<pdfrwt beam="2">  1       -4 0.11381202E-02 0.97455963E+02</pdfrwt>
<totfact> 0.68748668E+02</totfact>
</mgrwt>
</event>
<event>
 8    1  0.9456677E-004  0.1197879E+03  0.7546771E-02  0.1243640E+00
          1   -1    0    0  501    0  0.00000000000E+00  0.00000000000E+00  0.18503567161E+03  0.18503567161E+03  0.00000000000E+00 0. -1.
         -1   -1    0    0    0  501 -0.00000000000E+00 -0.00000000000E+00 -0.10359004763E+03  0.10359004763E+03  0.00000000000E+00 0.  1.
         23    2    1    2    0    0 -0.76650886772E+02  0.29092225752E+01 -0.31992331779E+02  0.12398648420E+03  0.92007157070E+02 0.  0.
         23    2    1    2    0    0  0.76650886772E+02 -0.29092225752E+01  0.11343795576E+03  0.16463923504E+03  0.91400688659E+02 0.  0.
          5    1    3    3  502    0 -0.37131544578E+00  0.26231282008E+02  0.15699835454E+02  0.30932068540E+02  0.47000000000E+01 0. -1.
         -5    1    4    4    0  503  0.25617421209E+02  0.93961336645E+01 -0.10771835565E+02  0.29709628720E+02  0.47000000000E+01 0.  1.
          5    1    4    4  503    0  0.51033465563E+02 -0.12305356240E+02  0.12420979133E+03  0.13492960632E+03  0.47000000000E+01 0. -1.
         -5    1    3    3    0  502 -0.76279571326E+02 -0.23322059432E+02 -0.47692167233E+02  0.93054415657E+02  0.47000000000E+01 0.  1.
<mgrwt>
<rscale>  0 0.11967143E+03</rscale>
<asrwt>0</asrwt>
<pdfrwt beam="1">  1        1 0.28467026E-01 0.11978789E+03</pdfrwt>
<pdfrwt beam="2">  1       -1 0.15936930E-01 0.11978789E+03</pdfrwt>
<totfact> 0.44920030E+03</totfact>
</mgrwt>
</event>
<event>
 8    1  0.9456677E-004  0.1275462E+03  0.7546771E-02  0.1231722E+00
          2   -1    0    0  501    0  0.00000000000E+00  0.00000000000E+00  0.53065015736E+03  0.53065015736E+03  0.00000000000E+00 0. -1.
         -2   -1    0    0    0  501 -0.00000000000E+00 -0.00000000000E+00 -0.40295338587E+02  0.40295338587E+02  0.00000000000E+00 0.  1.
         23    2    1    2    0    0  0.49685063865E+02 -0.72697509416E+02  0.10185775255E+03  0.16204697515E+03  0.90170321911E+02 0.  0.
         23    2    1    2    0    0 -0.49685063865E+02  0.72697509416E+02  0.38849706622E+03  0.40889852080E+03  0.92274028856E+02 0.  0.
          5    1    4    4  502    0 -0.28789579885E+02 -0.18578161850E+01  0.23602981773E+03  0.23783283257E+03  0.47000000000E+01 0. -1.
         -5    1    3    3    0  503  0.44359426443E+02 -0.11313107801E+02  0.38444795419E+01  0.46180246268E+02  0.47000000000E+01 0.  1.
          5    1    3    3  503    0  0.53256374223E+01 -0.61384401614E+02  0.98013273009E+02  0.11586672888E+03  0.47000000000E+01 0. -1.
         -5    1    4    4    0  502 -0.20895483980E+02  0.74555325601E+02  0.15246724850E+03  0.17106568823E+03  0.47000000000E+01 0.  1.
<mgrwt>
<rscale>  0 0.12716610E+03</rscale>
<asrwt>0</asrwt>
<pdfrwt beam="1">  1        2 0.81638481E-01 0.12754619E+03</pdfrwt>
<pdfrwt beam="2">  1       -2 0.61992833E-02 0.12754619E+03</pdfrwt>
<totfact> 0.78055147E+03</totfact>
</mgrwt>
</event>
<event>
 8    1  0.9456677E-004  0.1114007E+03  0.7546771E-02  0.1260561E+00
          1   -1    0    0  501    0  0.00000000000E+00  0.00000000000E+00  0.69406987161E+02  0.69406987161E+02  0.00000000000E+00 0. -1.
         -1   -1    0    0    0  501 -0.00000000000E+00 -0.00000000000E+00 -0.19077944703E+03  0.19077944703E+03  0.00000000000E+00 0.  1.
         23    2    1    2    0    0  0.26685787965E+02  0.46973587848E+02 -0.10485443732E+03  0.15298548478E+03  0.97424105306E+02 0.  0.
         23    2    1    2    0    0 -0.26685787965E+02 -0.46973587848E+02 -0.16518022553E+02  0.10720094941E+03  0.91107350145E+02 0.  0.
          5    1    4    4  502    0 -0.51895313026E+02 -0.48313766438E+02  0.82340523984E+01  0.71534838788E+02  0.47000000000E+01 0. -1.
         -5    1    3    3    0  503 -0.40698872902E+01  0.54690029074E+02 -0.10755039500E+03  0.12081697202E+03  0.47000000000E+01 0.  1.
          5    1    3    3  503    0  0.30755675256E+02 -0.77164412260E+01  0.26959576852E+01  0.32168512764E+02  0.47000000000E+01 0. -1.
         -5    1    4    4    0  502  0.25209525061E+02  0.13401785906E+01 -0.24752074951E+02  0.35666110621E+02  0.47000000000E+01 0.  1.
<mgrwt>
<rscale>  0 0.11000465E+03</rscale>
<asrwt>0</asrwt>
<pdfrwt beam="1">  1        1 0.10677998E-01 0.11140065E+03</pdfrwt>
<pdfrwt beam="2">  1       -1 0.29350684E-01 0.11140065E+03</pdfrwt>
<totfact> 0.58356909E+03</totfact>
</mgrwt>
</event>
<event>
 8    1  0.9456677E-004  0.9205397E+02  0.7546771E-02  0.1300494E+00
          2   -1    0    0  501    0  0.00000000000E+00  0.00000000000E+00  0.14586507268E+03  0.14586507268E+03  0.00000000000E+00 0. -1.
         -2   -1    0    0    0  501 -0.00000000000E+00 -0.00000000000E+00 -0.57185402628E+02  0.57185402628E+02  0.00000000000E+00 0.  1.
         23    2    1    2    0    0 -0.48277113502E+01  0.97405655517E+01  0.62963024248E+02  0.11152701920E+03  0.91409781621E+02 0.  0.
         23    2    1    2    0    0  0.48277113502E+01 -0.97405655517E+01  0.25716645806E+02  0.91523456105E+02  0.87160838292E+02 0.  0.
          5    1    3    3  502    0 -0.49483541359E+01 -0.31277126000E+02  0.62518742037E+02  0.70238365053E+02  0.47000000000E+01 0. -1.
         -5    1    3    3    0  502  0.12064278572E+00  0.41017691552E+02  0.44428221119E+00  0.41288654151E+02  0.47000000000E+01 0.  1.
          5    1    4    4  503    0  0.28218970679E+02  0.98653369611E+01  0.45649170519E+02  0.54768348055E+02  0.47000000000E+01 0. -1.
         -5    1    4    4    0  503 -0.23391259329E+02 -0.19605902513E+02 -0.19932524714E+02  0.36755108050E+02  0.47000000000E+01 0.  1.
<mgrwt>
<rscale>  0 0.90980910E+02</rscale>
<asrwt>0</asrwt>
<pdfrwt beam="1">  1        2 0.22440780E-01 0.92053971E+02</pdfrwt>
<pdfrwt beam="2">  1       -2 0.87977543E-02 0.92053971E+02</pdfrwt>
<totfact> 0.17706811E+04</totfact>
</mgrwt>
</event>
<event>
 8    1  0.9456677E-004  0.1163538E+03  0.7546771E-02  0.1255772E+00
          1   -1    0    0  501    0  0.00000000000E+00  0.00000000000E+00  0.65653533165E+03  0.65653533165E+03  0.00000000000E+00 0. -1.
         -1   -1    0    0    0  501 -0.00000000000E+00 -0.00000000000E+00 -0.46992164061E+02  0.46992164061E+02  0.00000000000E+00 0.  1.
         23    2    1    2    0    0  0.30720960842E+02  0.35170512197E+02  0.58763008310E+03  0.59903867353E+03  0.10657145708E+03 0.  0.
         23    2    1    2    0    0 -0.30720960842E+02 -0.35170512197E+02  0.21913084494E+02  0.10448882218E+03  0.90867971945E+02 0.  0.
          5    1    3    3  502    0  0.64815149064E+02  0.31990104225E+02  0.27047056077E+03  0.28000140100E+03  0.47000000000E+01 0. -1.
         -5    1    3    3    0  502 -0.34094188222E+02  0.31804079719E+01  0.31715952233E+03  0.31903727254E+03  0.47000000000E+01 0.  1.
          5    1    4    4  503    0 -0.20892405954E+02 -0.55128725770E+02  0.43280205405E+02  0.73286664623E+02  0.47000000000E+01 0. -1.
         -5    1    4    4    0  503 -0.98285548879E+01  0.19958213573E+02 -0.21367120912E+02  0.31202157558E+02  0.47000000000E+01 0.  1.
<mgrwt>
<rscale>  0 0.11263188E+03</rscale>
<asrwt>0</asrwt>
<pdfrwt beam="1">  1        1 0.10100543E+00 0.11635385E+03</pdfrwt>
<pdfrwt beam="2">  1       -1 0.72295642E-02 0.11635385E+03</pdfrwt>
<totfact> 0.30250047E+03</totfact>
</mgrwt>
</event>
<event>
 8    1  0.1128695E-003  0.1027728E+03  0.7546771E-02  0.1275099E+00
          1   -1    0    0  501    0  0.00000000000E+00  0.00000000000E+00  0.91240548273E+02  0.91240548273E+02  0.00000000000E+00 0. -1.
         -1   -1    0    0    0  501 -0.00000000000E+00 -0.00000000000E+00 -0.58405041679E+03  0.58405041679E+03  0.00000000000E+00 0.  1.
         23    2    1    2    0    0  0.44442223973E+02 -0.84853040966E-01  0.56552400931E+02  0.11639817296E+03  0.91516349061E+02 0.  0.
         23    2    1    2    0    0 -0.44442223973E+02  0.84853040966E-01 -0.54936226945E+03  0.55889279210E+03  0.92666776677E+02 0.  0.
          5    1    4    4  502    0 -0.21333037974E+02  0.45742657151E+02 -0.30523742646E+03  0.30941794664E+03  0.47000000000E+01 0. -1.
         -5    1    4    4    0  502 -0.23109186000E+02 -0.45657804110E+02 -0.24412484299E+03  0.24947484547E+03  0.47000000000E+01 0.  1.
          5    1    3    3  503    0  0.25879747942E+02  0.38095091698E+02  0.57318992799E+02  0.73678723527E+02  0.47000000000E+01 0. -1.
         -5    1    3    3    0  503  0.18562476031E+02 -0.38179944739E+02 -0.76659186816E+00  0.42719449432E+02  0.47000000000E+01 0.  1.
<mgrwt>
<rscale>  0 0.10251280E+03</rscale>
<asrwt>0</asrwt>
<pdfrwt beam="1">  1        1 0.14037008E-01 0.10277281E+03</pdfrwt>
<pdfrwt beam="2">  1       -1 0.89853908E-01 0.10277281E+03</pdfrwt>
<totfact> 0.51711965E+02</totfact>
</mgrwt>
</event>
<event>
 8    1  0.9456677E-004  0.9786501E+02  0.7546771E-02  0.1286564E+00
         -1   -1    0    0    0  501 -0.00000000000E+00  0.00000000000E+00  0.31061135989E+03  0.31061135989E+03  0.00000000000E+00 0.  1.
          1   -1    0    0  501    0  0.00000000000E+00 -0.00000000000E+00 -0.29937969646E+02  0.29937969646E+02  0.00000000000E+00 0. -1.
         23    2    1    2    0    0 -0.32517852741E+02  0.19016379085E+01  0.14664276553E+03  0.17459220219E+03  0.88979263926E+02 0.  0.
         23    2    1    2    0    0  0.32517852741E+02 -0.19016379085E+01  0.13403062471E+03  0.16595712734E+03  0.92285062621E+02 0.  0.
          5    1    3    3  502    0 -0.16254174077E+02 -0.42642850467E+02  0.85948792989E+02  0.97426361357E+02  0.47000000000E+01 0. -1.
         -5    1    4    4    0  503  0.40992169274E+02 -0.29491415106E+02  0.12570869866E+03  0.13555393179E+03  0.47000000000E+01 0.  1.
          5    1    4    4  503    0 -0.84743165331E+01  0.27589777197E+02  0.83219260514E+01  0.30403195551E+02  0.47000000000E+01 0. -1.
         -5    1    3    3    0  502 -0.16263678664E+02  0.44544488376E+02  0.60693972544E+02  0.77165840833E+02  0.47000000000E+01 0.  1.
<mgrwt>
<rscale>  0 0.97077830E+02</rscale>
<asrwt>0</asrwt>
<pdfrwt beam="1">  1        1 0.46058417E-02 0.97865008E+02</pdfrwt>
<pdfrwt beam="2">  1       -1 0.47786361E-01 0.97865008E+02</pdfrwt>
<totfact> 0.76685459E+03</totfact>
</mgrwt>
</event>
<event>
 8    1  0.9456677E-004  0.1121873E+03  0.7546771E-02  0.1256838E+00
         -1   -1    0    0    0  501 -0.00000000000E+00  0.00000000000E+00  0.29461308133E+02  0.29461308133E+02  0.00000000000E+00 0.  1.
          1   -1    0    0  501    0  0.00000000000E+00 -0.00000000000E+00 -0.47148320024E+03  0.47148320024E+03  0.00000000000E+00 0. -1.
         23    2    1    2    0    0  0.41067782950E+02  0.48945432476E+02 -0.29916127807E+03  0.31929884740E+03  0.91498991789E+02 0.  0.
         23    2    1    2    0    0 -0.41067782950E+02 -0.48945432476E+02 -0.14286061404E+03  0.18164566097E+03  0.92215903998E+02 0.  0.
          5    1    4    4  502    0  0.24471822224E+02 -0.34350352152E+02 -0.74312050417E+02  0.85575625110E+02  0.47000000000E+01 0. -1.
         -5    1    4    4    0  502 -0.65539605174E+02 -0.14595080325E+02 -0.68548563623E+02  0.96070035863E+02  0.47000000000E+01 0.  1.
          5    1    3    3  503    0  0.30594426483E+02 -0.22716763649E+02 -0.12012605238E+03  0.12611276202E+03  0.47000000000E+01 0. -1.
         -5    1    3    3    0  503  0.10473356467E+02  0.71662196125E+02 -0.17903522569E+03  0.19318608538E+03  0.47000000000E+01 0.  1.
<mgrwt>
<rscale>  0 0.11203988E+03</rscale>
<asrwt>0</asrwt>
<pdfrwt beam="1">  1        1 0.72535877E-01 0.11218730E+03</pdfrwt>
<pdfrwt beam="2">  1       -1 0.45325089E-02 0.11218730E+03</pdfrwt>
<totfact> 0.93580742E+03</totfact>
</mgrwt>
</event>
<event>
 8    1  0.9456677E-004  0.9849307E+02  0.7546771E-02  0.1284206E+00
         -1   -1    0    0    0  501 -0.00000000000E+00  0.00000000000E+00  0.62010595942E+03  0.62010595942E+03  0.00000000000E+00 0.  1.
          1   -1    0    0  501    0  0.00000000000E+00 -0.00000000000E+00 -0.16592580726E+02  0.16592580726E+02  0.00000000000E+00 0. -1.
         23    2    1    2    0    0 -0.19918586694E+02 -0.15820393529E+02  0.21959843325E+03  0.24067479571E+03  0.95151723368E+02 0.  0.
         23    2    1    2    0    0  0.19918586694E+02  0.15820393529E+02  0.38391494545E+03  0.39602374444E+03  0.93792781543E+02 0.  0.
          5    1    3    3  502    0 -0.17274317104E+02 -0.54910667799E+02  0.11094863662E+03  0.12508106746E+03  0.47000000000E+01 0. -1.
         -5    1    3    3    0  502 -0.26442695904E+01  0.39090274269E+02  0.10864979663E+03  0.11559372825E+03  0.47000000000E+01 0.  1.
          5    1    4    4  503    0 -0.20402850437E+02 -0.29053318790E+02  0.11820025289E+03  0.12350611896E+03  0.47000000000E+01 0. -1.
         -5    1    4    4    0  503  0.40321437131E+02  0.44873712319E+02  0.26571469257E+03  0.27251762548E+03  0.47000000000E+01 0.  1.
<mgrwt>
<rscale>  0 0.98163369E+02</rscale>
<asrwt>0</asrwt>
<pdfrwt beam="1">  1        1 0.25527052E-02 0.98493073E+02</pdfrwt>
<pdfrwt beam="2">  1       -1 0.95400899E-01 0.98493073E+02</pdfrwt>
<totfact> 0.44716801E+03</totfact>
</mgrwt>
</event>
<event>
 8    1  0.9456677E-004  0.9883653E+02  0.7546771E-02  0.1283944E+00
          2   -1    0    0  501    0  0.00000000000E+00  0.00000000000E+00  0.11268917682E+03  0.11268917682E+03  0.00000000000E+00 0. -1.
         -2   -1    0    0    0  501 -0.00000000000E+00 -0.00000000000E+00 -0.24471117280E+03  0.24471117280E+03  0.00000000000E+00 0.  1.
         23    2    1    2    0    0 -0.66893652694E+01 -0.33810354502E+02 -0.21073020089E+03  0.23275712030E+03  0.92632455472E+02 0.  0.
         23    2    1    2    0    0  0.66893652694E+01  0.33810354502E+02  0.78708204909E+02  0.12464322931E+03  0.90294326588E+02 0.  0.
          5    1    3    3  502    0 -0.43290232317E+02 -0.40290897546E+02 -0.15115478739E+03  0.16237998766E+03  0.47000000000E+01 0. -1.
         -5    1    3    3    0  502  0.36600867048E+02  0.64805430436E+01 -0.59575413493E+02  0.70377132647E+02  0.47000000000E+01 0.  1.
          5    1    4    4  503    0  0.22027536888E+01  0.62616374041E+02  0.35079717970E+02  0.71960677003E+02  0.47000000000E+01 0. -1.
         -5    1    4    4    0  503  0.44866115807E+01 -0.28806019539E+02  0.43628486939E+02  0.52682552309E+02  0.47000000000E+01 0.  1.
<mgrwt>
<rscale>  0 0.98284948E+02</rscale>
<asrwt>0</asrwt>
<pdfrwt beam="1">  1        2 0.17336797E-01 0.98836529E+02</pdfrwt>
<pdfrwt beam="2">  1       -2 0.37647872E-01 0.98836529E+02</pdfrwt>
<totfact> 0.20937106E+03</totfact>
</mgrwt>
</event>
<event>
 8    1  0.9456677E-004  0.1131542E+03  0.7546771E-02  0.1263717E+00
         -2   -1    0    0    0  501 -0.00000000000E+00  0.00000000000E+00  0.13894322782E+02  0.13894322782E+02  0.00000000000E+00 0.  1.
          2   -1    0    0  501    0  0.00000000000E+00 -0.00000000000E+00 -0.77983547730E+03  0.77983547730E+03  0.00000000000E+00 0. -1.
         23    2    1    2    0    0  0.24499549280E+02 -0.75522904023E+01 -0.34457624989E+03  0.35743602850E+03  0.91490204258E+02 0.  0.
         23    2    1    2    0    0 -0.24499549280E+02  0.75522904023E+01 -0.42136490463E+03  0.43629377158E+03  0.11021164759E+03 0.  0.
          5    1    4    4  502    0 -0.22241754412E+02 -0.33533940981E+02 -0.35992790086E+03  0.36220077948E+03  0.47000000000E+01 0. -1.
         -5    1    3    3    0  503  0.51460485933E+02  0.20707749932E+02 -0.20005071926E+03  0.20765204742E+03  0.47000000000E+01 0.  1.
          5    1    3    3  503    0 -0.26960936653E+02 -0.28260040334E+02 -0.14452553063E+03  0.14978398108E+03  0.47000000000E+01 0. -1.
         -5    1    4    4    0  502 -0.22577948678E+01  0.41086231383E+02 -0.61437003764E+02  0.74092992101E+02  0.47000000000E+01 0.  1.
<mgrwt>
<rscale>  0 0.10831791E+03</rscale>
<asrwt>0</asrwt>
<pdfrwt beam="1">  1        2 0.11997467E+00 0.11315420E+03</pdfrwt>
<pdfrwt beam="2">  1       -2 0.21375884E-02 0.11315420E+03</pdfrwt>
<totfact> 0.23903371E+04</totfact>
</mgrwt>
</event>
<event>
 8    1  0.9456677E-004  0.9593203E+02  0.7546771E-02  0.1289759E+00
         -1   -1    0    0    0  501 -0.00000000000E+00  0.00000000000E+00  0.16810778052E+02  0.16810778052E+02  0.00000000000E+00 0.  1.
          1   -1    0    0  501    0  0.00000000000E+00 -0.00000000000E+00 -0.70591860169E+03  0.70591860169E+03  0.00000000000E+00 0. -1.
         23    2    1    2    0    0 -0.10380238416E+02 -0.85722555356E+01 -0.17135845002E+03  0.19638399129E+03  0.94982739095E+02 0.  0.
         23    2    1    2    0    0  0.10380238416E+02  0.85722555356E+01 -0.51774937362E+03  0.52634538845E+03  0.93775376043E+02 0.  0.
          5    1    4    4  502    0  0.42339053259E+02  0.26137688963E+02 -0.18718540607E+03  0.19374271719E+03  0.47000000000E+01 0. -1.
         -5    1    4    4    0  502 -0.31958814844E+02 -0.17565433427E+02 -0.33056396754E+03  0.33260267127E+03  0.47000000000E+01 0.  1.
          5    1    3    3  503    0 -0.45831297791E+02  0.29752477832E+01 -0.14007617675E+03  0.14748825462E+03  0.47000000000E+01 0. -1.
         -5    1    3    3    0  503  0.35451059375E+02 -0.11547503319E+02 -0.31282273270E+02  0.48895736672E+02  0.47000000000E+01 0.  1.
<mgrwt>
<rscale>  0 0.95631804E+02</rscale>
<asrwt>0</asrwt>
<pdfrwt beam="1">  1        1 0.10860289E+00 0.95932026E+02</pdfrwt>
<pdfrwt beam="2">  1       -1 0.25862729E-02 0.95932026E+02</pdfrwt>
<totfact> 0.12162212E+04</totfact>
</mgrwt>
</event>
<event>
 8    1  0.9456677E-004  0.9665007E+02  0.7546771E-02  0.1287989E+00
         -1   -1    0    0    0  501 -0.00000000000E+00  0.00000000000E+00  0.10274860184E+03  0.10274860184E+03  0.00000000000E+00 0.  1.
          1   -1    0    0  501    0  0.00000000000E+00 -0.00000000000E+00 -0.95808428959E+02  0.95808428959E+02  0.00000000000E+00 0. -1.
         23    2    1    2    0    0  0.86994277855E+01  0.25962850587E+02  0.27713816532E+02  0.99699661761E+02  0.91772639027E+02 0.  0.
         23    2    1    2    0    0 -0.86994277855E+01 -0.25962850587E+02 -0.20773643654E+02  0.98857369035E+02  0.92690266412E+02 0.  0.
          5    1    4    4  502    0 -0.37863915964E+02  0.11539740577E+02 -0.30432087010E+02  0.50150211012E+02  0.47000000000E+01 0. -1.
         -5    1    4    4    0  502  0.29164488179E+02 -0.37502591163E+02  0.96584433564E+01  0.48707158024E+02  0.47000000000E+01 0.  1.
          5    1    3    3  503    0 -0.27115384001E+02  0.24420709268E+02 -0.18371740603E+02  0.41124517547E+02  0.47000000000E+01 0. -1.
         -5    1    3    3    0  503  0.35814811787E+02  0.15421413182E+01  0.46085557135E+02  0.58575144214E+02  0.47000000000E+01 0.  1.
<mgrwt>
<rscale>  0 0.96429391E+02</rscale>
<asrwt>0</asrwt>
<pdfrwt beam="1">  1        1 0.14739758E-01 0.96650065E+02</pdfrwt>
<pdfrwt beam="2">  1       -1 0.15807477E-01 0.96650065E+02</pdfrwt>
<totfact> 0.10264284E+04</totfact>
</mgrwt>
</event>
<event>
 8    1  0.9456677E-004  0.9317462E+02  0.7546771E-02  0.1296114E+00
          3   -1    0    0  501    0  0.00000000000E+00  0.00000000000E+00  0.81294871680E+02  0.81294871680E+02  0.00000000000E+00 0. -1.
         -3   -1    0    0    0  501 -0.00000000000E+00 -0.00000000000E+00 -0.12022721849E+03  0.12022721849E+03  0.00000000000E+00 0.  1.
         23    2    1    2    0    0  0.17143503249E+02  0.10809854308E+01 -0.55123069924E+02  0.10825924123E+03  0.91577520391E+02 0.  0.
         23    2    1    2    0    0 -0.17143503249E+02 -0.10809854308E+01  0.16190723109E+02  0.93262848944E+02  0.90226111770E+02 0.  0.
          5    1    4    4  502    0 -0.20542628040E+02  0.22995269109E+02  0.45328136783E+02  0.55022831192E+02  0.47000000000E+01 0. -1.
         -5    1    4    4    0  502  0.33991247913E+01 -0.24076254540E+02 -0.29137413674E+02  0.38240017751E+02  0.47000000000E+01 0.  1.
          5    1    3    3  503    0 -0.24538091036E+02 -0.30299804396E+02 -0.33378637490E+02  0.51540464674E+02  0.47000000000E+01 0. -1.
         -5    1    3    3    0  503  0.41681594285E+02  0.31380789826E+02 -0.21744432434E+02  0.56718776557E+02  0.47000000000E+01 0.  1.
<mgrwt>
<rscale>  0 0.92840858E+02</rscale>
<asrwt>0</asrwt>
<pdfrwt beam="1">  1        3 0.12506903E-01 0.93174624E+02</pdfrwt>
<pdfrwt beam="2">  1       -3 0.18496495E-01 0.93174624E+02</pdfrwt>
<totfact> 0.27715046E+03</totfact>
</mgrwt>
</event>
<event>
 8    1  0.9456677E-004  0.9219840E+02  0.7546771E-02  0.1300557E+00
          1   -1    0    0  501    0  0.00000000000E+00  0.00000000000E+00  0.23048465450E+03  0.23048465450E+03  0.00000000000E+00 0. -1.
         -1   -1    0    0    0  501 -0.00000000000E+00 -0.00000000000E+00 -0.42909871843E+02  0.42909871843E+02  0.00000000000E+00 0.  1.
         23    2    1    2    0    0 -0.10767081851E+02  0.50988455726E+01  0.15469667714E+03  0.18008777615E+03  0.91425471959E+02 0.  0.
         23    2    1    2    0    0  0.10767081851E+02 -0.50988455726E+01  0.32878105509E+02  0.93306750186E+02  0.86505789000E+02 0.  0.
          5    1    4    4  502    0  0.23777130852E+02  0.32340190716E+02  0.34821477714E+02  0.53346651228E+02  0.47000000000E+01 0. -1.
         -5    1    3    3    0  503 -0.31471697974E+02  0.31216852546E+02  0.37812281696E+02  0.58453556806E+02  0.47000000000E+01 0.  1.
          5    1    3    3  503    0  0.20704616123E+02 -0.26118006974E+02  0.11688439545E+03  0.12163421935E+03  0.47000000000E+01 0. -1.
         -5    1    4    4    0  502 -0.13010049001E+02 -0.37439036288E+02 -0.19433722047E+01  0.39960098958E+02  0.47000000000E+01 0.  1.
<mgrwt>
<rscale>  0 0.90954419E+02</rscale>
<asrwt>0</asrwt>
<pdfrwt beam="1">  1        1 0.35459177E-01 0.92198401E+02</pdfrwt>
<pdfrwt beam="2">  1       -1 0.66015189E-02 0.92198401E+02</pdfrwt>
<totfact> 0.12822809E+04</totfact>
</mgrwt>
</event>
<event>
 8    1  0.9456677E-004  0.9883208E+02  0.7546771E-02  0.1286583E+00
         -3   -1    0    0    0  501 -0.00000000000E+00  0.00000000000E+00  0.55727741824E+03  0.55727741824E+03  0.00000000000E+00 0.  1.
          3   -1    0    0  501    0  0.00000000000E+00 -0.00000000000E+00 -0.16768390848E+02  0.16768390848E+02  0.00000000000E+00 0. -1.
         23    2    1    2    0    0  0.89083795314E+01  0.94553567156E+01  0.30709845698E+03  0.32057337631E+03  0.91044298667E+02 0.  0.
         23    2    1    2    0    0 -0.89083795314E+01 -0.94553567156E+01  0.23341057041E+03  0.25347243278E+03  0.97974572232E+02 0.  0.
          5    1    4    4  502    0  0.96910169552E+01 -0.42565255981E+02  0.19254517100E+03  0.19748784697E+03  0.47000000000E+01 0. -1.
         -5    1    4    4    0  502 -0.18599396487E+02  0.33109899266E+02  0.40865399405E+02  0.55984585803E+02  0.47000000000E+01 0.  1.
          5    1    3    3  503    0 -0.25236965175E+02 -0.16710772552E+02  0.42095073129E+02  0.52059960740E+02  0.47000000000E+01 0. -1.
         -5    1    3    3    0  503  0.34145344706E+02  0.26166129268E+02  0.26500338385E+03  0.26851341557E+03  0.47000000000E+01 0.  1.
<mgrwt>
<rscale>  0 0.97069055E+02</rscale>
<asrwt>0</asrwt>
<pdfrwt beam="1">  1        3 0.25797529E-02 0.98832079E+02</pdfrwt>
<pdfrwt beam="2">  1       -3 0.85734973E-01 0.98832079E+02</pdfrwt>
<totfact> 0.17865899E+03</totfact>
</mgrwt>
</event>
<event>
 8    1  0.9456677E-004  0.1025775E+03  0.7546771E-02  0.1275731E+00
          1   -1    0    0  501    0  0.00000000000E+00  0.00000000000E+00  0.22079601663E+02  0.22079601663E+02  0.00000000000E+00 0. -1.
         -1   -1    0    0    0  501 -0.00000000000E+00 -0.00000000000E+00 -0.48051381002E+03  0.48051381002E+03  0.00000000000E+00 0.  1.
         23    2    1    2    0    0 -0.41808322002E+02 -0.30311332276E+01 -0.18979931025E+03  0.21504019777E+03  0.91985786542E+02 0.  0.
         23    2    1    2    0    0  0.41808322002E+02  0.30311332276E+01 -0.26863489811E+03  0.28755321392E+03  0.93621679102E+02 0.  0.
          5    1    4    4  502    0 -0.19863156798E+02  0.28722658641E+02 -0.10446015106E+03  0.11024313709E+03  0.47000000000E+01 0. -1.
         -5    1    3    3    0  503  0.12710540388E+02  0.31603613655E+02 -0.46940469822E+02  0.58188005122E+02  0.47000000000E+01 0.  1.
          5    1    3    3  503    0 -0.54518862390E+02 -0.34634746883E+02 -0.14285884043E+03  0.15685219265E+03  0.47000000000E+01 0. -1.
         -5    1    4    4    0  502  0.61671478800E+02 -0.25691525413E+02 -0.16417474705E+03  0.17731007683E+03  0.47000000000E+01 0.  1.
<mgrwt>
<rscale>  0 0.10220273E+03</rscale>
<asrwt>0</asrwt>
<pdfrwt beam="1">  1        1 0.33968618E-02 0.10257749E+03</pdfrwt>
<pdfrwt beam="2">  1       -1 0.73925200E-01 0.10257749E+03</pdfrwt>
<totfact> 0.51272117E+03</totfact>
</mgrwt>
</event>
<event>
 8    1  0.9456677E-004  0.9681064E+02  0.7546771E-02  0.1287831E+00
         -1   -1    0    0    0  501 -0.00000000000E+00  0.00000000000E+00  0.92963087742E+01  0.92963087742E+01  0.00000000000E+00 0.  1.
          1   -1    0    0  501    0  0.00000000000E+00 -0.00000000000E+00 -0.10073142186E+04  0.10073142186E+04  0.00000000000E+00 0. -1.
         23    2    1    2    0    0  0.23442073386E+02 -0.15929840579E+02 -0.44684848892E+03  0.45721534463E+03  0.92568940198E+02 0.  0.
         23    2    1    2    0    0 -0.23442073386E+02  0.15929840579E+02 -0.55116942095E+03  0.55939518278E+03  0.91279512001E+02 0.  0.
          5    1    3    3  502    0  0.27164481701E+02 -0.51229977699E+02 -0.22017345069E+03  0.22772979179E+03  0.47000000000E+01 0. -1.
         -5    1    3    3    0  502 -0.37224083151E+01  0.35300137120E+02 -0.22667503823E+03  0.22948555284E+03  0.47000000000E+01 0.  1.
          5    1    4    4  503    0 -0.47626101344E+02 -0.14609327418E+02 -0.20542144107E+03  0.21142785159E+03  0.47000000000E+01 0. -1.
         -5    1    4    4    0  503  0.24184027958E+02  0.30539167996E+02 -0.34574797988E+03  0.34796733120E+03  0.47000000000E+01 0.  1.
<mgrwt>
<rscale>  0 0.96501108E+02</rscale>
<asrwt>0</asrwt>
<pdfrwt beam="1">  1        1 0.15497139E+00 0.96810636E+02</pdfrwt>
<pdfrwt beam="2">  1       -1 0.14302016E-02 0.96810636E+02</pdfrwt>
<totfact> 0.16476257E+04</totfact>
</mgrwt>
</event>
<event>
 8    1  0.9456677E-004  0.1009838E+03  0.7546771E-02  0.1286770E+00
          1   -1    0    0  501    0  0.00000000000E+00  0.00000000000E+00  0.73314377747E+03  0.73314377747E+03  0.00000000000E+00 0. -1.
         -1   -1    0    0    0  501 -0.00000000000E+00 -0.00000000000E+00 -0.12022593806E+02  0.12022593806E+02  0.00000000000E+00 0.  1.
         23    2    1    2    0    0  0.27829496568E+02  0.12998639482E+02  0.42521857867E+03  0.43704528067E+03  0.96199231826E+02 0.  0.
         23    2    1    2    0    0 -0.27829496568E+02 -0.12998639482E+02  0.29590260500E+03  0.30812109061E+03  0.80229728435E+02 0.  0.
          5    1    4    4  502    0 -0.68703729652E+01 -0.38736381602E+02  0.23749132446E+03  0.24077360420E+03  0.47000000000E+01 0. -1.
         -5    1    4    4    0  502 -0.20959123602E+02  0.25737742120E+02  0.58411280535E+02  0.67347486407E+02  0.47000000000E+01 0.  1.
          5    1    3    3  503    0  0.59224945590E+02  0.78819919473E+01  0.17971028097E+03  0.18944021501E+03  0.47000000000E+01 0. -1.
         -5    1    3    3    0  503 -0.31395449022E+02  0.51166475344E+01  0.24550829770E+03  0.24760506566E+03  0.47000000000E+01 0.  1.
<mgrwt>
<rscale>  0 0.96983501E+02</rscale>
<asrwt>0</asrwt>
<pdfrwt beam="1">  1        1 0.11279132E+00 0.10098385E+03</pdfrwt>
<pdfrwt beam="2">  1       -1 0.18496304E-02 0.10098385E+03</pdfrwt>
<totfact> 0.18710228E+04</totfact>
</mgrwt>
</event>
<event>
 8    1  0.9456677E-004  0.1039108E+03  0.7546771E-02  0.1279127E+00
         -2   -1    0    0    0  501 -0.00000000000E+00  0.00000000000E+00  0.75518179319E+01  0.75518179319E+01  0.00000000000E+00 0.  1.
          2   -1    0    0  501    0  0.00000000000E+00 -0.00000000000E+00 -0.13630646674E+04  0.13630646674E+04  0.00000000000E+00 0. -1.
         23    2    1    2    0    0 -0.45103386226E+01  0.14489888954E+02 -0.90739977152E+03  0.91333006274E+03  0.10279668339E+03 0.  0.
         23    2    1    2    0    0  0.45103386226E+01 -0.14489888954E+02 -0.44811307796E+03  0.45728642261E+03  0.89862348187E+02 0.  0.
          5    1    4    4  502    0  0.24222051805E+02 -0.40547885471E+02 -0.14949158165E+03  0.15684598112E+03  0.47000000000E+01 0. -1.
         -5    1    3    3    0  503 -0.50516475817E+02  0.24302309293E+02 -0.53168014337E+03  0.53464790415E+03  0.47000000000E+01 0.  1.
          5    1    3    3  503    0  0.46006137195E+02 -0.98124203387E+01 -0.37571962816E+03  0.37868215859E+03  0.47000000000E+01 0. -1.
         -5    1    4    4    0  502 -0.19711713182E+02  0.26057996516E+02 -0.29862149631E+03  0.30044044148E+03  0.47000000000E+01 0.  1.
<mgrwt>
<rscale>  0 0.10055799E+03</rscale>
<asrwt>0</asrwt>
<pdfrwt beam="1">  1        2 0.20970200E+00 0.10391082E+03</pdfrwt>
<pdfrwt beam="2">  1       -2 0.11618196E-02 0.10391082E+03</pdfrwt>
<totfact> 0.26042841E+04</totfact>
</mgrwt>
</event>
<event>
 8    1  0.9456677E-004  0.9425290E+02  0.7546771E-02  0.1292995E+00
         -1   -1    0    0    0  501 -0.00000000000E+00  0.00000000000E+00  0.35759638755E+03  0.35759638755E+03  0.00000000000E+00 0.  1.
          1   -1    0    0  501    0  0.00000000000E+00 -0.00000000000E+00 -0.25493206488E+02  0.25493206488E+02  0.00000000000E+00 0. -1.
         23    2    1    2    0    0  0.19914027512E+02  0.31388149642E+01  0.13390004971E+03  0.16361729370E+03  0.91842119064E+02 0.  0.
         23    2    1    2    0    0 -0.19914027512E+02 -0.31388149642E+01  0.19820313135E+03  0.21947230033E+03  0.92071649743E+02 0.  0.
          5    1    3    3  502    0 -0.24014245033E+02 -0.67615639724E+01  0.10906032942E+03  0.11197610534E+03  0.47000000000E+01 0. -1.
         -5    1    4    4    0  503  0.29323230440E+02 -0.26265775638E+02  0.84569664949E+02  0.93401611565E+02  0.47000000000E+01 0.  1.
          5    1    4    4  503    0 -0.49237257952E+02  0.23126960674E+02  0.11363346640E+03  0.12607068877E+03  0.47000000000E+01 0. -1.
         -5    1    3    3    0  502  0.43928272545E+02  0.99003789366E+01  0.24839720286E+02  0.51641188365E+02  0.47000000000E+01 0.  1.
<mgrwt>
<rscale>  0 0.94196799E+02</rscale>
<asrwt>0</asrwt>
<pdfrwt beam="1">  1        1 0.39220320E-02 0.94252901E+02</pdfrwt>
<pdfrwt beam="2">  1       -1 0.55014825E-01 0.94252901E+02</pdfrwt>
<totfact> 0.73604480E+03</totfact>
</mgrwt>
</event>
<event>
 7    1  0.9514421E-004  0.1536821E+03  0.7546771E-02  0.1205521E+00
          3   -1    0    0  501    0  0.00000000000E+00  0.00000000000E+00  0.10581196093E+03  0.10581196093E+03  0.00000000000E+00 0. -1.
         -3   -1    0    0    0  501 -0.00000000000E+00 -0.00000000000E+00 -0.29957983316E+03  0.29957983316E+03  0.00000000000E+00 0.  1.
         23    2    1    2    0    0 -0.60162611285E+02  0.28283778180E+01  0.34936650919E+02  0.12984878436E+03  0.10960199681E+03 0.  0.
          5    1    1    2  502    0 -0.12258562874E+02  0.57198506089E+02 -0.74295600217E+02  0.94677704208E+02  0.47000000000E+01 0. -1.
         -5    1    3    3    0  503  0.80772196207E+01 -0.23122873990E+02 -0.24970059948E+02  0.35291679928E+02  0.47000000000E+01 0.  1.
          5    1    3    3  503    0 -0.68239830906E+02  0.25951251808E+02  0.59906710867E+02  0.94557104436E+02  0.47000000000E+01 0. -1.
         -5    1    1    2    0  502  0.72421174159E+02 -0.60026883907E+02 -0.15440892293E+03  0.18086530552E+03  0.47000000000E+01 0.  1.
<mgrwt>
<rscale>  0 0.14596461E+03</rscale>
<asrwt>0</asrwt>
<pdfrwt beam="1">  1        3 0.16278763E-01 0.15368211E+03</pdfrwt>
<pdfrwt beam="2">  1       -3 0.46089205E-01 0.15368211E+03</pdfrwt>
<totfact> 0.35816944E+02</totfact>
</mgrwt>
</event>
<event>
 8    1  0.9456677E-004  0.9064955E+02  0.7546771E-02  0.1306942E+00
          1   -1    0    0  501    0  0.00000000000E+00  0.00000000000E+00  0.29621645179E+03  0.29621645179E+03  0.00000000000E+00 0. -1.
         -1   -1    0    0    0  501 -0.00000000000E+00 -0.00000000000E+00 -0.29372755287E+02  0.29372755287E+02  0.00000000000E+00 0.  1.
         23    2    1    2    0    0 -0.57576216069E+01  0.17258401466E+01  0.65348013068E+02  0.10464158647E+03  0.81506871346E+02 0.  0.
         23    2    1    2    0    0  0.57576216069E+01 -0.17258401466E+01  0.20149568343E+03  0.22094762060E+03  0.90450051837E+02 0.  0.
          5    1    4    4  502    0  0.11939294269E+02  0.26003851574E+02  0.18599976727E+03  0.18824651515E+03  0.47000000000E+01 0. -1.
         -5    1    4    4    0  502 -0.61816726623E+01 -0.27729691720E+02  0.15495916167E+02  0.32701105450E+02  0.47000000000E+01 0.  1.
          5    1    3    3  503    0 -0.30425851835E+02  0.26560194037E+02  0.15423050965E+02  0.43487203500E+02  0.47000000000E+01 0. -1.
         -5    1    3    3    0  503  0.24668230228E+02 -0.24834353890E+02  0.49924962103E+02  0.61154382972E+02  0.47000000000E+01 0.  1.
<mgrwt>
<rscale>  0 0.88331828E+02</rscale>
<asrwt>0</asrwt>
<pdfrwt beam="1">  1        1 0.45571760E-01 0.90649548E+02</pdfrwt>
<pdfrwt beam="2">  1       -1 0.45188856E-02 0.90649548E+02</pdfrwt>
<totfact> 0.16444734E+04</totfact>
</mgrwt>
</event>
<event>
 7    1  0.9456677E-004  0.1804311E+03  0.7546771E-02  0.1189623E+00
         -2   -1    0    0    0  501 -0.00000000000E+00  0.00000000000E+00  0.44084131271E+03  0.44084131271E+03  0.00000000000E+00 0.  1.
          2   -1    0    0  501    0  0.00000000000E+00 -0.00000000000E+00 -0.53450564010E+02  0.53450564010E+02  0.00000000000E+00 0. -1.
         23    2    1    2    0    0 -0.16042411284E+02 -0.58531913508E+02  0.71847505238E+02  0.13080468731E+03  0.90909066400E+02 0.  0.
          5    1    3    3  502    0 -0.45578076819E+02 -0.52579435473E+02  0.23408269372E+02  0.73566263981E+02  0.47000000000E+01 0. -1.
         -5    1    1    2    0  503 -0.29261759979E+02  0.98761582445E+02  0.26531123130E+03  0.28464405882E+03  0.47000000000E+01 0.  1.
          5    1    1    2  503    0  0.45304171263E+02 -0.40229668938E+02  0.50232012158E+02  0.78843130596E+02  0.47000000000E+01 0. -1.
         -5    1    3    3    0  502  0.29535665536E+02 -0.59524780347E+01  0.48439235866E+02  0.57238423325E+02  0.47000000000E+01 0.  1.
<mgrwt>
<rscale>  0 0.15918225E+03</rscale>
<asrwt>0</asrwt>
<pdfrwt beam="1">  1        2 0.82231640E-02 0.18043115E+03</pdfrwt>
<pdfrwt beam="2">  1       -2 0.67821738E-01 0.18043115E+03</pdfrwt>
<totfact> 0.16440207E+03</totfact>
</mgrwt>
</event>
<event>
 8    1  0.9456677E-004  0.9652143E+02  0.7546771E-02  0.1288734E+00
         -1   -1    0    0    0  501 -0.00000000000E+00  0.00000000000E+00  0.13964080765E+03  0.13964080765E+03  0.00000000000E+00 0.  1.
          1   -1    0    0  501    0  0.00000000000E+00 -0.00000000000E+00 -0.30055915153E+03  0.30055915153E+03  0.00000000000E+00 0. -1.
         23    2    1    2    0    0  0.12197634135E+02  0.19410437055E+02  0.11400965815E+03  0.14938068459E+03  0.93759476489E+02 0.  0.
         23    2    1    2    0    0 -0.12197634135E+02 -0.19410437055E+02 -0.27492800204E+03  0.29081927459E+03  0.92004873886E+02 0.  0.
          5    1    4    4  502    0  0.22616965826E+02 -0.33438683786E+02 -0.22242941562E+03  0.22611193611E+03  0.47000000000E+01 0. -1.
         -5    1    3    3    0  503  0.49143074106E+02  0.28237462864E+00  0.36888994321E+02  0.61627991773E+02  0.47000000000E+01 0.  1.
          5    1    3    3  503    0 -0.36945439971E+02  0.19128062426E+02  0.77120663834E+02  0.87752692819E+02  0.47000000000E+01 0. -1.
         -5    1    4    4    0  502 -0.34814599961E+02  0.14028246731E+02 -0.52498586420E+02  0.64707338478E+02  0.47000000000E+01 0.  1.
<mgrwt>
<rscale>  0 0.96092714E+02</rscale>
<asrwt>0</asrwt>
<pdfrwt beam="1">  1        1 0.46239869E-01 0.96521432E+02</pdfrwt>
<pdfrwt beam="2">  1       -1 0.21483201E-01 0.96521432E+02</pdfrwt>
<totfact> 0.15255559E+03</totfact>
</mgrwt>
</event>
<event>
 8    1  0.9456677E-004  0.9997887E+02  0.7546771E-02  0.1281068E+00
          1   -1    0    0  501    0  0.00000000000E+00  0.00000000000E+00  0.30406517091E+02  0.30406517091E+02  0.00000000000E+00 0. -1.
         -1   -1    0    0    0  501 -0.00000000000E+00 -0.00000000000E+00 -0.33102435492E+03  0.33102435492E+03  0.00000000000E+00 0.  1.
         23    2    1    2    0    0  0.25826747825E+02  0.21499696469E+02 -0.17720544247E+03  0.20346386430E+03  0.94162186592E+02 0.  0.
         23    2    1    2    0    0 -0.25826747825E+02 -0.21499696469E+02 -0.12341239536E+03  0.15796700771E+03  0.92702202485E+02 0.  0.
          5    1    3    3  502    0  0.41840382736E+02  0.45117433297E+02 -0.74370028487E+02  0.96639492714E+02  0.47000000000E+01 0. -1.
         -5    1    4    4    0  503 -0.23968804592E+02  0.34237247751E+02 -0.44566530721E+02  0.61277715261E+02  0.47000000000E+01 0.  1.
          5    1    4    4  503    0 -0.18579432333E+01 -0.55736944220E+02 -0.78845864643E+02  0.96689292454E+02  0.47000000000E+01 0. -1.
         -5    1    3    3    0  502 -0.16013634911E+02 -0.23617736828E+02 -0.10283541398E+03  0.10682437159E+03  0.47000000000E+01 0.  1.
<mgrwt>
<rscale>  0 0.99633634E+02</rscale>
<asrwt>0</asrwt>
<pdfrwt beam="1">  1        1 0.46779257E-02 0.99978874E+02</pdfrwt>
<pdfrwt beam="2">  1       -1 0.50926824E-01 0.99978874E+02</pdfrwt>
<totfact> 0.67059552E+03</totfact>
</mgrwt>
</event>
<event>
 8    1  0.9456677E-004  0.1211085E+03  0.7546771E-02  0.1241835E+00
          1   -1    0    0  501    0  0.00000000000E+00  0.00000000000E+00  0.60876658322E+03  0.60876658322E+03  0.00000000000E+00 0. -1.
         -1   -1    0    0    0  501 -0.00000000000E+00 -0.00000000000E+00 -0.23915634487E+02  0.23915634487E+02  0.00000000000E+00 0.  1.
         23    2    1    2    0    0 -0.37390674272E+02 -0.69695934960E+02  0.27128027291E+03  0.29653665875E+03  0.89918950393E+02 0.  0.
         23    2    1    2    0    0  0.37390674272E+02  0.69695934960E+02  0.31357067582E+03  0.33614555895E+03  0.91715223374E+02 0.  0.
          5    1    3    3  502    0 -0.45636438005E+02 -0.18057283225E+02  0.54514096894E+02  0.73502562618E+02  0.47000000000E+01 0. -1.
         -5    1    4    4    0  503  0.23587940002E+02 -0.99655530694E+01  0.23809919378E+02  0.35280382967E+02  0.47000000000E+01 0.  1.
          5    1    4    4  503    0  0.13802734270E+02  0.79661488030E+02  0.28976075644E+03  0.30086517599E+03  0.47000000000E+01 0. -1.
         -5    1    3    3    0  502  0.82457637329E+01 -0.51638651736E+02  0.21676617602E+03  0.22303409613E+03  0.47000000000E+01 0.  1.
<mgrwt>
<rscale>  0 0.12076843E+03</rscale>
<asrwt>0</asrwt>
<pdfrwt beam="1">  1        1 0.93656386E-01 0.12110850E+03</pdfrwt>
<pdfrwt beam="2">  1       -1 0.36793289E-02 0.12110850E+03</pdfrwt>
<totfact> 0.91169395E+03</totfact>
</mgrwt>
</event>
<event>
 8    1  0.9456677E-004  0.1220074E+03  0.7546771E-02  0.1243474E+00
          1   -1    0    0  501    0  0.00000000000E+00  0.00000000000E+00  0.16994779517E+03  0.16994779517E+03  0.00000000000E+00 0. -1.
         -1   -1    0    0    0  501 -0.00000000000E+00 -0.00000000000E+00 -0.98372033687E+02  0.98372033687E+02  0.00000000000E+00 0.  1.
         23    2    1    2    0    0  0.10740382518E+02 -0.71939300764E+02 -0.20907978488E+02  0.11522165274E+03  0.86880762457E+02 0.  0.
         23    2    1    2    0    0 -0.10740382518E+02  0.71939300764E+02  0.92483739966E+02  0.15309817611E+03  0.97955043562E+02 0.  0.
          5    1    3    3  502    0 -0.23325162944E+02  0.29468618297E+01 -0.22388843948E+02  0.32803925898E+02  0.47000000000E+01 0. -1.
         -5    1    4    4    0  503 -0.36650956277E+02  0.81606180876E+02  0.51186509911E+02  0.10317465847E+03  0.47000000000E+01 0.  1.
          5    1    4    4  503    0  0.25910573759E+02 -0.96668801115E+01  0.41297230055E+02  0.49923517643E+02  0.47000000000E+01 0. -1.
         -5    1    3    3    0  502  0.34065545462E+02 -0.74886162594E+02  0.14808654600E+01  0.82417726845E+02  0.47000000000E+01 0.  1.
<mgrwt>
<rscale>  0 0.11977208E+03</rscale>
<asrwt>0</asrwt>
<pdfrwt beam="1">  1        1 0.26145815E-01 0.12200742E+03</pdfrwt>
<pdfrwt beam="2">  1       -1 0.15134159E-01 0.12200742E+03</pdfrwt>
<totfact> 0.54211535E+03</totfact>
</mgrwt>
</event>
<event>
 8    1  0.9456677E-004  0.9453914E+02  0.7546771E-02  0.1292965E+00
          1   -1    0    0  501    0  0.00000000000E+00  0.00000000000E+00  0.18669007906E+03  0.18669007906E+03  0.00000000000E+00 0. -1.
         -1   -1    0    0    0  501 -0.00000000000E+00 -0.00000000000E+00 -0.76290150536E+02  0.76290150536E+02  0.00000000000E+00 0.  1.
         23    2    1    2    0    0  0.14773509891E+02 -0.16589839273E+02 -0.25736934643E+02  0.97979787891E+02  0.91892163261E+02 0.  0.
         23    2    1    2    0    0 -0.14773509891E+02  0.16589839273E+02  0.13613686317E+03  0.16500044171E+03  0.90545131778E+02 0.  0.
          5    1    3    3  502    0 -0.38367816477E+01  0.33441452951E+02  0.76571392743E+01  0.34839251581E+02  0.47000000000E+01 0. -1.
         -5    1    4    4    0  503  0.36992622756E+02  0.17279469648E+02  0.64745441386E+02  0.76688306735E+02  0.47000000000E+01 0.  1.
          5    1    4    4  503    0 -0.51766132646E+02 -0.68963037575E+00  0.71391421784E+02  0.88312134973E+02  0.47000000000E+01 0. -1.
         -5    1    3    3    0  502  0.18610291538E+02 -0.50031292224E+02 -0.33394073917E+02  0.63140536310E+02  0.47000000000E+01 0.  1.
<mgrwt>
<rscale>  0 0.94210233E+02</rscale>
<asrwt>0</asrwt>
<pdfrwt beam="1">  1        1 0.28721550E-01 0.94539140E+02</pdfrwt>
<pdfrwt beam="2">  1       -1 0.11736946E-01 0.94539140E+02</pdfrwt>
<totfact> 0.70142290E+03</totfact>
</mgrwt>
</event>
<event>
 8    1  0.9456677E-004  0.1243694E+03  0.7546771E-02  0.1237213E+00
         -3   -1    0    0    0  501 -0.00000000000E+00  0.00000000000E+00  0.43053653272E+02  0.43053653272E+02  0.00000000000E+00 0.  1.
          3   -1    0    0  501    0  0.00000000000E+00 -0.00000000000E+00 -0.38807755764E+03  0.38807755764E+03  0.00000000000E+00 0. -1.
         23    2    1    2    0    0  0.46493697315E+02  0.66795845214E+02 -0.10766955093E+03  0.16450072454E+03  0.94044709314E+02 0.  0.
         23    2    1    2    0    0 -0.46493697315E+02 -0.66795845214E+02 -0.23735435344E+03  0.26663048637E+03  0.90174155594E+02 0.  0.
          5    1    4    4  502    0 -0.36127276577E+02 -0.36759215109E+02 -0.22708497506E+03  0.23290791293E+03  0.47000000000E+01 0. -1.
         -5    1    3    3    0  503  0.65987671521E+02  0.75009835282E+02 -0.10021719562E+03  0.14158539642E+03  0.47000000000E+01 0.  1.
          5    1    3    3  503    0 -0.19493974206E+02 -0.82139900679E+01 -0.74523553032E+01  0.22915328118E+02  0.47000000000E+01 0. -1.
         -5    1    4    4    0  502 -0.10366420737E+02 -0.30036630105E+02 -0.10269378379E+02  0.33722573437E+02  0.47000000000E+01 0.  1.
<mgrwt>
<rscale>  0 0.12363791E+03</rscale>
<asrwt>0</asrwt>
<pdfrwt beam="1">  1        3 0.59704241E-01 0.12436943E+03</pdfrwt>
<pdfrwt beam="2">  1       -3 0.66236388E-02 0.12436943E+03</pdfrwt>
<totfact> 0.91902048E+02</totfact>
</mgrwt>
</event>
<event>
 8    1  0.9456677E-004  0.1575759E+03  0.7546771E-02  0.1196327E+00
          1   -1    0    0  501    0  0.00000000000E+00  0.00000000000E+00  0.32086959434E+03  0.32086959434E+03  0.00000000000E+00 0. -1.
         -1   -1    0    0    0  501 -0.00000000000E+00 -0.00000000000E+00 -0.69838609233E+02  0.69838609233E+02  0.00000000000E+00 0.  1.
         23    2    1    2    0    0 -0.83886366640E+02  0.97639807882E+02  0.12503534814E+03  0.20115670060E+03  0.90883030990E+02 0.  0.
         23    2    1    2    0    0  0.83886366640E+02 -0.97639807882E+02  0.12599563697E+03  0.18955150297E+03  0.59028951809E+02 0.  0.
          5    1    3    3  502    0 -0.50324719871E+02  0.23827992835E+02  0.10270673783E+03  0.11692354197E+03  0.47000000000E+01 0. -1.
         -5    1    4    4    0  503  0.46013802747E+02 -0.57250817849E+02  0.31776375519E+02  0.80167039541E+02  0.47000000000E+01 0.  1.
          5    1    4    4  503    0  0.37872563893E+02 -0.40388990033E+02  0.94219261446E+02  0.10938446343E+03  0.47000000000E+01 0. -1.
         -5    1    3    3    0  502 -0.33561646769E+02  0.73811815048E+02  0.22328610315E+02  0.84233158632E+02  0.47000000000E+01 0.  1.
<mgrwt>
<rscale>  0 0.15342458E+03</rscale>
<asrwt>0</asrwt>
<pdfrwt beam="1">  1        1 0.49364552E-01 0.15757595E+03</pdfrwt>
<pdfrwt beam="2">  1       -1 0.10744402E-01 0.15757595E+03</pdfrwt>
<totfact> 0.42520967E+03</totfact>
</mgrwt>
</event>
<event>
 8    1  0.9456677E-004  0.9839948E+02  0.7546771E-02  0.1284167E+00
          3   -1    0    0  501    0  0.00000000000E+00  0.00000000000E+00  0.15033742365E+03  0.15033742365E+03  0.00000000000E+00 0. -1.
         -3   -1    0    0    0  501 -0.00000000000E+00 -0.00000000000E+00 -0.64281374387E+02  0.64281374387E+02  0.00000000000E+00 0.  1.
         23    2    1    2    0    0 -0.15081611495E+02 -0.30230576384E+02  0.52132900386E+02  0.11135662080E+03  0.92418152650E+02 0.  0.
         23    2    1    2    0    0  0.15081611495E+02  0.30230576384E+02  0.33923148877E+02  0.10326217724E+03  0.91492920298E+02 0.  0.
          5    1    3    3  502    0 -0.47254354769E+02 -0.56283970616E+01  0.35788474844E+01  0.47953634351E+02  0.47000000000E+01 0. -1.
         -5    1    3    3    0  502  0.32172743275E+02 -0.24602179322E+02  0.48554052902E+02  0.63402986447E+02  0.47000000000E+01 0.  1.
          5    1    4    4  503    0 -0.14920398206E+02  0.33765891322E+02  0.54800077688E+02  0.66241167064E+02  0.47000000000E+01 0. -1.
         -5    1    4    4    0  503  0.30002009701E+02 -0.35353149377E+01 -0.20876928811E+02  0.37021010175E+02  0.47000000000E+01 0.  1.
<mgrwt>
<rscale>  0 0.98181639E+02</rscale>
<asrwt>0</asrwt>
<pdfrwt beam="1">  1        3 0.23128834E-01 0.98399480E+02</pdfrwt>
<pdfrwt beam="2">  1       -3 0.98894422E-02 0.98399480E+02</pdfrwt>
<totfact> 0.27921294E+03</totfact>
</mgrwt>
</event>
<event>
 8    1  0.9456677E-004  0.1156263E+03  0.7546771E-02  0.1254688E+00
         -1   -1    0    0    0  501 -0.00000000000E+00  0.00000000000E+00  0.88343456292E+02  0.88343456292E+02  0.00000000000E+00 0.  1.
          1   -1    0    0  501    0  0.00000000000E+00 -0.00000000000E+00 -0.27431420194E+03  0.27431420194E+03  0.00000000000E+00 0. -1.
         23    2    1    2    0    0 -0.43143482650E+02  0.26832321915E+02  0.32125935923E+02  0.12000627739E+03  0.10386576558E+03 0.  0.
         23    2    1    2    0    0  0.43143482650E+02 -0.26832321915E+02 -0.21809668157E+03  0.24265138084E+03  0.93446222600E+02 0.  0.
          5    1    4    4  502    0  0.71751946330E+02 -0.28369805565E+02 -0.16118857801E+03  0.17876530802E+03  0.47000000000E+01 0. -1.
         -5    1    4    4    0  502 -0.28608463679E+02  0.15374836502E+01 -0.56908103562E+02  0.63886072826E+02  0.47000000000E+01 0.  1.
          5    1    3    3  503    0 -0.73824416359E+02  0.15190046131E+02  0.25189061500E+01  0.75559359714E+02  0.47000000000E+01 0. -1.
         -5    1    3    3    0  503  0.30680933709E+02  0.11642275783E+02  0.29607029773E+02  0.44446917673E+02  0.47000000000E+01 0.  1.
<mgrwt>
<rscale>  0 0.11323798E+03</rscale>
<asrwt>0</asrwt>
<pdfrwt beam="1">  1        1 0.42202185E-01 0.11562626E+03</pdfrwt>
<pdfrwt beam="2">  1       -1 0.13591301E-01 0.11562626E+03</pdfrwt>
<totfact> 0.35351531E+03</totfact>
</mgrwt>
</event>
<event>
 7    1  0.9456677E-004  0.1426179E+03  0.7546771E-02  0.1226924E+00
         -1   -1    0    0    0  501 -0.00000000000E+00  0.00000000000E+00  0.79658269014E+02  0.79658269014E+02  0.00000000000E+00 0.  1.
          1   -1    0    0  501    0  0.00000000000E+00 -0.00000000000E+00 -0.51144228570E+03  0.51144228570E+03  0.00000000000E+00 0. -1.
         23    2    1    2    0    0 -0.32931326423E+02  0.76876922070E+01  0.33039229764E+02  0.10489020605E+03  0.93631147332E+02 0.  0.
          5    1    3    3  502    0 -0.52747310960E+01 -0.37334135333E+02 -0.67342090199E+01  0.38588858759E+02  0.47000000000E+01 0. -1.
         -5    1    1    2    0  503 -0.42938283096E+02 -0.30905216340E+02 -0.10447325481E+03  0.11719888874E+03  0.47000000000E+01 0.  1.
          5    1    1    2  503    0  0.75869609519E+02  0.23217524133E+02 -0.36034999164E+03  0.36901145992E+03  0.47000000000E+01 0. -1.
         -5    1    3    3    0  502 -0.27656595327E+02  0.45021827540E+02  0.39773438784E+02  0.66301347293E+02  0.47000000000E+01 0.  1.
<mgrwt>
<rscale>  0 0.13035918E+03</rscale>
<asrwt>0</asrwt>
<pdfrwt beam="1">  1        1 0.78683429E-01 0.14261786E+03</pdfrwt>
<pdfrwt beam="2">  1       -1 0.12255118E-01 0.14261786E+03</pdfrwt>
<totfact> 0.19116093E+03</totfact>
</mgrwt>
</event>
<event>
 8    1  0.9456677E-004  0.1094036E+03  0.7546771E-02  0.1262189E+00
         -1   -1    0    0    0  501 -0.00000000000E+00  0.00000000000E+00  0.19836855435E+03  0.19836855435E+03  0.00000000000E+00 0.  1.
          1   -1    0    0  501    0  0.00000000000E+00 -0.00000000000E+00 -0.68282381819E+02  0.68282381819E+02  0.00000000000E+00 0. -1.
         23    2    1    2    0    0 -0.48794269085E+02  0.34080408916E+02  0.11248749731E+03  0.15691581879E+03  0.91797506324E+02 0.  0.
         23    2    1    2    0    0  0.48794269085E+02 -0.34080408916E+02  0.17598675227E+02  0.10973511739E+03  0.90497114047E+02 0.  0.
          5    1    3    3  502    0 -0.15247136408E+02 -0.21524208348E+02 -0.17335638793E+00  0.26793409004E+02  0.47000000000E+01 0. -1.
         -5    1    3    3    0  502 -0.33547132677E+02  0.55604617264E+02  0.11266085370E+03  0.13012240978E+03  0.47000000000E+01 0.  1.
          5    1    4    4  503    0  0.28588608198E+02 -0.40760155298E+02 -0.29342907155E+02  0.57980988082E+02  0.47000000000E+01 0. -1.
         -5    1    4    4    0  503  0.20205660887E+02  0.66797463822E+01  0.46941582382E+02  0.51754129305E+02  0.47000000000E+01 0.  1.
<mgrwt>
<rscale>  0 0.10913033E+03</rscale>
<asrwt>0</asrwt>
<pdfrwt beam="1">  1        1 0.10504982E-01 0.10940355E+03</pdfrwt>
<pdfrwt beam="2">  1       -1 0.30518239E-01 0.10940355E+03</pdfrwt>
<totfact> 0.55787490E+03</totfact>
</mgrwt>
</event>
<event>
 8    1  0.9456677E-004  0.9295398E+02  0.7546771E-02  0.1296509E+00
          1   -1    0    0  501    0  0.00000000000E+00  0.00000000000E+00  0.22820480411E+03  0.22820480411E+03  0.00000000000E+00 0. -1.
         -1   -1    0    0    0  501 -0.00000000000E+00 -0.00000000000E+00 -0.37768779792E+02  0.37768779792E+02  0.00000000000E+00 0.  1.
         23    2    1    2    0    0 -0.29239268054E+01 -0.32875457952E+01  0.82751477960E+02  0.12445179492E+03  0.92849797246E+02 0.  0.
         23    2    1    2    0    0  0.29239268054E+01  0.32875457952E+01  0.10768454636E+03  0.14152178898E+03  0.91722941119E+02 0.  0.
          5    1    4    4  502    0 -0.94006443503E+01  0.43597086727E+02  0.77234036758E+02  0.89309935165E+02  0.47000000000E+01 0. -1.
         -5    1    3    3    0  503 -0.44799975693E+02 -0.11564835091E+02  0.59810992670E+02  0.75764292889E+02  0.47000000000E+01 0.  1.
          5    1    3    3  503    0  0.41876048888E+02  0.82772892962E+01  0.22940485290E+02  0.48687502030E+02  0.47000000000E+01 0. -1.
         -5    1    4    4    0  502  0.12324571156E+02 -0.40309540932E+02  0.30450509600E+02  0.52211853819E+02  0.47000000000E+01 0.  1.
<mgrwt>
<rscale>  0 0.92671297E+02</rscale>
<asrwt>0</asrwt>
<pdfrwt beam="1">  1        1 0.35108431E-01 0.92953979E+02</pdfrwt>
<pdfrwt beam="2">  1       -1 0.58105816E-02 0.92953979E+02</pdfrwt>
<totfact> 0.15682749E+04</totfact>
</mgrwt>
</event>
<event>
 8    1  0.9456677E-004  0.1004682E+03  0.7546771E-02  0.1280845E+00
          1   -1    0    0  501    0  0.00000000000E+00  0.00000000000E+00  0.77201781279E+02  0.77201781279E+02  0.00000000000E+00 0. -1.
         -1   -1    0    0    0  501 -0.00000000000E+00 -0.00000000000E+00 -0.27600207392E+03  0.27600207392E+03  0.00000000000E+00 0.  1.
         23    2    1    2    0    0 -0.21345387535E+02 -0.34747193713E+02 -0.22847740134E+03  0.24844415153E+03  0.88654274948E+02 0.  0.
         23    2    1    2    0    0  0.21345387535E+02  0.34747193713E+02  0.29677108699E+02  0.10475970367E+03  0.91819778327E+02 0.  0.
          5    1    3    3  502    0 -0.32551750238E+02  0.20735074334E+02 -0.69654864449E+02  0.79771234744E+02  0.47000000000E+01 0. -1.
         -5    1    3    3    0  502  0.11206362702E+02 -0.55482268048E+02 -0.15882253689E+03  0.16867291679E+03  0.47000000000E+01 0.  1.
          5    1    4    4  503    0  0.41610681358E+02  0.54765863245E+02  0.96272333500E+01  0.69609785247E+02  0.47000000000E+01 0. -1.
         -5    1    4    4    0  503 -0.20265293823E+02 -0.20018669532E+02  0.20049875349E+02  0.35149918422E+02  0.47000000000E+01 0.  1.
<mgrwt>
<rscale>  0 0.99739192E+02</rscale>
<asrwt>0</asrwt>
<pdfrwt beam="1">  1        1 0.11877197E-01 0.10046823E+03</pdfrwt>
<pdfrwt beam="2">  1       -1 0.42461858E-01 0.10046823E+03</pdfrwt>
<totfact> 0.26832186E+03</totfact>
</mgrwt>
</event>
<event>
 8    1  0.9456677E-004  0.1053099E+03  0.7546771E-02  0.1270427E+00
          2   -1    0    0  501    0  0.00000000000E+00  0.00000000000E+00  0.23641639683E+03  0.23641639683E+03  0.00000000000E+00 0. -1.
         -2   -1    0    0    0  501 -0.00000000000E+00 -0.00000000000E+00 -0.49980269544E+02  0.49980269544E+02  0.00000000000E+00 0.  1.
         23    2    1    2    0    0 -0.35332450249E+02 -0.36459962181E+02  0.13241242867E+03  0.16803813241E+03  0.90144615999E+02 0.  0.
         23    2    1    2    0    0  0.35332450249E+02  0.36459962181E+02  0.54023698617E+02  0.11835853397E+03  0.92263056897E+02 0.  0.
          5    1    3    3  502    0  0.16537698874E+02 -0.21030861222E+02  0.10247600638E+03  0.10601516162E+03  0.47000000000E+01 0. -1.
         -5    1    4    4    0  503 -0.23157038129E+01  0.58371685258E+02  0.17068931200E+02  0.61041416565E+02  0.47000000000E+01 0.  1.
          5    1    4    4  503    0  0.37648154062E+02 -0.21911723077E+02  0.36954767417E+02  0.57317117403E+02  0.47000000000E+01 0. -1.
         -5    1    3    3    0  502 -0.51870149124E+02 -0.15429100959E+02  0.29936422285E+02  0.62022970791E+02  0.47000000000E+01 0.  1.
<mgrwt>
<rscale>  0 0.10484412E+03</rscale>
<asrwt>0</asrwt>
<pdfrwt beam="1">  1        2 0.36371753E-01 0.10530994E+03</pdfrwt>
<pdfrwt beam="2">  1       -2 0.76892724E-02 0.10530994E+03</pdfrwt>
<totfact> 0.13104943E+04</totfact>
</mgrwt>
</event>
<event>
 8    1  0.9456677E-004  0.1554106E+03  0.7546771E-02  0.1194400E+00
          1   -1    0    0  501    0  0.00000000000E+00  0.00000000000E+00  0.24638540288E+03  0.24638540288E+03  0.00000000000E+00 0. -1.
         -1   -1    0    0    0  501 -0.00000000000E+00 -0.00000000000E+00 -0.14450190426E+03  0.14450190426E+03  0.00000000000E+00 0.  1.
         23    2    1    2    0    0  0.37068479266E+02 -0.11958259681E+03  0.16269241801E+03  0.22400354475E+03  0.89636463365E+02 0.  0.
         23    2    1    2    0    0 -0.37068479266E+02  0.11958259681E+03 -0.60808919398E+02  0.16688376239E+03  0.92078205117E+02 0.  0.
          5    1    3    3  502    0 -0.28598070825E+02 -0.33214585028E+02  0.34377284053E+02  0.55901216198E+02  0.47000000000E+01 0.  1.
         -5    1    3    3    0  502  0.65666550091E+02 -0.86368011779E+02  0.12831513396E+03  0.16810232855E+03  0.47000000000E+01 0. -1.
          5    1    4    4  503    0  0.14078182181E+02  0.98908049930E+02 -0.37616184370E+02  0.10685534559E+03  0.47000000000E+01 0. -1.
         -5    1    4    4    0  503 -0.51146661447E+02  0.20674546877E+02 -0.23192735028E+02  0.60028416803E+02  0.47000000000E+01 0.  1.
<mgrwt>
<rscale>  0 0.15505086E+03</rscale>
<asrwt>0</asrwt>
<pdfrwt beam="1">  1        1 0.37905447E-01 0.15541064E+03</pdfrwt>
<pdfrwt beam="2">  1       -1 0.22231062E-01 0.15541064E+03</pdfrwt>
<totfact> 0.18725528E+03</totfact>
</mgrwt>
</event>
<event>
 8    1  0.9456677E-004  0.1243888E+03  0.7546771E-02  0.1236624E+00
          1   -1    0    0  501    0  0.00000000000E+00  0.00000000000E+00  0.35915146873E+03  0.35915146873E+03  0.00000000000E+00 0. -1.
         -1   -1    0    0    0  501 -0.00000000000E+00 -0.00000000000E+00 -0.51168660225E+02  0.51168660225E+02  0.00000000000E+00 0.  1.
         23    2    1    2    0    0  0.53145885358E+02  0.62607389807E+02  0.69062721891E+02  0.14095905734E+03  0.91409112795E+02 0.  0.
         23    2    1    2    0    0 -0.53145885358E+02 -0.62607389807E+02  0.23892008661E+03  0.26936107162E+03  0.93425953173E+02 0.  0.
          5    1    4    4  502    0 -0.67265198568E+02 -0.85089046332E+01  0.12125169009E+03  0.13900025449E+03  0.47000000000E+01 0. -1.
         -5    1    4    4    0  502  0.14119313210E+02 -0.54098485173E+02  0.11766839652E+03  0.13036081713E+03  0.47000000000E+01 0.  1.
          5    1    3    3  503    0  0.22472830990E+02  0.61768815342E+01  0.72667912105E+02  0.76458468778E+02  0.47000000000E+01 0. -1.
         -5    1    3    3    0  503  0.30673054367E+02  0.56430508272E+02 -0.36051902144E+01  0.64500588560E+02  0.47000000000E+01 0.  1.
<mgrwt>
<rscale>  0 0.12401020E+03</rscale>
<asrwt>0</asrwt>
<pdfrwt beam="1">  1        1 0.55254070E-01 0.12438882E+03</pdfrwt>
<pdfrwt beam="2">  1       -1 0.78721018E-02 0.12438882E+03</pdfrwt>
<totfact> 0.58518041E+03</totfact>
</mgrwt>
</event>
<event>
 8    1  0.9456677E-004  0.1052862E+03  0.7546771E-02  0.1272137E+00
         -1   -1    0    0    0  501 -0.00000000000E+00  0.00000000000E+00  0.26877823872E+02  0.26877823872E+02  0.00000000000E+00 0.  1.
          1   -1    0    0  501    0  0.00000000000E+00 -0.00000000000E+00 -0.39433273578E+03  0.39433273578E+03  0.00000000000E+00 0. -1.
         23    2    1    2    0    0  0.11462871631E+02  0.40803515562E+02 -0.20214249309E+03  0.22791834707E+03  0.96378737859E+02 0.  0.
         23    2    1    2    0    0 -0.11462871631E+02 -0.40803515562E+02 -0.16531241881E+03  0.19329221257E+03  0.90759899296E+02 0.  0.
          5    1    3    3  502    0  0.45415385000E+02  0.12178945937E+02 -0.15881851027E+03  0.16569940593E+03  0.47000000000E+01 0. -1.
         -5    1    3    3    0  502 -0.33952513369E+02  0.28624569625E+02 -0.43323982819E+02  0.62218941148E+02  0.47000000000E+01 0.  1.
          5    1    4    4  503    0  0.38261488158E+02 -0.11802406570E+02 -0.87941360427E+02  0.96741982359E+02  0.47000000000E+01 0. -1.
         -5    1    4    4    0  503 -0.49724359788E+02 -0.29001108992E+02 -0.77371058384E+02  0.96550230215E+02  0.47000000000E+01 0.  1.
<mgrwt>
<rscale>  0 0.10398272E+03</rscale>
<asrwt>0</asrwt>
<pdfrwt beam="1">  1        1 0.60666573E-01 0.10528621E+03</pdfrwt>
<pdfrwt beam="2">  1       -1 0.41350500E-02 0.10528621E+03</pdfrwt>
<totfact> 0.13343942E+04</totfact>
</mgrwt>
</event>
<event>
 8    1  0.9456677E-004  0.1172231E+03  0.7546771E-02  0.1249074E+00
          3   -1    0    0  501    0  0.00000000000E+00  0.00000000000E+00  0.98662472259E+02  0.98662472259E+02  0.00000000000E+00 0. -1.
         -3   -1    0    0    0  501 -0.00000000000E+00 -0.00000000000E+00 -0.22132271533E+03  0.22132271533E+03  0.00000000000E+00 0.  1.
         23    2    1    2    0    0 -0.49731364404E+02 -0.52846530934E+02 -0.16136424367E+03  0.19944842193E+03  0.92061335203E+02 0.  0.
         23    2    1    2    0    0  0.49731364404E+02  0.52846530934E+02  0.38704000597E+02  0.12053676566E+03  0.88120075896E+02 0.  0.
          5    1    3    3  502    0 -0.41621910921E+02  0.36459642043E+01 -0.12434223014E+03  0.13125835866E+03  0.47000000000E+01 0. -1.
         -5    1    3    3    0  502 -0.81094534833E+01 -0.56492495139E+02 -0.37022013535E+02  0.68190063272E+02  0.47000000000E+01 0.  1.
          5    1    4    4  503    0  0.69290290783E+02  0.44752208960E+02  0.49501394530E+02  0.96313979587E+02  0.47000000000E+01 0. -1.
         -5    1    4    4    0  503 -0.19558926379E+02  0.80943219746E+01 -0.10797393933E+02  0.24222786071E+02  0.47000000000E+01 0.  1.
<mgrwt>
<rscale>  0 0.11644814E+03</rscale>
<asrwt>0</asrwt>
<pdfrwt beam="1">  1        3 0.15178842E-01 0.11722309E+03</pdfrwt>
<pdfrwt beam="2">  1       -3 0.34049649E-01 0.11722309E+03</pdfrwt>
<totfact> 0.69555840E+02</totfact>
</mgrwt>
</event>
<event>
 8    1  0.9456677E-004  0.1075881E+03  0.7546771E-02  0.1268699E+00
          1   -1    0    0  501    0  0.00000000000E+00  0.00000000000E+00  0.51226628459E+03  0.51226628459E+03  0.00000000000E+00 0. -1.
         -1   -1    0    0    0  501 -0.00000000000E+00 -0.00000000000E+00 -0.27758567484E+02  0.27758567484E+02  0.00000000000E+00 0.  1.
         23    2    1    2    0    0 -0.25233274862E+02 -0.49115910872E+02  0.36804132532E+03  0.38147005981E+03  0.83760960605E+02 0.  0.
         23    2    1    2    0    0  0.25233274862E+02  0.49115910872E+02  0.11646639178E+03  0.15855479226E+03  0.92336942093E+02 0.  0.
          5    1    3    3  502    0 -0.41678501848E+02 -0.62840351561E+02  0.24148536251E+03  0.25302821505E+03  0.47000000000E+01 0. -1.
         -5    1    3    3    0  502  0.16445226987E+02  0.13724440688E+02  0.12655596281E+03  0.12844184476E+03  0.47000000000E+01 0.  1.
          5    1    4    4  503    0 -0.34351421592E+02  0.23408756379E+02  0.54496188386E+02  0.68701634545E+02  0.47000000000E+01 0. -1.
         -5    1    4    4    0  503  0.59584696454E+02  0.25707154494E+02  0.61970203393E+02  0.89853157720E+02  0.47000000000E+01 0.  1.
<mgrwt>
<rscale>  0 0.10572431E+03</rscale>
<asrwt>0</asrwt>
<pdfrwt beam="1">  1        1 0.78810191E-01 0.10758811E+03</pdfrwt>
<pdfrwt beam="2">  1       -1 0.42705492E-02 0.10758811E+03</pdfrwt>
<totfact> 0.91461222E+03</totfact>
</mgrwt>
</event>
<event>
 8    1  0.9456677E-004  0.1110378E+03  0.7546771E-02  0.1259741E+00
         -1   -1    0    0    0  501 -0.00000000000E+00  0.00000000000E+00  0.22318216295E+03  0.22318216295E+03  0.00000000000E+00 0.  1.
          1   -1    0    0  501    0  0.00000000000E+00 -0.00000000000E+00 -0.70464910754E+02  0.70464910754E+02  0.00000000000E+00 0. -1.
         23    2    1    2    0    0  0.53185175566E+02 -0.37039312387E+02  0.14776368195E+03  0.18483368765E+03  0.90159929161E+02 0.  0.
         23    2    1    2    0    0 -0.53185175566E+02  0.37039312387E+02  0.49535702520E+01  0.10881338606E+03  0.87265351455E+02 0.  0.
          5    1    3    3  502    0 -0.32481906956E+01  0.23781626660E+02  0.16598323071E+02  0.29558600071E+02  0.47000000000E+01 0. -1.
         -5    1    4    4    0  503 -0.57936947242E+02  0.10831188013E+00  0.28261788536E+02  0.64633739474E+02  0.47000000000E+01 0.  1.
          5    1    4    4  503    0  0.47517716754E+01  0.36931000507E+02 -0.23308218284E+02  0.44179646582E+02  0.47000000000E+01 0. -1.
         -5    1    3    3    0  502  0.56433366262E+02 -0.60820939047E+02  0.13116535888E+03  0.15527508758E+03  0.47000000000E+01 0.  1.
<mgrwt>
<rscale>  0 0.11044880E+03</rscale>
<asrwt>0</asrwt>
<pdfrwt beam="1">  1        1 0.10840756E-01 0.11103777E+03</pdfrwt>
<pdfrwt beam="2">  1       -1 0.34335717E-01 0.11103777E+03</pdfrwt>
<totfact> 0.43918330E+03</totfact>
</mgrwt>
</event>
<event>
 8    1  0.9456677E-004  0.9478783E+02  0.7546771E-02  0.1292887E+00
         -1   -1    0    0    0  501 -0.00000000000E+00  0.00000000000E+00  0.15504481866E+03  0.15504481866E+03  0.00000000000E+00 0.  1.
          1   -1    0    0  501    0  0.00000000000E+00 -0.00000000000E+00 -0.56655661827E+02  0.56655661827E+02  0.00000000000E+00 0. -1.
         23    2    1    2    0    0  0.89692009187E+01  0.71085147362E+01  0.51566619196E+02  0.10790666630E+03  0.94094393403E+02 0.  0.
         23    2    1    2    0    0 -0.89692009187E+01 -0.71085147362E+01  0.46822537635E+02  0.10379381418E+03  0.91922947545E+02 0.  0.
          5    1    3    3  502    0 -0.11701999248E+02 -0.33504194143E+02 -0.38502122094E+01  0.36005304409E+02  0.47000000000E+01 0. -1.
         -5    1    3    3    0  502  0.20671200167E+02  0.40612708879E+02  0.55416831405E+02  0.71901361891E+02  0.47000000000E+01 0.  1.
          5    1    4    4  503    0 -0.21814822419E+02 -0.44047452427E+02  0.40577716310E+02  0.63911701616E+02  0.47000000000E+01 0. -1.
         -5    1    4    4    0  503  0.12845621501E+02  0.36938937691E+02  0.62448213250E+01  0.39882112568E+02  0.47000000000E+01 0.  1.
<mgrwt>
<rscale>  0 0.94244375E+02</rscale>
<asrwt>0</asrwt>
<pdfrwt beam="1">  1        1 0.87162557E-02 0.94787828E+02</pdfrwt>
<pdfrwt beam="2">  1       -1 0.23853049E-01 0.94787828E+02</pdfrwt>
<totfact> 0.10570175E+04</totfact>
</mgrwt>
</event>
<event>
 8    1  0.9456677E-004  0.1043152E+03  0.7546771E-02  0.1271589E+00
         -3   -1    0    0    0  501 -0.00000000000E+00  0.00000000000E+00  0.36507470743E+03  0.36507470743E+03  0.00000000000E+00 0.  1.
          3   -1    0    0  501    0  0.00000000000E+00 -0.00000000000E+00 -0.70230501298E+02  0.70230501298E+02  0.00000000000E+00 0. -1.
         23    2    1    2    0    0 -0.49924433487E+02  0.29678409339E-01 -0.17770845238E+02  0.10581802421E+03  0.91592583578E+02 0.  0.
         23    2    1    2    0    0  0.49924433487E+02 -0.29678409339E-01  0.31261505137E+03  0.32948718452E+03  0.91330085303E+02 0.  0.
          5    1    3    3  502    0 -0.70130630755E+02  0.17649704239E+01  0.10098534770E+02  0.71031618982E+02  0.47000000000E+01 0. -1.
         -5    1    4    4    0  503  0.20883214130E+02  0.45180558204E+02  0.15924616674E+03  0.16690962553E+03  0.47000000000E+01 0.  1.
          5    1    4    4  503    0  0.29041219357E+02 -0.45210236613E+02  0.15336888463E+03  0.16257755900E+03  0.47000000000E+01 0. -1.
         -5    1    3    3    0  502  0.20206197268E+02 -0.17352920145E+01 -0.27869380008E+02  0.34786405224E+02  0.47000000000E+01 0.  1.
<mgrwt>
<rscale>  0 0.10425750E+03</rscale>
<asrwt>0</asrwt>
<pdfrwt beam="1">  1        3 0.10804693E-01 0.10431515E+03</pdfrwt>
<pdfrwt beam="2">  1       -3 0.56165339E-01 0.10431515E+03</pdfrwt>
<totfact> 0.45619828E+02</totfact>
</mgrwt>
</event>
<event>
 8    1  0.9456677E-004  0.9936146E+02  0.7546771E-02  0.1281815E+00
         -1   -1    0    0    0  501 -0.00000000000E+00  0.00000000000E+00  0.82853523870E+02  0.82853523870E+02  0.00000000000E+00 0.  1.
          1   -1    0    0  501    0  0.00000000000E+00 -0.00000000000E+00 -0.32357251672E+03  0.32357251672E+03  0.00000000000E+00 0. -1.
         23    2    1    2    0    0 -0.15438524285E+00  0.34018739984E+02  0.41238958729E+02  0.10757950899E+03  0.93356309550E+02 0.  0.
         23    2    1    2    0    0  0.15438524285E+00 -0.34018739984E+02 -0.28195795158E+03  0.29884653160E+03  0.93014324088E+02 0.  0.
          5    1    4    4  502    0  0.24138702449E+02 -0.56379056005E+02 -0.13736364928E+03  0.15050626915E+03  0.47000000000E+01 0. -1.
         -5    1    4    4    0  502 -0.23984317206E+02  0.22360316020E+02 -0.14459430230E+03  0.14834026244E+03  0.47000000000E+01 0.  1.
          5    1    3    3  503    0  0.34068664250E+02  0.50488394659E+02  0.25770120538E+02  0.66301892821E+02  0.47000000000E+01 0. -1.
         -5    1    3    3    0  503 -0.34223049493E+02 -0.16469654675E+02  0.15468838191E+02  0.41277616170E+02  0.47000000000E+01 0.  1.
<mgrwt>
<rscale>  0 0.99281047E+02</rscale>
<asrwt>0</asrwt>
<pdfrwt beam="1">  1        1 0.49780388E-01 0.99361456E+02</pdfrwt>
<pdfrwt beam="2">  1       -1 0.12746696E-01 0.99361456E+02</pdfrwt>
<totfact> 0.31612055E+03</totfact>
</mgrwt>
</event>
<event>
 8    1  0.9456677E-004  0.9760619E+02  0.7546771E-02  0.1285443E+00
          2   -1    0    0  501    0  0.00000000000E+00  0.00000000000E+00  0.14581528288E+03  0.14581528288E+03  0.00000000000E+00 0. -1.
         -2   -1    0    0    0  501 -0.00000000000E+00 -0.00000000000E+00 -0.15188231029E+03  0.15188231029E+03  0.00000000000E+00 0.  1.
         23    2    1    2    0    0 -0.17542891329E+02 -0.30507317105E+02  0.10935253208E+03  0.14657743475E+03  0.91041302012E+02 0.  0.
         23    2    1    2    0    0  0.17542891329E+02  0.30507317105E+02 -0.11541955950E+03  0.15112015841E+03  0.90978998302E+02 0.  0.
          5    1    4    4  502    0 -0.27275155943E+02 -0.11425301911E+01 -0.55909147153E+01  0.28259296423E+02  0.47000000000E+01 0. -1.
         -5    1    4    4    0  502  0.44818047272E+02  0.31649847296E+02 -0.10982864478E+03  0.12286086199E+03  0.47000000000E+01 0.  1.
          5    1    3    3  503    0 -0.46448698154E+02 -0.10086742120E+02  0.22749981067E+02  0.52904400246E+02  0.47000000000E+01 0. -1.
         -5    1    3    3    0  503  0.28905806825E+02 -0.20420574985E+02  0.86602551015E+02  0.93673034504E+02  0.47000000000E+01 0.  1.
<mgrwt>
<rscale>  0 0.97591658E+02</rscale>
<asrwt>0</asrwt>
<pdfrwt beam="1">  1        2 0.22433121E-01 0.97606189E+02</pdfrwt>
<pdfrwt beam="2">  1       -2 0.23366509E-01 0.97606189E+02</pdfrwt>
<totfact> 0.36687121E+03</totfact>
</mgrwt>
</event>
<event>
 8    1  0.9456677E-004  0.1430557E+03  0.7546771E-02  0.1209645E+00
         -1   -1    0    0    0  501 -0.00000000000E+00  0.00000000000E+00  0.12930292366E+03  0.12930292366E+03  0.00000000000E+00 0.  1.
          1   -1    0    0  501    0  0.00000000000E+00 -0.00000000000E+00 -0.20863366879E+03  0.20863366879E+03  0.00000000000E+00 0. -1.
         23    2    1    2    0    0 -0.58840888121E+02  0.90771427927E+02  0.44487290297E+02  0.14873869334E+03  0.91882412118E+02 0.  0.
         23    2    1    2    0    0  0.58840888121E+02 -0.90771427927E+02 -0.12381803543E+03  0.18919789910E+03  0.93612162050E+02 0.  0.
          5    1    3    3  502    0 -0.39706763760E+01  0.82247694559E+02  0.97018991970E+01  0.83046170165E+02  0.47000000000E+01 0. -1.
         -5    1    4    4    0  503 -0.24114171206E+02 -0.10585032788E+02 -0.15737867358E+02  0.31037181589E+02  0.47000000000E+01 0.  1.
          5    1    4    4  503    0  0.82955059327E+02 -0.80186395139E+02 -0.10808016807E+03  0.15816071751E+03  0.47000000000E+01 0. -1.
         -5    1    3    3    0  502 -0.54870211745E+02  0.85237333683E+01  0.34785391100E+02  0.65692523178E+02  0.47000000000E+01 0.  1.
<mgrwt>
<rscale>  0 0.14277342E+03</rscale>
<asrwt>0</asrwt>
<pdfrwt beam="1">  1        1 0.32097488E-01 0.14305572E+03</pdfrwt>
<pdfrwt beam="2">  1       -1 0.19892757E-01 0.14305572E+03</pdfrwt>
<totfact> 0.27469659E+03</totfact>
</mgrwt>
</event>
<event>
 8    1  0.9456677E-004  0.1102027E+03  0.7546771E-02  0.1263588E+00
          2   -1    0    0  501    0  0.00000000000E+00  0.00000000000E+00  0.76962306168E+03  0.76962306168E+03  0.00000000000E+00 0. -1.
         -2   -1    0    0    0  501 -0.00000000000E+00 -0.00000000000E+00 -0.41643693137E+02  0.41643693137E+02  0.00000000000E+00 0.  1.
         23    2    1    2    0    0 -0.23480053004E+02 -0.40973046698E+02  0.42561684037E+02  0.11813607830E+03  0.99571746003E+02 0.  0.
         23    2    1    2    0    0  0.23480053004E+02  0.40973046698E+02  0.68541768450E+03  0.69313067652E+03  0.91665855464E+02 0.  0.
          5    1    4    4  502    0  0.24640144177E+02  0.68038719249E+02  0.41190124503E+03  0.41823573458E+03  0.47000000000E+01 0. -1.
         -5    1    4    4    0  502 -0.11600911732E+01 -0.27065672550E+02  0.27351643947E+03  0.27489494194E+03  0.47000000000E+01 0.  1.
          5    1    3    3  503    0 -0.51169194831E+02 -0.25762794891E+02  0.58865998857E+02  0.82275779678E+02  0.47000000000E+01 0. -1.
         -5    1    3    3    0  503  0.27689141827E+02 -0.15210251807E+02 -0.16304314820E+02  0.35860298617E+02  0.47000000000E+01 0.  1.
<mgrwt>
<rscale>  0 0.10838640E+03</rscale>
<asrwt>0</asrwt>
<pdfrwt beam="1">  1        2 0.11840354E+00 0.11020270E+03</pdfrwt>
<pdfrwt beam="2">  1       -2 0.64067226E-02 0.11020270E+03</pdfrwt>
<totfact> 0.47974142E+03</totfact>
</mgrwt>
</event>
<event>
 8    1  0.9456677E-004  0.2739031E+03  0.7546771E-02  0.1099092E+00
          1   -1    0    0  501    0  0.00000000000E+00  0.00000000000E+00  0.11014878633E+04  0.11014878633E+04  0.00000000000E+00 0. -1.
         -1   -1    0    0    0  501 -0.00000000000E+00 -0.00000000000E+00 -0.75425342248E+02  0.75425342248E+02  0.00000000000E+00 0.  1.
         23    2    1    2    0    0  0.17495189690E+03 -0.18983554784E+03  0.69669843712E+03  0.74854000753E+03  0.90982026450E+02 0.  0.
         23    2    1    2    0    0 -0.17495189690E+03  0.18983554784E+03  0.32936408397E+03  0.42837319806E+03  0.91527020896E+02 0.  0.
          5    1    3    3  502    0  0.91293058046E+02 -0.15592501832E+03  0.41383250520E+03  0.45158218094E+03  0.47000000000E+01 0. -1.
         -5    1    3    3    0  502  0.83658838849E+02 -0.33910529517E+02  0.28286593192E+03  0.29695782659E+03  0.47000000000E+01 0.  1.
          5    1    4    4  503    0 -0.46358121893E+02  0.70848897991E+02  0.17650218317E+03  0.19581560836E+03  0.47000000000E+01 0. -1.
         -5    1    4    4    0  503 -0.12859377500E+03  0.11898664985E+03  0.15286190080E+03  0.23255758970E+03  0.47000000000E+01 0.  1.
<mgrwt>
<rscale>  0 0.27385766E+03</rscale>
<asrwt>0</asrwt>
<pdfrwt beam="1">  1        1 0.16945966E+00 0.27390308E+03</pdfrwt>
<pdfrwt beam="2">  1       -1 0.11603900E-01 0.27390308E+03</pdfrwt>
<totfact> 0.65181172E+02</totfact>
</mgrwt>
</event>
<event>
 8    1  0.9456677E-004  0.1228211E+03  0.7546771E-02  0.1238688E+00
         -2   -1    0    0    0  501 -0.00000000000E+00  0.00000000000E+00  0.32767887780E+03  0.32767887780E+03  0.00000000000E+00 0.  1.
          2   -1    0    0  501    0  0.00000000000E+00 -0.00000000000E+00 -0.67213457340E+02  0.67213457340E+02  0.00000000000E+00 0. -1.
         23    2    1    2    0    0 -0.49593726244E+02  0.63902968091E+02  0.19135241232E+02  0.12430276121E+03  0.92422356458E+02 0.  0.
         23    2    1    2    0    0  0.49593726244E+02 -0.63902968091E+02  0.24133017923E+03  0.27058957393E+03  0.91844080382E+02 0.  0.
          5    1    3    3  502    0 -0.72796793711E+02  0.63261019865E+02  0.49244151045E+01  0.96683347444E+02  0.47000000000E+01 0. -1.
         -5    1    3    3    0  502  0.23203067467E+02  0.64194822611E+00  0.14210826128E+02  0.27619413763E+02  0.47000000000E+01 0.  1.
          5    1    4    4  503    0  0.71219307546E+02 -0.21477437010E+02  0.14669127238E+03  0.16454145211E+03  0.47000000000E+01 0. -1.
         -5    1    4    4    0  503 -0.21625581302E+02 -0.42425531081E+02  0.94638906844E+02  0.10604812183E+03  0.47000000000E+01 0.  1.
<mgrwt>
<rscale>  0 0.12271230E+03</rscale>
<asrwt>0</asrwt>
<pdfrwt beam="1">  1        2 0.10340532E-01 0.12282109E+03</pdfrwt>
<pdfrwt beam="2">  1       -2 0.50412134E-01 0.12282109E+03</pdfrwt>
<totfact> 0.22272647E+03</totfact>
</mgrwt>
</event>
<event>
 8    1  0.9456677E-004  0.1141748E+03  0.7546771E-02  0.1257683E+00
          2   -1    0    0  501    0  0.00000000000E+00  0.00000000000E+00  0.46675836995E+03  0.46675836995E+03  0.00000000000E+00 0. -1.
         -2   -1    0    0    0  501 -0.00000000000E+00 -0.00000000000E+00 -0.26815348406E+02  0.26815348406E+02  0.00000000000E+00 0.  1.
         23    2    1    2    0    0 -0.34915980955E+02  0.45378169565E+02  0.26444181698E+03  0.28420192218E+03  0.86965245952E+02 0.  0.
         23    2    1    2    0    0  0.34915980955E+02 -0.45378169565E+02  0.17550120456E+03  0.20937179617E+03  0.98780424333E+02 0.  0.
          5    1    4    4  502    0  0.64671280122E+02 -0.50172490277E+02  0.11073982025E+03  0.13778625129E+03  0.47000000000E+01 0. -1.
         -5    1    3    3    0  503 -0.43344267160E+02  0.21803269871E+02  0.56146516089E+02  0.74354753323E+02  0.47000000000E+01 0.  1.
          5    1    3    3  503    0  0.84282862056E+01  0.23574899694E+02  0.20829530089E+03  0.20984716885E+03  0.47000000000E+01 0. -1.
         -5    1    4    4    0  502 -0.29755299168E+02  0.47943207115E+01  0.64761384308E+02  0.71585544889E+02  0.47000000000E+01 0.  1.
<mgrwt>
<rscale>  0 0.11157388E+03</rscale>
<asrwt>0</asrwt>
<pdfrwt beam="1">  1        2 0.71808974E-01 0.11417476E+03</pdfrwt>
<pdfrwt beam="2">  1       -2 0.41254386E-02 0.11417476E+03</pdfrwt>
<totfact> 0.16392599E+04</totfact>
</mgrwt>
</event>
<event>
 8    1  0.9456677E-004  0.1072708E+03  0.7546771E-02  0.1265920E+00
         -2   -1    0    0    0  501 -0.00000000000E+00  0.00000000000E+00  0.10305054760E+03  0.10305054760E+03  0.00000000000E+00 0.  1.
          2   -1    0    0  501    0  0.00000000000E+00 -0.00000000000E+00 -0.28859338339E+03  0.28859338339E+03  0.00000000000E+00 0. -1.
         23    2    1    2    0    0  0.11832937416E+02  0.54536244723E+02  0.60680076010E+02  0.12324404262E+03  0.91612237292E+02 0.  0.
         23    2    1    2    0    0 -0.11832937416E+02 -0.54536244723E+02 -0.24622291180E+03  0.26839988837E+03  0.91096418070E+02 0.  0.
          5    1    4    4  502    0 -0.14712078025E+02 -0.75031625571E+02 -0.22766352047E+03  0.24020607534E+03  0.47000000000E+01 0. -1.
         -5    1    3    3    0  503  0.29972547803E+02 -0.14013717990E+02  0.33036303346E+02  0.46991757282E+02  0.47000000000E+01 0.  1.
          5    1    3    3  503    0 -0.18139610386E+02  0.68549962713E+02  0.27643772665E+02  0.76252285343E+02  0.47000000000E+01 0. -1.
         -5    1    4    4    0  502  0.28791406085E+01  0.20495380848E+02 -0.18559391325E+02  0.28193813029E+02  0.47000000000E+01 0.  1.
<mgrwt>
<rscale>  0 0.10716057E+03</rscale>
<asrwt>0</asrwt>
<pdfrwt beam="1">  1        2 0.44398981E-01 0.10727079E+03</pdfrwt>
<pdfrwt beam="2">  1       -2 0.15853931E-01 0.10727079E+03</pdfrwt>
<totfact> 0.33959781E+03</totfact>
</mgrwt>
</event>
<event>
 8    1  0.9456677E-004  0.9715549E+02  0.7546771E-02  0.1287078E+00
          1   -1    0    0  501    0  0.00000000000E+00  0.00000000000E+00  0.32546395209E+02  0.32546395209E+02  0.00000000000E+00 0. -1.
         -1   -1    0    0    0  501 -0.00000000000E+00 -0.00000000000E+00 -0.30094509699E+03  0.30094509699E+03  0.00000000000E+00 0.  1.
         23    2    1    2    0    0  0.44250905606E+01  0.27374407267E+02 -0.96622380522E+02  0.13614334025E+03  0.91816039330E+02 0.  0.
         23    2    1    2    0    0 -0.44250905606E+01 -0.27374407267E+02 -0.17177632126E+03  0.19734815194E+03  0.93114171483E+02 0.  0.
          5    1    3    3  502    0  0.21975209065E+02  0.78356316923E+01  0.10307317957E+02  0.25935260572E+02  0.47000000000E+01 0. -1.
         -5    1    3    3    0  502 -0.17550118505E+02  0.19538775575E+02 -0.10692969848E+03  0.11020807968E+03  0.47000000000E+01 0.  1.
          5    1    4    4  503    0 -0.44249766343E+02 -0.34241969103E+02 -0.91585811751E+02  0.10742720877E+03  0.47000000000E+01 0. -1.
         -5    1    4    4    0  503  0.39824675782E+02  0.68675618355E+01 -0.80190509505E+02  0.89920943175E+02  0.47000000000E+01 0.  1.
<mgrwt>
<rscale>  0 0.96843128E+02</rscale>
<asrwt>0</asrwt>
<pdfrwt beam="1">  1        1 0.50071379E-02 0.97155486E+02</pdfrwt>
<pdfrwt beam="2">  1       -1 0.46299244E-01 0.97155486E+02</pdfrwt>
<totfact> 0.72413305E+03</totfact>
</mgrwt>
</event>
<event>
 8    1  0.9456677E-004  0.9190934E+02  0.7546771E-02  0.1298993E+00
         -1   -1    0    0    0  501 -0.00000000000E+00  0.00000000000E+00  0.48974632280E+02  0.48974632280E+02  0.00000000000E+00 0.  1.
          1   -1    0    0  501    0  0.00000000000E+00 -0.00000000000E+00 -0.17342664243E+03  0.17342664243E+03  0.00000000000E+00 0. -1.
         23    2    1    2    0    0  0.60391178019E+01  0.10919290390E+02 -0.46834881869E+02  0.10210271070E+03  0.89865207545E+02 0.  0.
         23    2    1    2    0    0 -0.60391178019E+01 -0.10919290390E+02 -0.77617128283E+02  0.12029856401E+03  0.91058355206E+02 0.  0.
          5    1    4    4  502    0  0.17780570059E+02 -0.42428455305E+02 -0.62494149117E+02  0.77742724193E+02  0.47000000000E+01 0. -1.
         -5    1    4    4    0  502 -0.23819687861E+02  0.31509164915E+02 -0.15122979166E+02  0.42555839814E+02  0.47000000000E+01 0.  1.
          5    1    3    3  503    0 -0.23648367477E+02 -0.23841487357E+02  0.33303039371E+01  0.34071142159E+02  0.47000000000E+01 0. -1.
         -5    1    3    3    0  503  0.29687485279E+02  0.34760777747E+02 -0.50165185806E+02  0.68031568545E+02  0.47000000000E+01 0.  1.
<mgrwt>
<rscale>  0 0.91612410E+02</rscale>
<asrwt>0</asrwt>
<pdfrwt beam="1">  1        1 0.26681021E-01 0.91909335E+02</pdfrwt>
<pdfrwt beam="2">  1       -1 0.75345589E-02 0.91909335E+02</pdfrwt>
<totfact> 0.14938934E+04</totfact>
</mgrwt>
</event>
<event>
 8    1  0.9456677E-004  0.1046892E+03  0.7546771E-02  0.1271212E+00
          2   -1    0    0  501    0  0.00000000000E+00  0.00000000000E+00  0.81026933973E+02  0.81026933973E+02  0.00000000000E+00 0. -1.
         -2   -1    0    0    0  501 -0.00000000000E+00 -0.00000000000E+00 -0.16013910636E+03  0.16013910636E+03  0.00000000000E+00 0.  1.
         23    2    1    2    0    0 -0.26620563399E+02 -0.42617285323E+02  0.92945174840E+01  0.10414205373E+03  0.90742999154E+02 0.  0.
         23    2    1    2    0    0  0.26620563399E+02  0.42617285323E+02 -0.88406689872E+02  0.13702398661E+03  0.91841944053E+02 0.  0.
          5    1    3    3  502    0 -0.39327289974E+02  0.16309147623E+02  0.85230776785E+01  0.43673297173E+02  0.47000000000E+01 0. -1.
         -5    1    4    4    0  503  0.12496536906E+02 -0.28545405438E+02 -0.32870696914E+02  0.45536538317E+02  0.47000000000E+01 0.  1.
          5    1    4    4  503    0  0.14124026493E+02  0.71162690761E+02 -0.55535992958E+02  0.91487448290E+02  0.47000000000E+01 0. -1.
         -5    1    3    3    0  502  0.12706726575E+02 -0.58926432945E+02  0.77143980553E+00  0.60468756555E+02  0.47000000000E+01 0.  1.
<mgrwt>
<rscale>  0 0.10444769E+03</rscale>
<asrwt>0</asrwt>
<pdfrwt beam="1">  1        2 0.12465682E-01 0.10468921E+03</pdfrwt>
<pdfrwt beam="2">  1       -2 0.24636785E-01 0.10468921E+03</pdfrwt>
<totfact> 0.65974493E+03</totfact>
</mgrwt>
</event>
<event>
 8    1  0.9456677E-004  0.1158138E+03  0.7546771E-02  0.1256123E+00
         -1   -1    0    0    0  501 -0.00000000000E+00  0.00000000000E+00  0.23622907837E+03  0.23622907837E+03  0.00000000000E+00 0.  1.
          1   -1    0    0  501    0  0.00000000000E+00 -0.00000000000E+00 -0.86143619326E+02  0.86143619326E+02  0.00000000000E+00 0. -1.
         23    2    1    2    0    0 -0.15919733066E+02 -0.66862222090E+02  0.17584177612E+03  0.20372942526E+03  0.76559479124E+02 0.  0.
         23    2    1    2    0    0  0.15919733066E+02  0.66862222090E+02 -0.25756317071E+02  0.11864327244E+03  0.93213966671E+02 0.  0.
          5    1    3    3  502    0  0.17813567800E+02 -0.66109075042E+02  0.11157987629E+03  0.13099577014E+03  0.47000000000E+01 0. -1.
         -5    1    4    4    0  503  0.26133520571E+02 -0.15651035663E+02  0.19385340433E+01  0.30883065408E+02  0.47000000000E+01 0.  1.
          5    1    4    4  503    0 -0.10213787505E+02  0.82513257753E+02 -0.27694851114E+02  0.87760207033E+02  0.47000000000E+01 0. -1.
         -5    1    3    3    0  502 -0.33733300866E+02 -0.75314704815E+00  0.64261899826E+02  0.72733655120E+02  0.47000000000E+01 0.  1.
<mgrwt>
<rscale>  0 0.11243678E+03</rscale>
<asrwt>0</asrwt>
<pdfrwt beam="1">  1        1 0.13252865E-01 0.11581381E+03</pdfrwt>
<pdfrwt beam="2">  1       -1 0.36342935E-01 0.11581381E+03</pdfrwt>
<totfact> 0.30737272E+03</totfact>
</mgrwt>
</event>
<event>
 8    1  0.9456677E-004  0.9569134E+02  0.7546771E-02  0.1289816E+00
         -1   -1    0    0    0  501 -0.00000000000E+00  0.00000000000E+00  0.15902482084E+03  0.15902482084E+03  0.00000000000E+00 0.  1.
          1   -1    0    0  501    0  0.00000000000E+00 -0.00000000000E+00 -0.61644936922E+02  0.61644936922E+02  0.00000000000E+00 0. -1.
         23    2    1    2    0    0 -0.15836868579E+01 -0.20384665399E+02  0.77638843958E+02  0.12296335682E+03  0.93135140423E+02 0.  0.
         23    2    1    2    0    0  0.15836868579E+01  0.20384665399E+02  0.19741039960E+02  0.97706400943E+02  0.93481492709E+02 0.  0.
          5    1    4    4  502    0  0.21719156318E+02  0.51562350902E+02  0.17003015064E+01  0.56172758584E+02  0.47000000000E+01 0. -1.
         -5    1    4    4    0  502 -0.20135469460E+02 -0.31177685503E+02  0.18040738454E+02  0.41533642360E+02  0.47000000000E+01 0.  1.
          5    1    3    3  503    0 -0.35094444314E+02  0.13469889982E+02  0.84227501221E+01  0.38808384113E+02  0.47000000000E+01 0. -1.
         -5    1    3    3    0  503  0.33510757456E+02 -0.33854555380E+02  0.69216093836E+02  0.84154972706E+02  0.47000000000E+01 0.  1.
<mgrwt>
<rscale>  0 0.95606644E+02</rscale>
<asrwt>0</asrwt>
<pdfrwt beam="1">  1        1 0.94838365E-02 0.95691338E+02</pdfrwt>
<pdfrwt beam="2">  1       -1 0.24465357E-01 0.95691338E+02</pdfrwt>
<totfact> 0.90844506E+03</totfact>
</mgrwt>
</event>
<event>
 8    1  0.9456677E-004  0.1121622E+03  0.7546771E-02  0.1257080E+00
         -1   -1    0    0    0  501 -0.00000000000E+00  0.00000000000E+00  0.11268583409E+03  0.11268583409E+03  0.00000000000E+00 0.  1.
          1   -1    0    0  501    0  0.00000000000E+00 -0.00000000000E+00 -0.11098800751E+03  0.11098800751E+03  0.00000000000E+00 0. -1.
         23    2    1    2    0    0  0.61029479031E+02  0.18525154887E+02  0.72193696519E+01  0.11137576872E+03  0.91020129009E+02 0.  0.
         23    2    1    2    0    0 -0.61029479031E+02 -0.18525154887E+02 -0.55215430679E+01  0.11229807288E+03  0.92263703919E+02 0.  0.
          5    1    4    4  502    0 -0.84076683068E+02 -0.17683264451E+02  0.56799582814E+01  0.86231887394E+02  0.47000000000E+01 0. -1.
         -5    1    4    4    0  502  0.23047204037E+02 -0.84189043524E+00 -0.11201501349E+02  0.26066185489E+02  0.47000000000E+01 0.  1.
          5    1    3    3  503    0  0.27866723698E+02  0.76746259265E+01 -0.41791190476E+02  0.51029871391E+02  0.47000000000E+01 0. -1.
         -5    1    3    3    0  503  0.33162755333E+02  0.10850528960E+02  0.49010560128E+02  0.60345897326E+02  0.47000000000E+01 0.  1.
<mgrwt>
<rscale>  0 0.11190620E+03</rscale>
<asrwt>0</asrwt>
<pdfrwt beam="1">  1        1 0.17075078E-01 0.11216225E+03</pdfrwt>
<pdfrwt beam="2">  1       -1 0.17336282E-01 0.11216225E+03</pdfrwt>
<totfact> 0.74523181E+03</totfact>
</mgrwt>
</event>
<event>
 8    1  0.9456677E-004  0.9774400E+02  0.7546771E-02  0.1288224E+00
         -1   -1    0    0    0  501 -0.00000000000E+00  0.00000000000E+00  0.18654137396E+02  0.18654137396E+02  0.00000000000E+00 0.  1.
          1   -1    0    0  501    0  0.00000000000E+00 -0.00000000000E+00 -0.52060311585E+03  0.52060311585E+03  0.00000000000E+00 0. -1.
         23    2    1    2    0    0 -0.92429150251E+01  0.16923493491E+02 -0.32981412185E+03  0.34399308650E+03  0.95823026850E+02 0.  0.
         23    2    1    2    0    0  0.92429150251E+01 -0.16923493491E+02 -0.17213485660E+03  0.19526416675E+03  0.90143495876E+02 0.  0.
          5    1    3    3  502    0 -0.16361764223E+02  0.55404931078E+02 -0.18145478417E+03  0.19048711876E+03  0.47000000000E+01 0. -1.
         -5    1    4    4    0  503 -0.39558415478E+02 -0.11673331239E+02 -0.62225176541E+02  0.74801052752E+02  0.47000000000E+01 0.  1.
          5    1    4    4  503    0  0.48801330504E+02 -0.52501622523E+01 -0.10990968006E+03  0.12046311400E+03  0.47000000000E+01 0. -1.
         -5    1    3    3    0  502  0.71188491979E+01 -0.38481437587E+02 -0.14835933768E+03  0.15350596774E+03  0.47000000000E+01 0.  1.
<mgrwt>
<rscale>  0 0.96323033E+02</rscale>
<asrwt>0</asrwt>
<pdfrwt beam="1">  1        1 0.80092766E-01 0.97743995E+02</pdfrwt>
<pdfrwt beam="2">  1       -1 0.28698681E-02 0.97743995E+02</pdfrwt>
<totfact> 0.15821530E+04</totfact>
</mgrwt>
</event>
<event>
 8    1  0.9456677E-004  0.1053933E+03  0.7546771E-02  0.1269615E+00
         -2   -1    0    0    0  501 -0.00000000000E+00  0.00000000000E+00  0.34672431265E+03  0.34672431265E+03  0.00000000000E+00 0.  1.
          2   -1    0    0  501    0  0.00000000000E+00 -0.00000000000E+00 -0.31891169487E+02  0.31891169487E+02  0.00000000000E+00 0. -1.
         23    2    1    2    0    0  0.43713513096E+02 -0.26098783425E+02  0.16265847698E+03  0.19381831050E+03  0.92280765211E+02 0.  0.
         23    2    1    2    0    0 -0.43713513096E+02  0.26098783425E+02  0.15217466619E+03  0.18479717164E+03  0.91656139424E+02 0.  0.
          5    1    3    3  502    0  0.71393120432E+02 -0.13369932007E+02  0.12943365995E+03  0.14849543783E+03  0.47000000000E+01 0. -1.
         -5    1    3    3    0  502 -0.27679607336E+02 -0.12728851418E+02  0.33224817021E+02  0.45322872667E+02  0.47000000000E+01 0.  1.
          5    1    4    4  503    0  0.25887860587E+02  0.78256642876E+01  0.71510261915E+02  0.76597845312E+02  0.47000000000E+01 0. -1.
         -5    1    4    4    0  503 -0.69601373683E+02  0.18273119137E+02  0.80664404275E+02  0.10819932633E+03  0.47000000000E+01 0.  1.
<mgrwt>
<rscale>  0 0.10525646E+03</rscale>
<asrwt>0</asrwt>
<pdfrwt beam="1">  1        2 0.49063340E-02 0.10539335E+03</pdfrwt>
<pdfrwt beam="2">  1       -2 0.53342199E-01 0.10539335E+03</pdfrwt>
<totfact> 0.50418587E+03</totfact>
</mgrwt>
</event>
<event>
 8    1  0.9456677E-004  0.1087167E+03  0.7546771E-02  0.1263110E+00
          1   -1    0    0  501    0  0.00000000000E+00  0.00000000000E+00  0.43553933165E+03  0.43553933165E+03  0.00000000000E+00 0. -1.
         -1   -1    0    0    0  501 -0.00000000000E+00 -0.00000000000E+00 -0.27127735491E+02  0.27127735491E+02  0.00000000000E+00 0.  1.
         23    2    1    2    0    0  0.15084254239E+02 -0.55345506613E+02  0.21545278795E+03  0.24118926271E+03  0.91987481667E+02 0.  0.
         23    2    1    2    0    0 -0.15084254239E+02  0.55345506613E+02  0.19295880821E+03  0.22147780443E+03  0.92350724751E+02 0.  0.
          5    1    4    4  502    0  0.30811093268E+02 -0.58684448717E+01  0.48656007370E+02  0.58079765554E+02  0.47000000000E+01 0. -1.
         -5    1    3    3    0  503 -0.10954161068E+02 -0.74501618457E+02  0.14197801661E+03  0.16078038437E+03  0.47000000000E+01 0.  1.
          5    1    3    3  503    0  0.26038415307E+02  0.19156111844E+02  0.73474771341E+02  0.80408878342E+02  0.47000000000E+01 0. -1.
         -5    1    4    4    0  502 -0.45895347506E+02  0.61213951485E+02  0.14430280084E+03  0.16339803888E+03  0.47000000000E+01 0.  1.
<mgrwt>
<rscale>  0 0.10863950E+03</rscale>
<asrwt>0</asrwt>
<pdfrwt beam="1">  1        1 0.67006046E-01 0.10871668E+03</pdfrwt>
<pdfrwt beam="2">  1       -1 0.41734981E-02 0.10871668E+03</pdfrwt>
<totfact> 0.11652602E+04</totfact>
</mgrwt>
</event>
<event>
 8    1  0.9456677E-004  0.1218655E+03  0.7546771E-02  0.1240874E+00
         -2   -1    0    0    0  501 -0.00000000000E+00  0.00000000000E+00  0.32011558848E+02  0.32011558848E+02  0.00000000000E+00 0.  1.
          2   -1    0    0  501    0  0.00000000000E+00 -0.00000000000E+00 -0.67958882865E+03  0.67958882865E+03  0.00000000000E+00 0. -1.
         23    2    1    2    0    0 -0.62775454631E+02  0.46785002961E+02 -0.12165360251E+03  0.17219410439E+03  0.93389594574E+02 0.  0.
         23    2    1    2    0    0  0.62775454631E+02 -0.46785002961E+02 -0.52592366729E+03  0.53940628312E+03  0.90740510464E+02 0.  0.
          5    1    4    4  502    0  0.37365224012E+02 -0.47349135899E+02 -0.49678644675E+03  0.50045675568E+03  0.47000000000E+01 0. -1.
         -5    1    3    3    0  503  0.66141300917E+01  0.35793679110E+02 -0.65790227606E+01  0.37286830404E+02  0.47000000000E+01 0.  1.
          5    1    3    3  503    0 -0.69389584723E+02  0.10991323851E+02 -0.11507457975E+03  0.13490727398E+03  0.47000000000E+01 0. -1.
         -5    1    4    4    0  502  0.25410230620E+02  0.56413293809E+00 -0.29137220543E+02  0.38949527431E+02  0.47000000000E+01 0.  1.
<mgrwt>
<rscale>  0 0.12135788E+03</rscale>
<asrwt>0</asrwt>
<pdfrwt beam="1">  1        2 0.10455214E+00 0.12186554E+03</pdfrwt>
<pdfrwt beam="2">  1       -2 0.49248548E-02 0.12186554E+03</pdfrwt>
<totfact> 0.83112915E+03</totfact>
</mgrwt>
</event>
<event>
 8    1  0.9456677E-004  0.9545625E+02  0.7546771E-02  0.1290452E+00
          3   -1    0    0  501    0  0.00000000000E+00  0.00000000000E+00  0.78947506225E+02  0.78947506225E+02  0.00000000000E+00 0. -1.
         -3   -1    0    0    0  501 -0.00000000000E+00 -0.00000000000E+00 -0.19890335940E+03  0.19890335940E+03  0.00000000000E+00 0.  1.
         23    2    1    2    0    0  0.61370514368E+01 -0.18026954876E+02 -0.15023320779E+03  0.17770790084E+03  0.92991649078E+02 0.  0.
         23    2    1    2    0    0 -0.61370514368E+01  0.18026954876E+02  0.30277354606E+02  0.10014296479E+03  0.93537482817E+02 0.  0.
          5    1    4    4  502    0 -0.24535692838E+02 -0.96028943331E+00  0.57010587837E+02  0.62251261066E+02  0.47000000000E+01 0. -1.
         -5    1    3    3    0  503 -0.40675051321E+02 -0.21383250614E+02 -0.58309246860E+02  0.74389256456E+02  0.47000000000E+01 0.  1.
          5    1    3    3  503    0  0.46812102758E+02  0.33562957380E+01 -0.91923960926E+02  0.10331864439E+03  0.47000000000E+01 0. -1.
         -5    1    4    4    0  502  0.18398641401E+02  0.18987244309E+02 -0.26733233230E+02  0.37891703720E+02  0.47000000000E+01 0.  1.
<mgrwt>
<rscale>  0 0.95322266E+02</rscale>
<asrwt>0</asrwt>
<pdfrwt beam="1">  1        3 0.12145770E-01 0.95456248E+02</pdfrwt>
<pdfrwt beam="2">  1       -3 0.30600517E-01 0.95456248E+02</pdfrwt>
<totfact> 0.11920033E+03</totfact>
</mgrwt>
</event>
<event>
 8    1  0.9456677E-004  0.9331136E+02  0.7546771E-02  0.1297218E+00
         -1   -1    0    0    0  501 -0.00000000000E+00  0.00000000000E+00  0.14312855011E+02  0.14312855011E+02  0.00000000000E+00 0.  1.
          1   -1    0    0  501    0  0.00000000000E+00 -0.00000000000E+00 -0.58570821916E+03  0.58570821916E+03  0.00000000000E+00 0. -1.
         23    2    1    2    0    0 -0.75805364434E+01  0.19648495259E+02 -0.26535076608E+03  0.28006747522E+03  0.87081764547E+02 0.  0.
         23    2    1    2    0    0  0.75805364434E+01 -0.19648495259E+02 -0.30604459807E+03  0.31995359895E+03  0.90903693972E+02 0.  0.
          5    1    3    3  502    0 -0.25787485849E+01 -0.31744123490E+02 -0.15270849562E+03  0.15606509525E+03  0.47000000000E+01 0. -1.
         -5    1    3    3    0  502 -0.50017878585E+01  0.51392618748E+02 -0.11264227046E+03  0.12400237997E+03  0.47000000000E+01 0.  1.
          5    1    4    4  503    0 -0.41300503163E+02 -0.13011088151E+02 -0.15372118313E+03  0.15977268890E+03  0.47000000000E+01 0. -1.
         -5    1    4    4    0  503  0.48881039607E+02 -0.66374071075E+01 -0.15232341494E+03  0.16018091005E+03  0.47000000000E+01 0.  1.
<mgrwt>
<rscale>  0 0.92367338E+02</rscale>
<asrwt>0</asrwt>
<pdfrwt beam="1">  1        1 0.90108968E-01 0.93311358E+02</pdfrwt>
<pdfrwt beam="2">  1       -1 0.22019774E-02 0.93311358E+02</pdfrwt>
<totfact> 0.19736925E+04</totfact>
</mgrwt>
</event>
<event>
 8    1  0.9456677E-004  0.9716422E+02  0.7546771E-02  0.1286996E+00
          2   -1    0    0  501    0  0.00000000000E+00  0.00000000000E+00  0.93600871104E+02  0.93600871104E+02  0.00000000000E+00 0. -1.
         -2   -1    0    0    0  501 -0.00000000000E+00 -0.00000000000E+00 -0.16403201965E+03  0.16403201965E+03  0.00000000000E+00 0.  1.
         23    2    1    2    0    0 -0.16960718693E+02 -0.34467707968E+02 -0.11576504056E+03  0.15041327011E+03  0.88016579919E+02 0.  0.
         23    2    1    2    0    0  0.16960718693E+02  0.34467707968E+02  0.45333892008E+02  0.10721962064E+03  0.89247949078E+02 0.  0.
          5    1    3    3  502    0 -0.22542848151E+02  0.14283198721E+02 -0.91582063062E+02  0.95506827207E+02  0.47000000000E+01 0. -1.
         -5    1    3    3    0  502  0.55821294582E+01 -0.48750906689E+02 -0.24182977494E+02  0.54906442907E+02  0.47000000000E+01 0.  1.
          5    1    4    4  503    0 -0.22561759340E+02  0.48359685984E+02  0.34416385067E+02  0.63673147983E+02  0.47000000000E+01 0. -1.
         -5    1    4    4    0  503  0.39522478033E+02 -0.13891978016E+02  0.10917506940E+02  0.43546472657E+02  0.47000000000E+01 0.  1.
<mgrwt>
<rscale>  0 0.96880525E+02</rscale>
<asrwt>0</asrwt>
<pdfrwt beam="1">  1        2 0.14400134E-01 0.97164218E+02</pdfrwt>
<pdfrwt beam="2">  1       -2 0.25235695E-01 0.97164218E+02</pdfrwt>
<totfact> 0.53093107E+03</totfact>
</mgrwt>
</event>
<event>
 8    1  0.9456677E-004  0.1038907E+03  0.7546771E-02  0.1272714E+00
          1   -1    0    0  501    0  0.00000000000E+00  0.00000000000E+00  0.53321078564E+03  0.53321078564E+03  0.00000000000E+00 0. -1.
         -1   -1    0    0    0  501 -0.00000000000E+00 -0.00000000000E+00 -0.21673337719E+02  0.21673337719E+02  0.00000000000E+00 0.  1.
         23    2    1    2    0    0 -0.27053195124E+02  0.43701102451E+02  0.33166310535E+03  0.34755386600E+03  0.90286281365E+02 0.  0.
         23    2    1    2    0    0  0.27053195124E+02 -0.43701102451E+02  0.17987434258E+03  0.20733025736E+03  0.89383414441E+02 0.  0.
          5    1    4    4  502    0  0.51182995375E+02 -0.51829240097E+02  0.15545646109E+03  0.17174041586E+03  0.47000000000E+01 0. -1.
         -5    1    3    3    0  503 -0.60072254637E+02  0.32228695825E+02  0.23070728472E+03  0.24061443397E+03  0.47000000000E+01 0.  1.
          5    1    3    3  503    0  0.33019059513E+02  0.11472406626E+02  0.10095582063E+03  0.10693943203E+03  0.47000000000E+01 0. -1.
         -5    1    4    4    0  502 -0.24129800251E+02  0.81281376454E+01  0.24417881487E+02  0.35589841500E+02  0.47000000000E+01 0.  1.
<mgrwt>
<rscale>  0 0.10369421E+03</rscale>
<asrwt>0</asrwt>
<pdfrwt beam="1">  1        1 0.82032419E-01 0.10389068E+03</pdfrwt>
<pdfrwt beam="2">  1       -1 0.33343600E-02 0.10389068E+03</pdfrwt>
<totfact> 0.12411226E+04</totfact>
</mgrwt>
</event>
<event>
 8    1  0.9456677E-004  0.1041802E+03  0.7546771E-02  0.1272415E+00
         -1   -1    0    0    0  501 -0.00000000000E+00  0.00000000000E+00  0.17510547728E+02  0.17510547728E+02  0.00000000000E+00 0.  1.
          1   -1    0    0  501    0  0.00000000000E+00 -0.00000000000E+00 -0.72735369384E+03  0.72735369384E+03  0.00000000000E+00 0. -1.
         23    2    1    2    0    0  0.48711821515E+02 -0.10666451667E+02 -0.50137902135E+03  0.51181743194E+03  0.89941902576E+02 0.  0.
         23    2    1    2    0    0 -0.48711821515E+02  0.10666451667E+02 -0.20846412476E+03  0.23304680963E+03  0.91470811845E+02 0.  0.
          5    1    4    4  502    0 -0.39216325520E+02 -0.34171872656E+02 -0.14856616197E+03  0.15747898765E+03  0.47000000000E+01 0. -1.
         -5    1    3    3    0  503 -0.21686357448E+02  0.54393369824E+01 -0.54173521608E+02  0.58794089240E+02  0.47000000000E+01 0.  1.
          5    1    3    3  503    0  0.70398178963E+02 -0.16105788650E+02 -0.44720549974E+03  0.45302334270E+03  0.47000000000E+01 0. -1.
         -5    1    4    4    0  502 -0.94954959949E+01  0.44838324323E+02 -0.59897962782E+02  0.75567821973E+02  0.47000000000E+01 0.  1.
<mgrwt>
<rscale>  0 0.10384367E+03</rscale>
<asrwt>0</asrwt>
<pdfrwt beam="1">  1        1 0.11190057E+00 0.10418025E+03</pdfrwt>
<pdfrwt beam="2">  1       -1 0.26939305E-02 0.10418025E+03</pdfrwt>
<totfact> 0.11060421E+04</totfact>
</mgrwt>
</event>
<event>
 8    1  0.9456677E-004  0.1018373E+03  0.7546771E-02  0.1285136E+00
         -2   -1    0    0    0  501 -0.00000000000E+00  0.00000000000E+00  0.29408043067E+03  0.29408043067E+03  0.00000000000E+00 0.  1.
          2   -1    0    0  501    0  0.00000000000E+00 -0.00000000000E+00 -0.33211212826E+03  0.33211212826E+03  0.00000000000E+00 0. -1.
         23    2    1    2    0    0 -0.32992739417E+02 -0.20107543114E+02  0.27959674162E+03  0.29263798378E+03  0.77264593998E+02 0.  0.
         23    2    1    2    0    0  0.32992739417E+02  0.20107543114E+02 -0.31762843921E+03  0.33355457514E+03  0.94223113195E+02 0.  0.
          5    1    3    3  502    0  0.18014431031E+02 -0.28840717907E+02  0.11805977830E+03  0.12294920897E+03  0.47000000000E+01 0. -1.
         -5    1    3    3    0  502 -0.51007170448E+02  0.87331747933E+01  0.16153696331E+03  0.16968877481E+03  0.47000000000E+01 0.  1.
          5    1    4    4  503    0 -0.74329056630E+01  0.31504198009E+02 -0.26021607847E+03  0.26226372237E+03  0.47000000000E+01 0.  1.
         -5    1    4    4    0  503  0.40425645080E+02 -0.11396654895E+02 -0.57412360737E+02  0.71290852768E+02  0.47000000000E+01 0. -1.
<mgrwt>
<rscale>  0 0.97733106E+02</rscale>
<asrwt>0</asrwt>
<pdfrwt beam="1">  1        2 0.51094174E-01 0.10183727E+03</pdfrwt>
<pdfrwt beam="2">  1       -2 0.45243143E-01 0.10183727E+03</pdfrwt>
<totfact> 0.46032543E+02</totfact>
</mgrwt>
</event>
<event>
 8    1  0.9456677E-004  0.1095602E+03  0.7546771E-02  0.1262261E+00
          1   -1    0    0  501    0  0.00000000000E+00  0.00000000000E+00  0.10474644653E+03  0.10474644653E+03  0.00000000000E+00 0. -1.
         -1   -1    0    0    0  501 -0.00000000000E+00 -0.00000000000E+00 -0.13618718628E+03  0.13618718628E+03  0.00000000000E+00 0.  1.
         23    2    1    2    0    0  0.57728235874E+02  0.46630600134E+01 -0.65680996903E+02  0.12614763864E+03  0.90801652153E+02 0.  0.
         23    2    1    2    0    0 -0.57728235874E+02 -0.46630600134E+01  0.34240257146E+02  0.11478599417E+03  0.93000730657E+02 0.  0.
          5    1    4    4  502    0 -0.40708842914E+02 -0.32355892547E+02  0.55075850459E+02  0.75891718769E+02  0.47000000000E+01 0. -1.
         -5    1    4    4    0  502 -0.17019392960E+02  0.27692832533E+02 -0.20835593313E+02  0.38894275404E+02  0.47000000000E+01 0.  1.
          5    1    3    3  503    0  0.25700061215E+02 -0.17718262361E+02  0.16065844816E+02  0.35420775502E+02  0.47000000000E+01 0. -1.
         -5    1    3    3    0  503  0.32028174659E+02  0.22381322375E+02 -0.81746841718E+02  0.90726863134E+02  0.47000000000E+01 0.  1.
<mgrwt>
<rscale>  0 0.10909206E+03</rscale>
<asrwt>0</asrwt>
<pdfrwt beam="1">  1        1 0.16114838E-01 0.10956016E+03</pdfrwt>
<pdfrwt beam="2">  1       -1 0.20951875E-01 0.10956016E+03</pdfrwt>
<totfact> 0.59272506E+03</totfact>
</mgrwt>
</event>
<event>
 8    1  0.9456677E-004  0.9355776E+02  0.7546771E-02  0.1294614E+00
          1   -1    0    0  501    0  0.00000000000E+00  0.00000000000E+00  0.46430034073E+03  0.46430034073E+03  0.00000000000E+00 0. -1.
         -1   -1    0    0    0  501 -0.00000000000E+00 -0.00000000000E+00 -0.22613123261E+02  0.22613123261E+02  0.00000000000E+00 0.  1.
         23    2    1    2    0    0  0.11161480733E+02 -0.14440124926E+02  0.32111639147E+03  0.33446792372E+03  0.91760336012E+02 0.  0.
         23    2    1    2    0    0 -0.11161480733E+02  0.14440124926E+02  0.12057082600E+03  0.15244554028E+03  0.91483456469E+02 0.  0.
          5    1    3    3  502    0 -0.24865545863E+02 -0.36030457978E+02  0.98751366688E+02  0.10812220723E+03  0.47000000000E+01 0. -1.
         -5    1    3    3    0  502  0.36027026597E+02  0.21590333052E+02  0.22236502478E+03  0.22634571649E+03  0.47000000000E+01 0.  1.
          5    1    4    4  503    0 -0.57330577158E+00 -0.22131934605E+02  0.11048447278E+03  0.11277880978E+03  0.47000000000E+01 0. -1.
         -5    1    4    4    0  503 -0.10588174962E+02  0.36572059531E+02  0.10086353221E+02  0.39666730501E+02  0.47000000000E+01 0.  1.
<mgrwt>
<rscale>  0 0.93489803E+02</rscale>
<asrwt>0</asrwt>
<pdfrwt beam="1">  1        1 0.71430814E-01 0.93557764E+02</pdfrwt>
<pdfrwt beam="2">  1       -1 0.34789424E-02 0.93557764E+02</pdfrwt>
<totfact> 0.13822406E+04</totfact>
</mgrwt>
</event>
<event>
 8    1  0.9456677E-004  0.1127730E+03  0.7546771E-02  0.1260593E+00
         -2   -1    0    0    0  501 -0.00000000000E+00  0.00000000000E+00  0.14513785156E+03  0.14513785156E+03  0.00000000000E+00 0.  1.
          2   -1    0    0  501    0  0.00000000000E+00 -0.00000000000E+00 -0.38085253117E+03  0.38085253117E+03  0.00000000000E+00 0. -1.
         23    2    1    2    0    0  0.10945577235E+02  0.44076039026E+02  0.11480074541E+03  0.16092533706E+03  0.10322427081E+03 0.  0.
         23    2    1    2    0    0 -0.10945577235E+02 -0.44076039026E+02 -0.35051542501E+03  0.36506504567E+03  0.91372433030E+02 0.  0.
          5    1    4    4  502    0  0.18558718814E+02 -0.60253836523E+02 -0.16989547726E+03  0.18127745048E+03  0.47000000000E+01 0. -1.
         -5    1    4    4    0  502 -0.29504296049E+02  0.16177797497E+02 -0.18061994775E+03  0.18378759519E+03  0.47000000000E+01 0.  1.
          5    1    3    3  503    0 -0.27606603637E+02  0.13557149049E+02 -0.48421144659E+01  0.31487409026E+02  0.47000000000E+01 0. -1.
         -5    1    3    3    0  503  0.38552180872E+02  0.30518889977E+02  0.11964285987E+03  0.12943792803E+03  0.47000000000E+01 0.  1.
<mgrwt>
<rscale>  0 0.10998733E+03</rscale>
<asrwt>0</asrwt>
<pdfrwt beam="1">  1        2 0.58592696E-01 0.11277302E+03</pdfrwt>
<pdfrwt beam="2">  1       -2 0.22328901E-01 0.11277302E+03</pdfrwt>
<totfact> 0.14335188E+03</totfact>
</mgrwt>
</event>
<event>
 8    1  0.9456677E-004  0.1396475E+03  0.7546771E-02  0.1213900E+00
          2   -1    0    0  501    0  0.00000000000E+00  0.00000000000E+00  0.28029479786E+03  0.28029479786E+03  0.00000000000E+00 0. -1.
         -2   -1    0    0    0  501 -0.00000000000E+00 -0.00000000000E+00 -0.20384763402E+03  0.20384763402E+03  0.00000000000E+00 0.  1.
         23    2    1    2    0    0  0.10600348229E+03  0.45744426563E+01 -0.15833110532E+03  0.21111643674E+03  0.90795083380E+02 0.  0.
         23    2    1    2    0    0 -0.10600348229E+03 -0.45744426563E+01  0.23477826916E+03  0.27302599514E+03  0.90358699460E+02 0.  0.
          5    1    3    3  502    0  0.33098265035E+02 -0.34545358588E+02 -0.25141582754E+02  0.54250033472E+02  0.47000000000E+01 0. -1.
         -5    1    3    3    0  502  0.72905217258E+02  0.39119801244E+02 -0.13318952256E+03  0.15686640327E+03  0.47000000000E+01 0.  1.
          5    1    4    4  503    0 -0.11052092814E+03  0.18187674911E+02  0.21372511040E+03  0.24134245356E+03  0.47000000000E+01 0. -1.
         -5    1    4    4    0  503  0.45174458491E+01 -0.22762117567E+02  0.21053158766E+02  0.31683541582E+02  0.47000000000E+01 0.  1.
<mgrwt>
<rscale>  0 0.13957657E+03</rscale>
<asrwt>0</asrwt>
<pdfrwt beam="1">  1        2 0.43122277E-01 0.13964745E+03</pdfrwt>
<pdfrwt beam="2">  1       -2 0.31361174E-01 0.13964745E+03</pdfrwt>
<totfact> 0.10967531E+03</totfact>
</mgrwt>
</event>
<event>
 8    1  0.9456677E-004  0.9343161E+02  0.7546771E-02  0.1294820E+00
          1   -1    0    0  501    0  0.00000000000E+00  0.00000000000E+00  0.50236446835E+03  0.50236446835E+03  0.00000000000E+00 0. -1.
         -1   -1    0    0    0  501 -0.00000000000E+00 -0.00000000000E+00 -0.33326696988E+02  0.33326696988E+02  0.00000000000E+00 0.  1.
         23    2    1    2    0    0  0.19888280747E+02 -0.23027311618E+01  0.42003336080E+03  0.43029930367E+03  0.91261274766E+02 0.  0.
         23    2    1    2    0    0 -0.19888280747E+02  0.23027311618E+01  0.49004410558E+02  0.10539186166E+03  0.91132683320E+02 0.  0.
          5    1    4    4  502    0 -0.43064160493E+02 -0.48136822686E+01  0.63301856851E+02  0.76856415066E+02  0.47000000000E+01 0. -1.
         -5    1    4    4    0  502  0.23175879745E+02  0.71164134305E+01 -0.14297446293E+02  0.28535446599E+02  0.47000000000E+01 0.  1.
          5    1    3    3  503    0 -0.33045640718E+02 -0.25777142829E+01  0.24786980019E+03  0.25012034469E+03  0.47000000000E+01 0. -1.
         -5    1    3    3    0  503  0.52933921465E+02  0.27498312108E+00  0.17216356062E+03  0.18017895899E+03  0.47000000000E+01 0.  1.
<mgrwt>
<rscale>  0 0.93400198E+02</rscale>
<asrwt>0</asrwt>
<pdfrwt beam="1">  1        1 0.77286836E-01 0.93431614E+02</pdfrwt>
<pdfrwt beam="2">  1       -1 0.51271845E-02 0.93431614E+02</pdfrwt>
<totfact> 0.71045350E+03</totfact>
</mgrwt>
</event>
<event>
 8    1  0.9456677E-004  0.9982204E+02  0.7546771E-02  0.1281459E+00
         -3   -1    0    0    0  501 -0.00000000000E+00  0.00000000000E+00  0.24286735286E+03  0.24286735286E+03  0.00000000000E+00 0.  1.
          3   -1    0    0  501    0  0.00000000000E+00 -0.00000000000E+00 -0.40452948213E+02  0.40452948213E+02  0.00000000000E+00 0. -1.
         23    2    1    2    0    0 -0.34393835577E+02  0.59815411860E+01  0.96445688362E+02  0.13773936772E+03  0.91932844276E+02 0.  0.
         23    2    1    2    0    0  0.34393835577E+02 -0.59815411860E+01  0.10596871629E+03  0.14558093335E+03  0.93518578705E+02 0.  0.
          5    1    4    4  502    0  0.40288577481E+02 -0.27615901606E+02  0.14327353841E+02  0.51119180011E+02  0.47000000000E+01 0. -1.
         -5    1    4    4    0  502 -0.58947419036E+01  0.21634360420E+02  0.91641362446E+02  0.94461753339E+02  0.47000000000E+01 0.  1.
          5    1    3    3  503    0  0.26450794183E+02  0.21258452105E+02  0.24206586023E+02  0.41947766398E+02  0.47000000000E+01 0. -1.
         -5    1    3    3    0  503 -0.60844629761E+02 -0.15276910919E+02  0.72239102339E+02  0.95791601326E+02  0.47000000000E+01 0.  1.
<mgrwt>
<rscale>  0 0.99448943E+02</rscale>
<asrwt>0</asrwt>
<pdfrwt beam="1">  1        3 0.62235306E-02 0.99822038E+02</pdfrwt>
<pdfrwt beam="2">  1       -3 0.37364207E-01 0.99822038E+02</pdfrwt>
<totfact> 0.24544283E+03</totfact>
</mgrwt>
</event>
<event>
 8    1  0.9456677E-004  0.1171209E+03  0.7546771E-02  0.1255056E+00
         -2   -1    0    0    0  501 -0.00000000000E+00  0.00000000000E+00  0.44176091291E+02  0.44176091291E+02  0.00000000000E+00 0.  1.
          2   -1    0    0  501    0  0.00000000000E+00 -0.00000000000E+00 -0.48129557531E+03  0.48129557531E+03  0.00000000000E+00 0. -1.
         23    2    1    2    0    0 -0.14757795981E+02  0.43791482668E+02 -0.38337197639E+03  0.39660697779E+03  0.90485004552E+02 0.  0.
         23    2    1    2    0    0  0.14757795981E+02 -0.43791482668E+02 -0.53747507627E+02  0.12886468882E+03  0.10761889681E+03 0.  0.
          5    1    4    4  502    0 -0.24460690474E+02  0.25101614361E+02 -0.28856383998E+02  0.45642056477E+02  0.47000000000E+01 0. -1.
         -5    1    3    3    0  503  0.21897025686E+02  0.53893007509E+02 -0.16785396266E+03  0.17771037891E+03  0.47000000000E+01 0.  1.
          5    1    3    3  503    0 -0.36654821667E+02 -0.10101524841E+02 -0.21551801373E+03  0.21889659887E+03  0.47000000000E+01 0. -1.
         -5    1    4    4    0  502  0.39218486455E+02 -0.68893097028E+02 -0.24891123628E+02  0.83222632339E+02  0.47000000000E+01 0.  1.
<mgrwt>
<rscale>  0 0.11303209E+03</rscale>
<asrwt>0</asrwt>
<pdfrwt beam="1">  1        2 0.74045476E-01 0.11712094E+03</pdfrwt>
<pdfrwt beam="2">  1       -2 0.67963215E-02 0.11712094E+03</pdfrwt>
<totfact> 0.75125395E+03</totfact>
</mgrwt>
</event>
<event>
 8    1  0.9456677E-004  0.9953010E+02  0.7546771E-02  0.1282511E+00
          2   -1    0    0  501    0  0.00000000000E+00  0.00000000000E+00  0.62150452921E+03  0.62150452921E+03  0.00000000000E+00 0. -1.
         -2   -1    0    0    0  501 -0.00000000000E+00 -0.00000000000E+00 -0.15584171379E+02  0.15584171379E+02  0.00000000000E+00 0.  1.
         23    2    1    2    0    0 -0.11060962592E+02  0.31896680388E+02  0.29896817725E+03  0.31510032064E+03  0.93629578365E+02 0.  0.
         23    2    1    2    0    0  0.11060962592E+02 -0.31896680388E+02  0.30695218058E+03  0.32198837995E+03  0.91198314388E+02 0.  0.
          5    1    3    3  502    0 -0.24389176586E+02 -0.26444066715E+02  0.76354628167E+02  0.84535435418E+02  0.47000000000E+01 0. -1.
         -5    1    4    4    0  503 -0.19421076411E+02  0.20068232954E+02  0.45101661419E+02  0.53255629239E+02  0.47000000000E+01 0.  1.
          5    1    4    4  503    0  0.30482039003E+02 -0.51964913343E+02  0.26185051916E+03  0.26873275071E+03  0.47000000000E+01 0. -1.
         -5    1    3    3    0  502  0.13328213993E+02  0.58340747103E+02  0.22261354909E+03  0.23056488522E+03  0.47000000000E+01 0.  1.
<mgrwt>
<rscale>  0 0.98954214E+02</rscale>
<asrwt>0</asrwt>
<pdfrwt beam="1">  1        2 0.95616062E-01 0.99530101E+02</pdfrwt>
<pdfrwt beam="2">  1       -2 0.23975653E-02 0.99530101E+02</pdfrwt>
<totfact> 0.26108201E+04</totfact>
</mgrwt>
</event>
<event>
 8    1  0.9456677E-004  0.1075543E+03  0.7546771E-02  0.1269383E+00
          1   -1    0    0  501    0  0.00000000000E+00  0.00000000000E+00  0.31472944538E+03  0.31472944538E+03  0.00000000000E+00 0. -1.
         -1   -1    0    0    0  501 -0.00000000000E+00 -0.00000000000E+00 -0.50873465113E+02  0.50873465113E+02  0.00000000000E+00 0.  1.
         23    2    1    2    0    0 -0.19899578792E+02 -0.36339088388E+02  0.30066226869E+02  0.11167772914E+03  0.99254292634E+02 0.  0.
         23    2    1    2    0    0  0.19899578792E+02  0.36339088388E+02  0.23378975340E+03  0.25392518135E+03  0.90021254997E+02 0.  0.
          5    1    3    3  502    0 -0.59854224963E+02 -0.17826878376E+02  0.23575688439E+02  0.66919570560E+02  0.47000000000E+01 0. -1.
         -5    1    4    4    0  503  0.55117395817E+02  0.29165829882E+02  0.15756527053E+03  0.16952131851E+03  0.47000000000E+01 0.  1.
          5    1    4    4  503    0 -0.35217817025E+02  0.71732585055E+01  0.76224482869E+02  0.84403862840E+02  0.47000000000E+01 0. -1.
         -5    1    3    3    0  502  0.39954646171E+02 -0.18512210012E+02  0.64905384302E+01  0.44758158578E+02  0.47000000000E+01 0.  1.
<mgrwt>
<rscale>  0 0.10537482E+03</rscale>
<asrwt>0</asrwt>
<pdfrwt beam="1">  1        1 0.48419913E-01 0.10755435E+03</pdfrwt>
<pdfrwt beam="2">  1       -1 0.78266872E-02 0.10755435E+03</pdfrwt>
<totfact> 0.68840595E+03</totfact>
</mgrwt>
</event>
<event>
 8    1  0.9456677E-004  0.1130056E+03  0.7546771E-02  0.1260638E+00
         -2   -1    0    0    0  501 -0.00000000000E+00  0.00000000000E+00  0.20421973246E+03  0.20421973246E+03  0.00000000000E+00 0.  1.
          2   -1    0    0  501    0  0.00000000000E+00 -0.00000000000E+00 -0.12657326690E+03  0.12657326690E+03  0.00000000000E+00 0. -1.
         23    2    1    2    0    0 -0.87091117573E+01  0.40258204977E+02  0.16298134734E+03  0.19832598138E+03  0.10523166640E+03 0.  0.
         23    2    1    2    0    0  0.87091117573E+01 -0.40258204977E+02 -0.85334881780E+02  0.13246701798E+03  0.92568337501E+02 0.  0.
          5    1    3    3  502    0  0.44693303559E+02  0.27730305204E+01  0.87788428025E+02  0.98661437129E+02  0.47000000000E+01 0. -1.
         -5    1    3    3    0  502 -0.53402415316E+02  0.37485174457E+02  0.75192919311E+02  0.99664544248E+02  0.47000000000E+01 0.  1.
          5    1    4    4  503    0 -0.34539112119E+02 -0.37717726631E+02 -0.68807464420E+02  0.85861133979E+02  0.47000000000E+01 0. -1.
         -5    1    4    4    0  503  0.43248223876E+02 -0.25404783465E+01 -0.16527417360E+02  0.46605883998E+02  0.47000000000E+01 0.  1.
<mgrwt>
<rscale>  0 0.10996322E+03</rscale>
<asrwt>0</asrwt>
<pdfrwt beam="1">  1        2 0.19472810E-01 0.11300564E+03</pdfrwt>
<pdfrwt beam="2">  1       -2 0.31418420E-01 0.11300564E+03</pdfrwt>
<totfact> 0.25746067E+03</totfact>
</mgrwt>
</event>
<event>
 8    1  0.9456677E-004  0.1316155E+03  0.7546771E-02  0.1225539E+00
         -2   -1    0    0    0  501 -0.00000000000E+00  0.00000000000E+00  0.36324263370E+02  0.36324263370E+02  0.00000000000E+00 0.  1.
          2   -1    0    0  501    0  0.00000000000E+00 -0.00000000000E+00 -0.68031887721E+03  0.68031887721E+03  0.00000000000E+00 0. -1.
         23    2    1    2    0    0 -0.35659713786E+02 -0.87411451396E+02 -0.12495496476E+03  0.18148383952E+03  0.91707490238E+02 0.  0.
         23    2    1    2    0    0  0.35659713786E+02  0.87411451396E+02 -0.51903964908E+03  0.53515930106E+03  0.89894066391E+02 0.  0.
          5    1    4    4  502    0  0.76792271134E+01  0.58273140346E+02 -0.11651675849E+03  0.13058703773E+03  0.47000000000E+01 0.  1.
         -5    1    3    3    0  503 -0.37064109021E+02 -0.94111037397E+01 -0.85835081988E+02  0.94085431131E+02  0.47000000000E+01 0. -1.
          5    1    3    3  503    0  0.14043952344E+01 -0.78000347657E+02 -0.39119882768E+02  0.87398408385E+02  0.47000000000E+01 0.  1.
         -5    1    4    4    0  502  0.27980486673E+02  0.29138311050E+02 -0.40252289059E+03  0.40457226333E+03  0.47000000000E+01 0. -1.
<mgrwt>
<rscale>  0 0.13130010E+03</rscale>
<asrwt>0</asrwt>
<pdfrwt beam="1">  1        2 0.10466444E+00 0.13161550E+03</pdfrwt>
<pdfrwt beam="2">  1       -2 0.55883483E-02 0.13161550E+03</pdfrwt>
<totfact> 0.68964098E+03</totfact>
</mgrwt>
</event>
<event>
 7    1  0.9456677E-004  0.2439747E+03  0.7546771E-02  0.1137515E+00
         -2   -1    0    0    0  501 -0.00000000000E+00  0.00000000000E+00  0.27226620621E+03  0.27226620621E+03  0.00000000000E+00 0.  1.
          2   -1    0    0  501    0  0.00000000000E+00 -0.00000000000E+00 -0.15418708077E+03  0.15418708077E+03  0.00000000000E+00 0. -1.
         23    2    1    2    0    0  0.15729506508E+02  0.98968500044E+02 -0.15185714436E+02  0.14845479625E+03  0.10847137517E+03 0.  0.
          5    1    3    3  502    0 -0.25231152035E+02  0.90062866350E+02 -0.37330741510E+02  0.10081470721E+03  0.47000000000E+01 0. -1.
         -5    1    3    3    0  502  0.40960658543E+02  0.89056336936E+01  0.22145027074E+02  0.47640089041E+02  0.47000000000E+01 0.  1.
          5    1    1    2  503    0 -0.45109715202E+02 -0.34842438526E+02 -0.53492259062E+02  0.78309601631E+02  0.47000000000E+01 0. -1.
         -5    1    1    2    0  503  0.29380208694E+02 -0.64126061517E+02  0.18675709894E+03  0.19968888910E+03  0.47000000000E+01 0.  1.
<mgrwt>
<rscale>  0 0.21519694E+03</rscale>
<asrwt>0</asrwt>
<pdfrwt beam="1">  1        2 0.23721089E-01 0.24397468E+03</pdfrwt>
<pdfrwt beam="2">  1       -2 0.41887109E-01 0.24397468E+03</pdfrwt>
<totfact> 0.12405588E+03</totfact>
</mgrwt>
</event>
<event>
 8    1  0.9456677E-004  0.9850248E+02  0.7546771E-02  0.1287315E+00
          2   -1    0    0  501    0  0.00000000000E+00  0.00000000000E+00  0.96022315235E+02  0.96022315235E+02  0.00000000000E+00 0. -1.
         -2   -1    0    0    0  501 -0.00000000000E+00 -0.00000000000E+00 -0.12202617225E+03  0.12202617225E+03  0.00000000000E+00 0.  1.
         23    2    1    2    0    0  0.79408278193E+01 -0.35563539662E+02 -0.64758563293E+02  0.11219639603E+03  0.84062700784E+02 0.  0.
         23    2    1    2    0    0 -0.79408278193E+01  0.35563539662E+02  0.38754706276E+02  0.10585209145E+03  0.91514566638E+02 0.  0.
          5    1    3    3  502    0 -0.17868522219E+02  0.14819380656E+02  0.28912068943E+01  0.23860997603E+02  0.47000000000E+01 0. -1.
         -5    1    3    3    0  502  0.25809350038E+02 -0.50382920319E+02 -0.67649770187E+02  0.88335398429E+02  0.47000000000E+01 0.  1.
          5    1    4    4  503    0 -0.65167484729E+01  0.64467540271E+02  0.40373001440E+02  0.76489221492E+02  0.47000000000E+01 0. -1.
         -5    1    4    4    0  503 -0.14240793464E+01 -0.28904000609E+02 -0.16182951635E+01  0.29362869962E+02  0.47000000000E+01 0.  1.
<mgrwt>
<rscale>  0 0.96735039E+02</rscale>
<asrwt>0</asrwt>
<pdfrwt beam="1">  1        2 0.14772664E-01 0.98502477E+02</pdfrwt>
<pdfrwt beam="2">  1       -2 0.18773257E-01 0.98502477E+02</pdfrwt>
<totfact> 0.85298746E+03</totfact>
</mgrwt>
</event>
<event>
 8    1  0.9456677E-004  0.3630785E+03  0.7546771E-02  0.1057432E+00
         -1   -1    0    0    0  501 -0.00000000000E+00  0.00000000000E+00  0.21435286702E+03  0.21435286702E+03  0.00000000000E+00 0.  1.
          1   -1    0    0  501    0  0.00000000000E+00 -0.00000000000E+00 -0.14494423199E+04  0.14494423199E+04  0.00000000000E+00 0. -1.
         23    2    1    2    0    0  0.11495885008E+03 -0.33130443824E+03 -0.12489189192E+04  0.13004533828E+04  0.91664421107E+02 0.  0.
         23    2    1    2    0    0 -0.11495885008E+03  0.33130443824E+03  0.13829466333E+02  0.36334180411E+03  0.94062981373E+02 0.  0.
          5    1    3    3  502    0  0.78139238963E+02 -0.17163160919E+03 -0.81640027032E+03  0.83791087910E+03  0.47000000000E+01 0. -1.
         -5    1    4    4    0  503 -0.12883541369E+03  0.30517625525E+03  0.22794765171E+02  0.33207348872E+03  0.47000000000E+01 0.  1.
          5    1    4    4  503    0  0.13876563615E+02  0.26128182993E+02 -0.89652988387E+01  0.31268315393E+02  0.47000000000E+01 0. -1.
         -5    1    3    3    0  502  0.36819611117E+02 -0.15967282906E+03 -0.43251864888E+03  0.46254250370E+03  0.47000000000E+01 0.  1.
<mgrwt>
<rscale>  0 0.36292493E+03</rscale>
<asrwt>0</asrwt>
<pdfrwt beam="1">  1        1 0.22299113E+00 0.36307852E+03</pdfrwt>
<pdfrwt beam="2">  1       -1 0.32977363E-01 0.36307852E+03</pdfrwt>
<totfact> 0.66417325E+01</totfact>
</mgrwt>
</event>
<event>
 8    1  0.9456677E-004  0.1151078E+03  0.7546771E-02  0.1252084E+00
         -1   -1    0    0    0  501 -0.00000000000E+00  0.00000000000E+00  0.23683988464E+03  0.23683988464E+03  0.00000000000E+00 0.  1.
          1   -1    0    0  501    0  0.00000000000E+00 -0.00000000000E+00 -0.79061545800E+02  0.79061545800E+02  0.00000000000E+00 0. -1.
         23    2    1    2    0    0  0.60521859949E+02  0.30340563039E+02 -0.75362848562E+01  0.11535424413E+03  0.93093290580E+02 0.  0.
         23    2    1    2    0    0 -0.60521859949E+02 -0.30340563039E+02  0.16531462369E+03  0.20054718631E+03  0.91141669028E+02 0.  0.
          5    1    3    3  502    0  0.65814272873E+02 -0.15954274308E+02  0.21884088816E+00  0.67883689306E+02  0.47000000000E+01 0. -1.
         -5    1    3    3    0  502 -0.52924129236E+01  0.46294837347E+02 -0.77551257443E+01  0.47470554819E+02  0.47000000000E+01 0.  1.
          5    1    4    4  503    0 -0.21539992876E+02 -0.20136636590E+02 -0.47872211945E+00  0.29862595351E+02  0.47000000000E+01 0. -1.
         -5    1    4    4    0  503 -0.38981867074E+02 -0.10203926449E+02  0.16579334581E+03  0.17068459096E+03  0.47000000000E+01 0.  1.
<mgrwt>
<rscale>  0 0.11471263E+03</rscale>
<asrwt>0</asrwt>
<pdfrwt beam="1">  1        1 0.12163315E-01 0.11510780E+03</pdfrwt>
<pdfrwt beam="2">  1       -1 0.36436905E-01 0.11510780E+03</pdfrwt>
<totfact> 0.34204027E+03</totfact>
</mgrwt>
</event>
<event>
 8    1  0.9456677E-004  0.9150201E+02  0.7546771E-02  0.1307003E+00
         -2   -1    0    0    0  501 -0.00000000000E+00  0.00000000000E+00  0.26121837828E+03  0.26121837828E+03  0.00000000000E+00 0.  1.
          2   -1    0    0  501    0  0.00000000000E+00 -0.00000000000E+00 -0.28165688456E+02  0.28165688456E+02  0.00000000000E+00 0. -1.
         23    2    1    2    0    0 -0.60107721831E+01  0.23068056301E+01  0.13747709868E+03  0.16514408902E+03  0.91275225244E+02 0.  0.
         23    2    1    2    0    0  0.60107721831E+01 -0.23068056301E+01  0.95575591146E+02  0.12423997771E+03  0.79116545077E+02 0.  0.
          5    1    3    3  502    0 -0.42518056075E+02 -0.17047712754E+02  0.48228406220E+02  0.66681922356E+02  0.47000000000E+01 0. -1.
         -5    1    3    3    0  502  0.36507283892E+02  0.19354518385E+02  0.89248692459E+02  0.98462166666E+02  0.47000000000E+01 0.  1.
          5    1    4    4  503    0 -0.24780894481E+02  0.21643451857E+02  0.19284884957E+02  0.38425623318E+02  0.47000000000E+01 0. -1.
         -5    1    4    4    0  503  0.30791666664E+02 -0.23950257487E+02  0.76290706189E+02  0.85814354396E+02  0.47000000000E+01 0.  1.
<mgrwt>
<rscale>  0 0.88307605E+02</rscale>
<asrwt>0</asrwt>
<pdfrwt beam="1">  1        2 0.43331830E-02 0.91502008E+02</pdfrwt>
<pdfrwt beam="2">  1       -2 0.40187441E-01 0.91502008E+02</pdfrwt>
<totfact> 0.10110795E+04</totfact>
</mgrwt>
</event>
<event>
 8    1  0.9456677E-004  0.9250096E+02  0.7546771E-02  0.1297215E+00
         -1   -1    0    0    0  501 -0.00000000000E+00  0.00000000000E+00  0.53747519385E+02  0.53747519385E+02  0.00000000000E+00 0.  1.
          1   -1    0    0  501    0  0.00000000000E+00 -0.00000000000E+00 -0.17774011477E+03  0.17774011477E+03  0.00000000000E+00 0. -1.
         23    2    1    2    0    0  0.15848679223E+02  0.80496941069E+01 -0.10044477400E+03  0.13654882126E+03  0.90776923036E+02 0.  0.
         23    2    1    2    0    0 -0.15848679223E+02 -0.80496941069E+01 -0.23547821380E+02  0.94938812889E+02  0.90238019109E+02 0.  0.
          5    1    4    4  502    0 -0.24455449481E+02 -0.46140723526E+02 -0.10296778760E+02  0.53433594579E+02  0.47000000000E+01 0. -1.
         -5    1    3    3    0  503  0.68545925318E+01  0.43021799868E+02 -0.87577920163E+02  0.97927742763E+02  0.47000000000E+01 0.  1.
          5    1    3    3  503    0  0.89940866908E+01 -0.34972105761E+02 -0.12866853838E+02  0.38621078500E+02  0.47000000000E+01 0. -1.
         -5    1    4    4    0  502  0.86067702580E+01  0.38091029419E+02 -0.13251042619E+02  0.41505218310E+02  0.47000000000E+01 0.  1.
<mgrwt>
<rscale>  0 0.92368477E+02</rscale>
<asrwt>0</asrwt>
<pdfrwt beam="1">  1        1 0.27344633E-01 0.92500962E+02</pdfrwt>
<pdfrwt beam="2">  1       -1 0.82688490E-02 0.92500962E+02</pdfrwt>
<totfact> 0.12622841E+04</totfact>
</mgrwt>
</event>
<event>
 8    1  0.9456677E-004  0.1255760E+03  0.7546771E-02  0.1235637E+00
         -2   -1    0    0    0  501 -0.00000000000E+00  0.00000000000E+00  0.20851806711E+03  0.20851806711E+03  0.00000000000E+00 0.  1.
          2   -1    0    0  501    0  0.00000000000E+00 -0.00000000000E+00 -0.96950413443E+02  0.96950413443E+02  0.00000000000E+00 0. -1.
         23    2    1    2    0    0 -0.27345205461E+02 -0.78812401608E+02  0.13040909261E+03  0.17848682821E+03  0.88836149740E+02 0.  0.
         23    2    1    2    0    0  0.27345205461E+02  0.78812401608E+02 -0.18841438950E+02  0.12698165234E+03  0.93862587324E+02 0.  0.
          5    1    4    4  502    0 -0.23049217255E+02  0.38156827407E+02 -0.38565252208E+02  0.59131874414E+02  0.47000000000E+01 0. -1.
         -5    1    4    4    0  502  0.50394422716E+02  0.40655574201E+02  0.19723813258E+02  0.67849777921E+02  0.47000000000E+01 0.  1.
          5    1    3    3  503    0  0.29208635541E+02 -0.25090063927E+02  0.21220633603E+02  0.44216071609E+02  0.47000000000E+01 0. -1.
         -5    1    3    3    0  503 -0.56553841002E+02 -0.53722337681E+02  0.10918845901E+03  0.13427075660E+03  0.47000000000E+01 0.  1.
<mgrwt>
<rscale>  0 0.12463775E+03</rscale>
<asrwt>0</asrwt>
<pdfrwt beam="1">  1        2 0.14915448E-01 0.12557603E+03</pdfrwt>
<pdfrwt beam="2">  1       -2 0.32079703E-01 0.12557603E+03</pdfrwt>
<totfact> 0.33877668E+03</totfact>
</mgrwt>
</event>
<event>
 8    1  0.9456677E-004  0.1037723E+03  0.7546771E-02  0.1277068E+00
         -4   -1    0    0    0  501 -0.00000000000E+00  0.00000000000E+00  0.34513045117E+03  0.34513045117E+03  0.00000000000E+00 0.  1.
          4   -1    0    0  501    0  0.00000000000E+00 -0.00000000000E+00 -0.58894214474E+02  0.58894214474E+02  0.00000000000E+00 0. -1.
         23    2    1    2    0    0  0.33764098278E+02  0.49561827037E+01  0.29078694318E+03  0.30874866930E+03  0.98000593839E+02 0.  0.
         23    2    1    2    0    0 -0.33764098278E+02 -0.49561827037E+01 -0.45507064823E+01  0.95275996343E+02  0.88838215145E+02 0.  0.
          5    1    4    4  502    0 -0.61910791242E+02  0.43451417961E+01  0.79818936502E+01  0.62750513589E+02  0.47000000000E+01 0. -1.
         -5    1    3    3    0  503  0.68381826850E+02  0.56773204649E+01  0.18817063086E+03  0.20034615676E+03  0.47000000000E+01 0.  1.
          5    1    3    3  503    0 -0.34617728571E+02 -0.72113776120E+00  0.10261631232E+03  0.10840251254E+03  0.47000000000E+01 0. -1.
         -5    1    4    4    0  502  0.28146692964E+02 -0.93013244997E+01 -0.12532600132E+02  0.32525482753E+02  0.47000000000E+01 0. -1.
<mgrwt>
<rscale>  0 0.10155073E+03</rscale>
<asrwt>0</asrwt>
<pdfrwt beam="1">  1        4 0.90606486E-02 0.10377232E+03</pdfrwt>
<pdfrwt beam="2">  1       -4 0.53096991E-01 0.10377232E+03</pdfrwt>
<totfact> 0.48227013E+02</totfact>
</mgrwt>
</event>
<event>
 8    1  0.9456677E-004  0.1042376E+03  0.7546771E-02  0.1271637E+00
         -1   -1    0    0    0  501 -0.00000000000E+00  0.00000000000E+00  0.31937913876E+02  0.31937913876E+02  0.00000000000E+00 0.  1.
          1   -1    0    0  501    0  0.00000000000E+00 -0.00000000000E+00 -0.66122434731E+03  0.66122434731E+03  0.00000000000E+00 0. -1.
         23    2    1    2    0    0  0.46403903009E+02 -0.13258314487E+02 -0.73147897607E+02  0.12734244686E+03  0.92392525293E+02 0.  0.
         23    2    1    2    0    0 -0.46403903009E+02  0.13258314487E+02 -0.55613853583E+03  0.56581981433E+03  0.92373622518E+02 0.  0.
          5    1    3    3  502    0  0.67388555288E+02 -0.16682037581E+02 -0.24030035914E+02  0.73614131712E+02  0.47000000000E+01 0. -1.
         -5    1    3    3    0  502 -0.20984652279E+02  0.34237230948E+01 -0.49117861694E+02  0.53728315146E+02  0.47000000000E+01 0.  1.
          5    1    4    4  503    0  0.28595444353E+01  0.42095547208E+02 -0.15890550405E+03  0.16447875640E+03  0.47000000000E+01 0. -1.
         -5    1    4    4    0  503 -0.49263447444E+02 -0.28837232722E+02 -0.39723303177E+03  0.40134105792E+03  0.47000000000E+01 0.  1.
<mgrwt>
<rscale>  0 0.10423344E+03</rscale>
<asrwt>0</asrwt>
<pdfrwt beam="1">  1        1 0.10172682E+00 0.10423763E+03</pdfrwt>
<pdfrwt beam="2">  1       -1 0.49135255E-02 0.10423763E+03</pdfrwt>
<totfact> 0.52799854E+03</totfact>
</mgrwt>
</event>
<event>
 8    1  0.9456677E-004  0.1155334E+03  0.7546771E-02  0.1256880E+00
         -1   -1    0    0    0  501 -0.00000000000E+00  0.00000000000E+00  0.10117455124E+03  0.10117455124E+03  0.00000000000E+00 0.  1.
          1   -1    0    0  501    0  0.00000000000E+00 -0.00000000000E+00 -0.12636627013E+03  0.12636627013E+03  0.00000000000E+00 0. -1.
         23    2    1    2    0    0 -0.12821357206E+02  0.44312037029E+02  0.17549225643E+02  0.11685868350E+03  0.10592465606E+03 0.  0.
         23    2    1    2    0    0  0.12821357206E+02 -0.44312037029E+02 -0.42740944534E+02  0.11068213788E+03  0.91081301480E+02 0.  0.
          5    1    3    3  502    0  0.13722076396E+02  0.57555042364E+02  0.46303597521E+02  0.75279422325E+02  0.47000000000E+01 0. -1.
         -5    1    3    3    0  502 -0.26543433601E+02 -0.13243005335E+02 -0.28754371878E+02  0.41579261174E+02  0.47000000000E+01 0.  1.
          5    1    4    4  503    0  0.38679255649E+02  0.11169187835E+01  0.55369859913E+01  0.39371062203E+02  0.47000000000E+01 0. -1.
         -5    1    4    4    0  503 -0.25857898443E+02 -0.45428955812E+02 -0.48277930525E+02  0.71311075675E+02  0.47000000000E+01 0.  1.
<mgrwt>
<rscale>  0 0.11201696E+03</rscale>
<asrwt>0</asrwt>
<pdfrwt beam="1">  1        1 0.19440964E-01 0.11553344E+03</pdfrwt>
<pdfrwt beam="2">  1       -1 0.15565316E-01 0.11553344E+03</pdfrwt>
<totfact> 0.75008701E+03</totfact>
</mgrwt>
</event>
<event>
 8    1  0.9456677E-004  0.1123719E+03  0.7546771E-02  0.1256422E+00
         -1   -1    0    0    0  501 -0.00000000000E+00  0.00000000000E+00  0.30379185940E+02  0.30379185940E+02  0.00000000000E+00 0.  1.
          1   -1    0    0  501    0  0.00000000000E+00 -0.00000000000E+00 -0.42188829338E+03  0.42188829338E+03  0.00000000000E+00 0. -1.
         23    2    1    2    0    0  0.25154425842E+02  0.60036325832E+02 -0.22600846732E+03  0.25222274201E+03  0.91100926056E+02 0.  0.
         23    2    1    2    0    0 -0.25154425842E+02 -0.60036325832E+02 -0.16550064012E+03  0.20004473731E+03  0.91598741726E+02 0.  0.
          5    1    3    3  502    0  0.49267729495E+02  0.27411744482E+02 -0.18837463822E+03  0.19668707947E+03  0.47000000000E+01 0. -1.
         -5    1    3    3    0  502 -0.24113303653E+02  0.32624581349E+02 -0.37633829099E+02  0.55535662542E+02  0.47000000000E+01 0.  1.
          5    1    4    4  503    0  0.23484631405E+02  0.10367349234E+02 -0.47641223305E+02  0.54321137694E+02  0.47000000000E+01 0. -1.
         -5    1    4    4    0  503 -0.48639057247E+02 -0.70403675065E+02 -0.11785941681E+03  0.14572359961E+03  0.47000000000E+01 0.  1.
<mgrwt>
<rscale>  0 0.11227037E+03</rscale>
<asrwt>0</asrwt>
<pdfrwt beam="1">  1        1 0.64905886E-01 0.11237186E+03</pdfrwt>
<pdfrwt beam="2">  1       -1 0.46737213E-02 0.11237186E+03</pdfrwt>
<totfact> 0.10303774E+04</totfact>
</mgrwt>
</event>
<event>
 8    1  0.9456677E-004  0.1045819E+03  0.7546771E-02  0.1271034E+00
         -1   -1    0    0    0  501 -0.00000000000E+00  0.00000000000E+00  0.41588771854E+02  0.41588771854E+02  0.00000000000E+00 0.  1.
          1   -1    0    0  501    0  0.00000000000E+00 -0.00000000000E+00 -0.38022962263E+03  0.38022962263E+03  0.00000000000E+00 0. -1.
         23    2    1    2    0    0 -0.41822991483E+02  0.15931458394E+02 -0.52081542952E+02  0.11683258523E+03  0.94521912133E+02 0.  0.
         23    2    1    2    0    0  0.41822991483E+02 -0.15931458394E+02 -0.28655930783E+03  0.30498580925E+03  0.94324614812E+02 0.  0.
          5    1    3    3  502    0 -0.18558661759E+02  0.26740519710E+02 -0.75139434576E+02  0.82021362760E+02  0.47000000000E+01 0. -1.
         -5    1    4    4    0  503 -0.15523614268E+02  0.19548881476E+02 -0.28307752863E+02  0.38033672438E+02  0.47000000000E+01 0.  1.
          5    1    4    4  503    0  0.57346605751E+02 -0.35480339870E+02 -0.25825155496E+03  0.26695213681E+03  0.47000000000E+01 0. -1.
         -5    1    3    3    0  502 -0.23264329723E+02 -0.10809061316E+02  0.23057891624E+02  0.34811222474E+02  0.47000000000E+01 0.  1.
<mgrwt>
<rscale>  0 0.10453726E+03</rscale>
<asrwt>0</asrwt>
<pdfrwt beam="1">  1        1 0.58496863E-01 0.10458186E+03</pdfrwt>
<pdfrwt beam="2">  1       -1 0.63982728E-02 0.10458186E+03</pdfrwt>
<totfact> 0.73430105E+03</totfact>
</mgrwt>
</event>
<event>
 8    1  0.9456677E-004  0.1021868E+03  0.7546771E-02  0.1275807E+00
         -2   -1    0    0    0  501 -0.00000000000E+00  0.00000000000E+00  0.27169905444E+02  0.27169905444E+02  0.00000000000E+00 0.  1.
          2   -1    0    0  501    0  0.00000000000E+00 -0.00000000000E+00 -0.44234893899E+03  0.44234893899E+03  0.00000000000E+00 0. -1.
         23    2    1    2    0    0  0.12090187707E+02  0.44477335385E+02 -0.29277061157E+03  0.31006363581E+03  0.91106647690E+02 0.  0.
         23    2    1    2    0    0 -0.12090187707E+02 -0.44477335385E+02 -0.12240842198E+03  0.15945520862E+03  0.91201621606E+02 0.  0.
          5    1    4    4  502    0 -0.23304352504E+02  0.17130360517E+02 -0.75757181491E+02  0.81226736020E+02  0.47000000000E+01 0. -1.
         -5    1    3    3    0  503 -0.27264857777E+02  0.52656657381E+01 -0.19890093460E+03  0.20088497079E+03  0.47000000000E+01 0.  1.
          5    1    3    3  503    0  0.39355045484E+02  0.39211669647E+02 -0.93869676970E+02  0.10917866502E+03  0.47000000000E+01 0. -1.
         -5    1    4    4    0  502  0.11214164797E+02 -0.61607695902E+02 -0.46651240485E+02  0.78228472599E+02  0.47000000000E+01 0.  1.
<mgrwt>
<rscale>  0 0.10216560E+03</rscale>
<asrwt>0</asrwt>
<pdfrwt beam="1">  1        2 0.68053684E-01 0.10218680E+03</pdfrwt>
<pdfrwt beam="2">  1       -2 0.41799854E-02 0.10218680E+03</pdfrwt>
<totfact> 0.16862326E+04</totfact>
</mgrwt>
</event>
<event>
 8    1  0.9456677E-004  0.9814373E+02  0.7546771E-02  0.1290005E+00
         -1   -1    0    0    0  501 -0.00000000000E+00  0.00000000000E+00  0.13904164825E+03  0.13904164825E+03  0.00000000000E+00 0.  1.
          1   -1    0    0  501    0  0.00000000000E+00 -0.00000000000E+00 -0.71547033043E+02  0.71547033043E+02  0.00000000000E+00 0. -1.
         23    2    1    2    0    0  0.24128356837E+02 -0.27822205062E+02  0.69866739269E+02  0.11241628821E+03  0.79998799365E+02 0.  0.
         23    2    1    2    0    0 -0.24128356837E+02  0.27822205062E+02 -0.23721240618E+01  0.98172393087E+02  0.90972188573E+02 0.  0.
          5    1    3    3  502    0  0.19672802758E+02 -0.48169867495E+02  0.16264394213E+02  0.54717235145E+02  0.47000000000E+01 0. -1.
         -5    1    3    3    0  502  0.44555540790E+01  0.20347662433E+02  0.53602345057E+02  0.57699053062E+02  0.47000000000E+01 0.  1.
          5    1    4    4  503    0 -0.53889650908E+02 -0.17085098864E-01  0.10649871025E+02  0.55132608498E+02  0.47000000000E+01 0. -1.
         -5    1    4    4    0  503  0.29761294071E+02  0.27839290161E+02 -0.13021995087E+02  0.43039784589E+02  0.47000000000E+01 0.  1.
<mgrwt>
<rscale>  0 0.95521706E+02</rscale>
<asrwt>0</asrwt>
<pdfrwt beam="1">  1        1 0.11007236E-01 0.98143730E+02</pdfrwt>
<pdfrwt beam="2">  1       -1 0.21391023E-01 0.98143730E+02</pdfrwt>
<totfact> 0.93013399E+03</totfact>
</mgrwt>
</event>
<event>
 8    1  0.9456677E-004  0.1250956E+03  0.7546771E-02  0.1235571E+00
          1   -1    0    0  501    0  0.00000000000E+00  0.00000000000E+00  0.12806057860E+03  0.12806057860E+03  0.00000000000E+00 0. -1.
         -1   -1    0    0    0  501 -0.00000000000E+00 -0.00000000000E+00 -0.15292976872E+03  0.15292976872E+03  0.00000000000E+00 0.  1.
         23    2    1    2    0    0 -0.30322285737E+02  0.77618453851E+02 -0.76978319647E+02  0.14547550875E+03  0.91068087498E+02 0.  0.
         23    2    1    2    0    0  0.30322285737E+02 -0.77618453851E+02  0.52109129521E+02  0.13551483856E+03  0.93299757241E+02 0.  0.
          5    1    3    3  502    0 -0.31581083410E+02  0.28919246793E+02 -0.85554552398E+02  0.95788094774E+02  0.47000000000E+01 0. -1.
         -5    1    4    4    0  503  0.36861898616E+01 -0.76296126280E+02 -0.29196463205E+00  0.76530138666E+02  0.47000000000E+01 0.  1.
          5    1    4    4  503    0  0.26636095875E+02 -0.13223275716E+01  0.52401094153E+02  0.58984699898E+02  0.47000000000E+01 0. -1.
         -5    1    3    3    0  502  0.12587976738E+01  0.48699207058E+02  0.85762327504E+01  0.49687413979E+02  0.47000000000E+01 0.  1.
<mgrwt>
<rscale>  0 0.12467966E+03</rscale>
<asrwt>0</asrwt>
<pdfrwt beam="1">  1        1 0.19701628E-01 0.12509560E+03</pdfrwt>
<pdfrwt beam="2">  1       -1 0.23527657E-01 0.12509560E+03</pdfrwt>
<totfact> 0.38367536E+03</totfact>
</mgrwt>
</event>
<event>
 8    1  0.9456677E-004  0.1018083E+03  0.7546771E-02  0.1276598E+00
          2   -1    0    0  501    0  0.00000000000E+00  0.00000000000E+00  0.84596593208E+03  0.84596593208E+03  0.00000000000E+00 0. -1.
         -2   -1    0    0    0  501 -0.00000000000E+00 -0.00000000000E+00 -0.21912453837E+02  0.21912453837E+02  0.00000000000E+00 0.  1.
         23    2    1    2    0    0 -0.33351763521E+01 -0.45740097928E+02  0.12356730693E+03  0.16003249844E+03  0.90764757779E+02 0.  0.
         23    2    1    2    0    0  0.33351763521E+01  0.45740097928E+02  0.70048617131E+03  0.70784588748E+03  0.90893587569E+02 0.  0.
          5    1    4    4  502    0  0.53354836287E+01  0.71128603743E+02  0.59256215815E+03  0.59685823018E+03  0.47000000000E+01 0. -1.
         -5    1    4    4    0  502 -0.20003072766E+01 -0.25388505815E+02  0.10792401316E+03  0.11098765730E+03  0.47000000000E+01 0.  1.
          5    1    3    3  503    0  0.35165514711E+02 -0.49623871027E+02  0.89206741768E+02  0.10806976810E+03  0.47000000000E+01 0. -1.
         -5    1    3    3    0  503 -0.38500691063E+02  0.38837730988E+01  0.34360565161E+02  0.51962730336E+02  0.47000000000E+01 0.  1.
<mgrwt>
<rscale>  0 0.10177951E+03</rscale>
<asrwt>0</asrwt>
<pdfrwt beam="1">  1        2 0.13014858E+00 0.10180827E+03</pdfrwt>
<pdfrwt beam="2">  1       -2 0.33711474E-02 0.10180827E+03</pdfrwt>
<totfact> 0.11042001E+04</totfact>
</mgrwt>
</event>
<event>
 8    1  0.9456677E-004  0.1674881E+03  0.7546771E-02  0.1180923E+00
         -1   -1    0    0    0  501 -0.00000000000E+00  0.00000000000E+00  0.59928946379E+03  0.59928946379E+03  0.00000000000E+00 0.  1.
          1   -1    0    0  501    0  0.00000000000E+00 -0.00000000000E+00 -0.46488755011E+02  0.46488755011E+02  0.00000000000E+00 0. -1.
         23    2    1    2    0    0 -0.33238962818E+02  0.13398048643E+03  0.26075162932E+03  0.30990912475E+03  0.94850693284E+02 0.  0.
         23    2    1    2    0    0  0.33238962818E+02 -0.13398048643E+03  0.29204907946E+03  0.33586909405E+03  0.91977084820E+02 0.  0.
          5    1    4    4  502    0  0.44031806823E+02 -0.15676672735E+02  0.80716451419E+02  0.93390543471E+02  0.47000000000E+01 0. -1.
         -5    1    3    3    0  503  0.20782058700E+02  0.97430867852E+02  0.13135097269E+03  0.16492372783E+03  0.47000000000E+01 0.  1.
          5    1    3    3  503    0 -0.54021021517E+02  0.36549618580E+02  0.12940065663E+03  0.14498539693E+03  0.47000000000E+01 0. -1.
         -5    1    4    4    0  502 -0.10792844005E+02 -0.11830381370E+03  0.21133262804E+03  0.24247855058E+03  0.47000000000E+01 0.  1.
<mgrwt>
<rscale>  0 0.16708400E+03</rscale>
<asrwt>0</asrwt>
<pdfrwt beam="1">  1        1 0.71521166E-02 0.16748807E+03</pdfrwt>
<pdfrwt beam="2">  1       -1 0.92198374E-01 0.16748807E+03</pdfrwt>
<totfact> 0.12069458E+03</totfact>
</mgrwt>
</event>
<event>
 8    1  0.9456677E-004  0.9978792E+02  0.7546771E-02  0.1281270E+00
         -2   -1    0    0    0  501 -0.00000000000E+00  0.00000000000E+00  0.51099127076E+02  0.51099127076E+02  0.00000000000E+00 0.  1.
          2   -1    0    0  501    0  0.00000000000E+00 -0.00000000000E+00 -0.22274150342E+03  0.22274150342E+03  0.00000000000E+00 0. -1.
         23    2    1    2    0    0  0.18787582240E+02 -0.32721904371E+02 -0.36104143584E+02  0.10611850835E+03  0.92379285333E+02 0.  0.
         23    2    1    2    0    0 -0.18787582240E+02  0.32721904371E+02 -0.13553823276E+03  0.16772212214E+03  0.91303896110E+02 0.  0.
          5    1    4    4  502    0 -0.47988621323E+02  0.10008041504E+01 -0.10223602207E+03  0.11304071654E+03  0.47000000000E+01 0. -1.
         -5    1    3    3    0  503 -0.30916586762E+02 -0.37811988570E+02 -0.12363550604E+02  0.50601671911E+02  0.47000000000E+01 0.  1.
          5    1    3    3  503    0  0.49704169001E+02  0.50900841994E+01 -0.23740592981E+02  0.55516836441E+02  0.47000000000E+01 0. -1.
         -5    1    4    4    0  502  0.29201039083E+02  0.31721100221E+02 -0.33302210685E+02  0.54681405608E+02  0.47000000000E+01 0.  1.
<mgrwt>
<rscale>  0 0.99538305E+02</rscale>
<asrwt>0</asrwt>
<pdfrwt beam="1">  1        2 0.34267923E-01 0.99787918E+02</pdfrwt>
<pdfrwt beam="2">  1       -2 0.78614044E-02 0.99787918E+02</pdfrwt>
<totfact> 0.13427878E+04</totfact>
</mgrwt>
</event>
<event>
 8    1  0.9456677E-004  0.1114556E+03  0.7546771E-02  0.1258817E+00
          2   -1    0    0  501    0  0.00000000000E+00  0.00000000000E+00  0.66933477625E+03  0.66933477625E+03  0.00000000000E+00 0. -1.
         -2   -1    0    0    0  501 -0.00000000000E+00 -0.00000000000E+00 -0.20414441370E+02  0.20414441370E+02  0.00000000000E+00 0.  1.
         23    2    1    2    0    0  0.68134667649E+01  0.66315111898E+02  0.20896734367E+03  0.23589793798E+03  0.86812263103E+02 0.  0.
         23    2    1    2    0    0 -0.68134667649E+01 -0.66315111898E+02  0.43995299121E+03  0.45385127965E+03  0.89320950322E+02 0.  0.
          5    1    4    4  502    0 -0.38994439240E+02 -0.20925403617E+02  0.29810498100E+03  0.30140854086E+03  0.47000000000E+01 0. -1.
         -5    1    3    3    0  503  0.40778087846E+02  0.42301815241E+02  0.16489687391E+03  0.17511529073E+03  0.47000000000E+01 0.  1.
          5    1    3    3  503    0 -0.33964621081E+02  0.24013296656E+02  0.44070469757E+02  0.60782647245E+02  0.47000000000E+01 0. -1.
         -5    1    4    4    0  502  0.32180972475E+02 -0.45389708281E+02  0.14184801022E+03  0.15244273879E+03  0.47000000000E+01 0.  1.
<mgrwt>
<rscale>  0 0.11095215E+03</rscale>
<asrwt>0</asrwt>
<pdfrwt beam="1">  1        2 0.10297456E+00 0.11145559E+03</pdfrwt>
<pdfrwt beam="2">  1       -2 0.31406838E-02 0.11145559E+03</pdfrwt>
<totfact> 0.16355285E+04</totfact>
</mgrwt>
</event>
<event>
 8    1  0.9456677E-004  0.1333368E+03  0.7546771E-02  0.1223511E+00
          2   -1    0    0  501    0  0.00000000000E+00  0.00000000000E+00  0.18233241776E+03  0.18233241776E+03  0.00000000000E+00 0. -1.
         -2   -1    0    0    0  501 -0.00000000000E+00 -0.00000000000E+00 -0.97497525040E+02  0.97497525040E+02  0.00000000000E+00 0.  1.
         23    2    1    2    0    0 -0.93120481015E+02  0.61131502646E+01  0.23570036595E+02  0.13540399380E+03  0.95236024287E+02 0.  0.
         23    2    1    2    0    0  0.93120481015E+02 -0.61131502646E+01  0.61264856125E+02  0.14442594900E+03  0.91633386694E+02 0.  0.
          5    1    4    4  502    0  0.12224937153E+02  0.31885874002E+02  0.39290779275E+02  0.52268665425E+02  0.47000000000E+01 0. -1.
         -5    1    4    4    0  502  0.80895543862E+02 -0.37999024267E+02  0.21974076850E+02  0.92157283572E+02  0.47000000000E+01 0.  1.
          5    1    3    3  503    0 -0.97107400462E+02  0.28308627853E+02 -0.16172133679E+01  0.10127157061E+03  0.47000000000E+01 0. -1.
         -5    1    3    3    0  503  0.39869194470E+01 -0.22195477589E+02  0.25187249963E+02  0.34132423189E+02  0.47000000000E+01 0.  1.
<mgrwt>
<rscale>  0 0.13269493E+03</rscale>
<asrwt>0</asrwt>
<pdfrwt beam="1">  1        2 0.28051141E-01 0.13333677E+03</pdfrwt>
<pdfrwt beam="2">  1       -2 0.14999619E-01 0.13333677E+03</pdfrwt>
<totfact> 0.61497449E+03</totfact>
</mgrwt>
</event>
<event>
 8    1  0.9456677E-004  0.9373413E+02  0.7546771E-02  0.1294083E+00
          4   -1    0    0  501    0  0.00000000000E+00  0.00000000000E+00  0.28640890916E+03  0.28640890916E+03  0.00000000000E+00 0. -1.
         -4   -1    0    0    0  501 -0.00000000000E+00 -0.00000000000E+00 -0.31472661955E+02  0.31472661955E+02  0.00000000000E+00 0.  1.
         23    2    1    2    0    0 -0.15702192906E+02  0.81860049046E+01  0.15298100733E+03  0.17938623547E+03  0.91992735223E+02 0.  0.
         23    2    1    2    0    0  0.15702192906E+02 -0.81860049046E+01  0.10195523988E+03  0.13849533565E+03  0.92046279224E+02 0.  0.
          5    1    4    4  502    0  0.77183532144E+01  0.38818756348E+02  0.71102152697E+02  0.81511195176E+02  0.47000000000E+01 0. -1.
         -5    1    3    3    0  503 -0.40062729540E+02 -0.26415584504E+02  0.58896971941E+02  0.76116678243E+02  0.47000000000E+01 0.  1.
          5    1    3    3  503    0  0.24360536634E+02  0.34601589409E+02  0.94084035385E+02  0.10326955722E+03  0.47000000000E+01 0. -1.
         -5    1    4    4    0  502  0.79838396916E+01 -0.47004761253E+02  0.30853087181E+02  0.56984140471E+02  0.47000000000E+01 0.  1.
<mgrwt>
<rscale>  0 0.93720982E+02</rscale>
<asrwt>0</asrwt>
<pdfrwt beam="1">  1        4 0.44062907E-01 0.93734130E+02</pdfrwt>
<pdfrwt beam="2">  1       -4 0.48419482E-02 0.93734130E+02</pdfrwt>
<totfact> 0.18969827E+03</totfact>
</mgrwt>
</event>
<event>
 8    1  0.9456677E-004  0.1352127E+03  0.7546771E-02  0.1222846E+00
          1   -1    0    0  501    0  0.00000000000E+00  0.00000000000E+00  0.69829005122E+03  0.69829005122E+03  0.00000000000E+00 0. -1.
         -1   -1    0    0    0  501 -0.00000000000E+00 -0.00000000000E+00 -0.37219665639E+02  0.37219665639E+02  0.00000000000E+00 0.  1.
         23    2    1    2    0    0 -0.95961338736E+02 -0.27620041754E+02  0.55090837836E+03  0.56725877137E+03  0.91164834843E+02 0.  0.
         23    2    1    2    0    0  0.95961338736E+02  0.27620041754E+02  0.11016200722E+03  0.16825094549E+03  0.78748127496E+02 0.  0.
          5    1    3    3  502    0 -0.57123626007E+02 -0.56351914895E+02  0.25416617270E+03  0.26657302997E+03  0.47000000000E+01 0. -1.
         -5    1    3    3    0  502 -0.38837712729E+02  0.28731873141E+02  0.29674220566E+03  0.30068574140E+03  0.47000000000E+01 0.  1.
          5    1    4    4  503    0  0.29322600200E+02  0.49023117623E+01 -0.75308490390E+01  0.31026621317E+02  0.47000000000E+01 0. -1.
         -5    1    4    4    0  503  0.66638738536E+02  0.22717729992E+02  0.11769285626E+03  0.13722432417E+03  0.47000000000E+01 0.  1.
<mgrwt>
<rscale>  0 0.13315607E+03</rscale>
<asrwt>0</asrwt>
<pdfrwt beam="1">  1        1 0.10742923E+00 0.13521269E+03</pdfrwt>
<pdfrwt beam="2">  1       -1 0.57261029E-02 0.13521269E+03</pdfrwt>
<totfact> 0.39494018E+03</totfact>
</mgrwt>
</event>
<event>
 8    1  0.1127562E-003  0.9586996E+02  0.7546771E-02  0.1291862E+00
          2   -1    0    0  501    0  0.00000000000E+00  0.00000000000E+00  0.21955741912E+03  0.21955741912E+03  0.00000000000E+00 0. -1.
         -2   -1    0    0    0  501 -0.00000000000E+00 -0.00000000000E+00 -0.94647568238E+02  0.94647568238E+02  0.00000000000E+00 0.  1.
         23    2    1    2    0    0 -0.30407751161E+01  0.88191596391E+01  0.18130542121E+03  0.20297769804E+03  0.90781420186E+02 0.  0.
         23    2    1    2    0    0  0.30407751161E+01 -0.88191596391E+01 -0.56395570327E+02  0.11122728932E+03  0.95415017933E+02 0.  0.
          5    1    3    3  502    0  0.95167281099E+01 -0.34627596817E+02  0.12744426135E+03  0.13249063486E+03  0.47000000000E+01 0. -1.
         -5    1    3    3    0  502 -0.12557503226E+02  0.43446756456E+02  0.53861159860E+02  0.70487063177E+02  0.47000000000E+01 0.  1.
          5    1    4    4  503    0  0.29295226206E+02 -0.43113982516E+02 -0.28441259648E+02  0.59565266870E+02  0.47000000000E+01 0. -1.
         -5    1    4    4    0  503 -0.26254451090E+02  0.34294822877E+02 -0.27954310679E+02  0.51662022451E+02  0.47000000000E+01 0.  1.
<mgrwt>
<rscale>  0 0.94695948E+02</rscale>
<asrwt>0</asrwt>
<pdfrwt beam="1">  1        2 0.33778064E-01 0.95869962E+02</pdfrwt>
<pdfrwt beam="2">  1       -2 0.14561164E-01 0.95869962E+02</pdfrwt>
<totfact> 0.51669258E+03</totfact>
</mgrwt>
</event>
<event>
 8    1  0.9456677E-004  0.1064262E+03  0.7546771E-02  0.1268991E+00
          4   -1    0    0  501    0  0.00000000000E+00  0.00000000000E+00  0.25327885752E+03  0.25327885752E+03  0.00000000000E+00 0. -1.
         -4   -1    0    0    0  501 -0.00000000000E+00 -0.00000000000E+00 -0.45837683139E+02  0.45837683139E+02  0.00000000000E+00 0.  1.
         23    2    1    2    0    0 -0.52870803934E+01  0.52558253411E+02  0.67078406738E+02  0.12296816293E+03  0.88494820323E+02 0.  0.
         23    2    1    2    0    0  0.52870803934E+01 -0.52558253411E+02  0.14036276765E+03  0.17614837773E+03  0.92391672864E+02 0.  0.
          5    1    3    3  502    0 -0.36510103887E+02  0.19446859411E+02 -0.16827991341E+00  0.41632755673E+02  0.47000000000E+01 0. -1.
         -5    1    4    4    0  503  0.16332587507E+02  0.21166848764E+02  0.17297730117E+02  0.32188357654E+02  0.47000000000E+01 0.  1.
          5    1    4    4  503    0 -0.11045507114E+02 -0.73725102174E+02  0.12306503753E+03  0.14396002007E+03  0.47000000000E+01 0. -1.
         -5    1    3    3    0  502  0.31223023493E+02  0.33111394000E+02  0.67246686651E+02  0.81335407261E+02  0.47000000000E+01 0.  1.
<mgrwt>
<rscale>  0 0.10557487E+03</rscale>
<asrwt>0</asrwt>
<pdfrwt beam="1">  1        4 0.38965977E-01 0.10642624E+03</pdfrwt>
<pdfrwt beam="2">  1       -4 0.70519514E-02 0.10642624E+03</pdfrwt>
<totfact> 0.13596122E+03</totfact>
</mgrwt>
</event>
<event>
 8    1  0.9456677E-004  0.9762326E+02  0.7546771E-02  0.1286959E+00
          2   -1    0    0  501    0  0.00000000000E+00  0.00000000000E+00  0.16666020662E+03  0.16666020662E+03  0.00000000000E+00 0. -1.
         -2   -1    0    0    0  501 -0.00000000000E+00 -0.00000000000E+00 -0.55944875138E+02  0.55944875138E+02  0.00000000000E+00 0.  1.
         23    2    1    2    0    0  0.11116648851E+02 -0.26969904571E+02  0.46411740891E+02  0.10809417707E+03  0.93163006555E+02 0.  0.
         23    2    1    2    0    0 -0.11116648851E+02  0.26969904571E+02  0.64303590595E+02  0.11451090469E+03  0.90148987210E+02 0.  0.
          5    1    3    3  502    0 -0.70669369972E+00  0.20583374681E+02  0.54277670528E+02  0.58243714229E+02  0.47000000000E+01 0. -1.
         -5    1    3    3    0  502  0.11823342551E+02 -0.47553279253E+02 -0.78659296369E+01  0.49850462845E+02  0.47000000000E+01 0.  1.
          5    1    4    4  503    0 -0.10512516666E+02  0.58799085168E+02  0.54169411466E+02  0.80772894970E+02  0.47000000000E+01 0. -1.
         -5    1    4    4    0  503 -0.60413218547E+00 -0.31829180597E+02  0.10134179129E+02  0.33738009719E+02  0.47000000000E+01 0.  1.
<mgrwt>
<rscale>  0 0.96897194E+02</rscale>
<asrwt>0</asrwt>
<pdfrwt beam="1">  1        2 0.25640031E-01 0.97623263E+02</pdfrwt>
<pdfrwt beam="2">  1       -2 0.86069040E-02 0.97623263E+02</pdfrwt>
<totfact> 0.15921793E+04</totfact>
</mgrwt>
</event>
<event>
 8    1  0.9456677E-004  0.1259498E+03  0.7546771E-02  0.1238497E+00
         -2   -1    0    0    0  501 -0.00000000000E+00  0.00000000000E+00  0.31632816757E+03  0.31632816757E+03  0.00000000000E+00 0.  1.
          2   -1    0    0  501    0  0.00000000000E+00 -0.00000000000E+00 -0.66006005423E+02  0.66006005423E+02  0.00000000000E+00 0. -1.
         23    2    1    2    0    0 -0.52008683980E+02  0.64877540006E+02  0.14325261505E+02  0.11483112745E+03  0.77890797331E+02 0.  0.
         23    2    1    2    0    0  0.52008683980E+02 -0.64877540006E+02  0.23599690064E+03  0.26750304554E+03  0.94600971738E+02 0.  0.
          5    1    4    4  502    0 -0.23241245425E+02 -0.23019618459E+02  0.31885975163E+02  0.45922366392E+02  0.47000000000E+01 0. -1.
         -5    1    3    3    0  503 -0.39048882048E+02 -0.42479325864E+01 -0.90279094380E+01  0.40576511300E+02  0.47000000000E+01 0.  1.
          5    1    3    3  503    0 -0.12959801932E+02  0.69125472592E+02  0.23353170943E+02  0.74254616155E+02  0.47000000000E+01 0. -1.
         -5    1    4    4    0  502  0.75249929405E+02 -0.41857921547E+02  0.20411092548E+03  0.22158067915E+03  0.47000000000E+01 0.  1.
<mgrwt>
<rscale>  0 0.12283197E+03</rscale>
<asrwt>0</asrwt>
<pdfrwt beam="1">  1        2 0.10154770E-01 0.12594976E+03</pdfrwt>
<pdfrwt beam="2">  1       -2 0.48665871E-01 0.12594976E+03</pdfrwt>
<totfact> 0.24444104E+03</totfact>
</mgrwt>
</event>
<event>
 8    1  0.9456677E-004  0.8890257E+02  0.7546771E-02  0.1306075E+00
         -1   -1    0    0    0  501 -0.00000000000E+00  0.00000000000E+00  0.12440213692E+03  0.12440213692E+03  0.00000000000E+00 0.  1.
          1   -1    0    0  501    0  0.00000000000E+00 -0.00000000000E+00 -0.71326189793E+02  0.71326189793E+02  0.00000000000E+00 0. -1.
         23    2    1    2    0    0  0.16194213953E+02 -0.23294801545E+01 -0.72023548111E+01  0.88317241039E+02  0.86489202254E+02 0.  0.
         23    2    1    2    0    0 -0.16194213953E+02  0.23294801545E+01  0.60278301940E+02  0.10741108568E+03  0.87384143859E+02 0.  0.
          5    1    4    4  502    0  0.18074155628E+02 -0.28588157459E+02  0.48900656654E+02  0.59643290233E+02  0.47000000000E+01 0. -1.
         -5    1    4    4    0  502 -0.34268369581E+02  0.30917637613E+02  0.11377645286E+02  0.47767795444E+02  0.47000000000E+01 0.  1.
          5    1    3    3  503    0  0.37976333821E+02 -0.19075813541E+02 -0.30062258276E+02  0.52267752634E+02  0.47000000000E+01 0. -1.
         -5    1    3    3    0  503 -0.21782119869E+02  0.16746333386E+02  0.22859903464E+02  0.36049488405E+02  0.47000000000E+01 0.  1.
<mgrwt>
<rscale>  0 0.88681878E+02</rscale>
<asrwt>0</asrwt>
<pdfrwt beam="1">  1        1 0.10973260E-01 0.88902574E+02</pdfrwt>
<pdfrwt beam="2">  1       -1 0.19138790E-01 0.88902574E+02</pdfrwt>
<totfact> 0.11044249E+04</totfact>
</mgrwt>
</event>
<event>
 8    1  0.9456677E-004  0.9305536E+02  0.7546771E-02  0.1296050E+00
          3   -1    0    0  501    0  0.00000000000E+00  0.00000000000E+00  0.24092317180E+03  0.24092317180E+03  0.00000000000E+00 0. -1.
         -3   -1    0    0    0  501 -0.00000000000E+00 -0.00000000000E+00 -0.50076351922E+02  0.50076351922E+02  0.00000000000E+00 0.  1.
         23    2    1    2    0    0 -0.99606957200E+01  0.17241111003E+01  0.17070395410E+02  0.93876351215E+02  0.91756105517E+02 0.  0.
         23    2    1    2    0    0  0.99606957200E+01 -0.17241111003E+01  0.17377642447E+03  0.19712317251E+03  0.92504656208E+02 0.  0.
          5    1    4    4  502    0  0.24252002883E+02 -0.31234886628E+02  0.15282671981E+03  0.15792996573E+03  0.47000000000E+01 0. -1.
         -5    1    3    3    0  503  0.19683045300E+02  0.15531828463E+02 -0.28074964239E+02  0.37933541684E+02  0.47000000000E+01 0.  1.
          5    1    3    3  503    0 -0.29643741020E+02 -0.13807717362E+02  0.45145359649E+02  0.55942809531E+02  0.47000000000E+01 0. -1.
         -5    1    4    4    0  502 -0.14291307163E+02  0.29510775528E+02  0.20949704664E+02  0.39193206786E+02  0.47000000000E+01 0.  1.
<mgrwt>
<rscale>  0 0.92868775E+02</rscale>
<asrwt>0</asrwt>
<pdfrwt beam="1">  1        3 0.37065103E-01 0.93055357E+02</pdfrwt>
<pdfrwt beam="2">  1       -3 0.77040543E-02 0.93055357E+02</pdfrwt>
<totfact> 0.17477160E+03</totfact>
</mgrwt>
</event>
<event>
 8    1  0.9456677E-004  0.1232264E+03  0.7546771E-02  0.1249471E+00
          4   -1    0    0  501    0  0.00000000000E+00  0.00000000000E+00  0.31101128912E+03  0.31101128912E+03  0.00000000000E+00 0. -1.
         -4   -1    0    0    0  501 -0.00000000000E+00 -0.00000000000E+00 -0.55821532651E+02  0.55821532651E+02  0.00000000000E+00 0.  1.
         23    2    1    2    0    0 -0.19415253558E+02 -0.31687704220E+02  0.23775801046E+03  0.26779398492E+03  0.11748908098E+03 0.  0.
         23    2    1    2    0    0  0.19415253558E+02  0.31687704220E+02  0.17431746004E+02  0.99038836853E+02  0.90131918692E+02 0.  0.
          5    1    3    3  502    0 -0.46262752249E+02 -0.27270314643E+02  0.23375919712E+03  0.23989448627E+03  0.47000000000E+01 0. -1.
         -5    1    3    3    0  502  0.26847498691E+02 -0.44173895768E+01  0.39988133498E+01  0.27899498649E+02  0.47000000000E+01 0.  1.
          5    1    4    4  503    0  0.98041547757E+00 -0.24169162827E+02 -0.17722772091E+02  0.30352863075E+02  0.47000000000E+01 0. -1.
         -5    1    4    4    0  503  0.18434838080E+02  0.55856867047E+02  0.35154518095E+02  0.68685973778E+02  0.47000000000E+01 0.  1.
<mgrwt>
<rscale>  0 0.11621732E+03</rscale>
<asrwt>0</asrwt>
<pdfrwt beam="1">  1        4 0.47847890E-01 0.12322640E+03</pdfrwt>
<pdfrwt beam="2">  1       -4 0.85879282E-02 0.12322640E+03</pdfrwt>
<totfact> 0.67563623E+02</totfact>
</mgrwt>
</event>
<event>
 7    1  0.9456677E-004  0.1982039E+03  0.7546771E-02  0.1167354E+00
         -1   -1    0    0    0  501 -0.00000000000E+00  0.00000000000E+00  0.19806511416E+02  0.19806511416E+02  0.00000000000E+00 0.  1.
          1   -1    0    0  501    0  0.00000000000E+00 -0.00000000000E+00 -0.19034856344E+04  0.19034856344E+04  0.00000000000E+00 0. -1.
         23    2    1    2    0    0 -0.86171464535E+02  0.14789164477E+02 -0.32981142109E+03  0.35683447746E+03  0.10445587652E+03 0.  0.
          5    1    3    3  502    0 -0.72673948382E+02 -0.18839219814E+01 -0.32661703431E+03  0.33464283802E+03  0.47000000000E+01 0. -1.
         -5    1    1    2    0  503 -0.83577398102E+01  0.70209329398E+02 -0.52879895233E+03  0.53352565425E+03  0.47000000000E+01 0.  1.
          5    1    1    2  503    0  0.94529204346E+02 -0.84998493875E+02 -0.10250687495E+04  0.10329320141E+04  0.47000000000E+01 0. -1.
         -5    1    3    3    0  502 -0.13497516154E+02  0.16673086459E+02 -0.31943867780E+01  0.22191639445E+02  0.47000000000E+01 0.  1.
<mgrwt>
<rscale>  0 0.18046483E+03</rscale>
<asrwt>0</asrwt>
<pdfrwt beam="1">  1        1 0.29284402E+00 0.19820391E+03</pdfrwt>
<pdfrwt beam="2">  1       -1 0.30471548E-02 0.19820391E+03</pdfrwt>
<totfact> 0.14422957E+03</totfact>
</mgrwt>
</event>
<event>
 8    1  0.9456677E-004  0.9332132E+02  0.7546771E-02  0.1301243E+00
         -1   -1    0    0    0  501 -0.00000000000E+00  0.00000000000E+00  0.88034139279E+01  0.88034139279E+01  0.00000000000E+00 0.  1.
          1   -1    0    0  501    0  0.00000000000E+00 -0.00000000000E+00 -0.88612453355E+03  0.88612453355E+03  0.00000000000E+00 0. -1.
         23    2    1    2    0    0  0.70531843601E+01  0.16847935257E+02 -0.48367223386E+03  0.49259283293E+03  0.91516495343E+02 0.  0.
         23    2    1    2    0    0 -0.70531843601E+01 -0.16847935257E+02 -0.39364888577E+03  0.40233511455E+03  0.81120273670E+02 0.  0.
          5    1    4    4  502    0  0.28294101236E+02  0.73068593075E+01 -0.72467037726E+02  0.78278400050E+02  0.47000000000E+01 0. -1.
         -5    1    3    3    0  503 -0.41238419177E+02  0.16799418372E+02 -0.23785787039E+03  0.24203570849E+03  0.47000000000E+01 0.  1.
          5    1    3    3  503    0  0.48291603537E+02  0.48516884957E-01 -0.24581436346E+03  0.25055712445E+03  0.47000000000E+01 0. -1.
         -5    1    4    4    0  502 -0.35347285596E+02 -0.24154794565E+02 -0.32118184804E+03  0.32405671450E+03  0.47000000000E+01 0.  1.
<mgrwt>
<rscale>  0 0.90667703E+02</rscale>
<asrwt>0</asrwt>
<pdfrwt beam="1">  1        1 0.13632680E+00 0.93321323E+02</pdfrwt>
<pdfrwt beam="2">  1       -1 0.13543719E-02 0.93321323E+02</pdfrwt>
<totfact> 0.21813656E+04</totfact>
</mgrwt>
</event>
<event>
 8    1  0.9456677E-004  0.1027192E+03  0.7546771E-02  0.1274911E+00
          2   -1    0    0  501    0  0.00000000000E+00  0.00000000000E+00  0.10386537039E+04  0.10386537039E+04  0.00000000000E+00 0. -1.
         -2   -1    0    0    0  501 -0.00000000000E+00 -0.00000000000E+00 -0.12792259425E+02  0.12792259425E+02  0.00000000000E+00 0.  1.
         23    2    1    2    0    0  0.38177933948E+02  0.28012182984E+02  0.27326371153E+03  0.29193200248E+03  0.91153721778E+02 0.  0.
         23    2    1    2    0    0 -0.38177933948E+02 -0.28012182984E+02  0.75259773299E+03  0.75951396089E+03  0.90641447779E+02 0.  0.
          5    1    4    4  502    0 -0.59866046656E+02 -0.39004934699E+02  0.65167177911E+03  0.65559402542E+03  0.47000000000E+01 0. -1.
         -5    1    4    4    0  502  0.21688112709E+02  0.10992751715E+02  0.10092595388E+03  0.10391993548E+03  0.47000000000E+01 0.  1.
          5    1    3    3  503    0  0.34160771421E+02 -0.42457044681E+01  0.24819068007E+03  0.25061063023E+03  0.47000000000E+01 0. -1.
         -5    1    3    3    0  503  0.40171625271E+01  0.32257887452E+02  0.25073031459E+02  0.41321372244E+02  0.47000000000E+01 0.  1.
<mgrwt>
<rscale>  0 0.10260545E+03</rscale>
<asrwt>0</asrwt>
<pdfrwt beam="1">  1        2 0.15979281E+00 0.10271922E+03</pdfrwt>
<pdfrwt beam="2">  1       -2 0.19680407E-02 0.10271922E+03</pdfrwt>
<totfact> 0.18423606E+04</totfact>
</mgrwt>
</event>
<event>
 8    1  0.9456677E-004  0.1164866E+03  0.7546771E-02  0.1255881E+00
         -1   -1    0    0    0  501 -0.00000000000E+00  0.00000000000E+00  0.23899986452E+02  0.23899986452E+02  0.00000000000E+00 0.  1.
          1   -1    0    0  501    0  0.00000000000E+00 -0.00000000000E+00 -0.52519462361E+03  0.52519462361E+03  0.00000000000E+00 0. -1.
         23    2    1    2    0    0  0.40561887753E+02 -0.17395288809E+02 -0.32977005539E+03  0.34973908090E+03  0.10780200584E+03 0.  0.
         23    2    1    2    0    0 -0.40561887753E+02  0.17395288809E+02 -0.17152458177E+03  0.19935552917E+03  0.91510010644E+02 0.  0.
          5    1    3    3  502    0 -0.67972268155E+01 -0.44250547386E+02 -0.63002230951E+02  0.77431804455E+02  0.47000000000E+01 0. -1.
         -5    1    3    3    0  502  0.47359114569E+02  0.26855258577E+02 -0.26676782444E+03  0.27230727644E+03  0.47000000000E+01 0.  1.
          5    1    4    4  503    0 -0.33232656687E+02 -0.52922938641E+01 -0.17172456185E+03  0.17505380027E+03  0.47000000000E+01 0. -1.
         -5    1    4    4    0  503 -0.73292310662E+01  0.22687582673E+02  0.19998008157E+00  0.24301728902E+02  0.47000000000E+01 0.  1.
<mgrwt>
<rscale>  0 0.11257119E+03</rscale>
<asrwt>0</asrwt>
<pdfrwt beam="1">  1        1 0.80799170E-01 0.11648663E+03</pdfrwt>
<pdfrwt beam="2">  1       -1 0.36769211E-02 0.11648663E+03</pdfrwt>
<totfact> 0.11081686E+04</totfact>
</mgrwt>
</event>
<event>
 8    1  0.9456677E-004  0.2221636E+03  0.7546771E-02  0.1132400E+00
         -2   -1    0    0    0  501 -0.00000000000E+00  0.00000000000E+00  0.81159469555E+02  0.81159469555E+02  0.00000000000E+00 0.  1.
          2   -1    0    0  501    0  0.00000000000E+00 -0.00000000000E+00 -0.65317579985E+03  0.65317579985E+03  0.00000000000E+00 0. -1.
         23    2    1    2    0    0  0.17218746417E+03 -0.10518089794E+03 -0.38390928960E+03  0.44323234033E+03  0.91416742283E+02 0.  0.
         23    2    1    2    0    0 -0.17218746417E+03  0.10518089794E+03 -0.18810704069E+03  0.29110292907E+03  0.92979096817E+02 0.  0.
          5    1    4    4  502    0 -0.34932127004E+02  0.72334152522E+02 -0.59103293511E+02  0.99838732073E+02  0.47000000000E+01 0. -1.
         -5    1    3    3    0  503  0.36967904545E+02 -0.62598830801E+02 -0.82158875188E+02  0.10980624006E+03  0.47000000000E+01 0.  1.
          5    1    3    3  503    0  0.13521955962E+03 -0.42582067140E+02 -0.30175041441E+03  0.33342610027E+03  0.47000000000E+01 0. -1.
         -5    1    4    4    0  502 -0.13725533717E+03  0.32846745418E+02 -0.12900374718E+03  0.19126419700E+03  0.47000000000E+01 0.  1.
<mgrwt>
<rscale>  0 0.22200107E+03</rscale>
<asrwt>0</asrwt>
<pdfrwt beam="1">  1        2 0.10048858E+00 0.22216358E+03</pdfrwt>
<pdfrwt beam="2">  1       -2 0.12486073E-01 0.22216358E+03</pdfrwt>
<totfact> 0.21034745E+03</totfact>
</mgrwt>
</event>
<event>
 8    1  0.9456677E-004  0.1170690E+03  0.7546771E-02  0.1250224E+00
         -2   -1    0    0    0  501 -0.00000000000E+00  0.00000000000E+00  0.23562469589E+03  0.23562469589E+03  0.00000000000E+00 0.  1.
          2   -1    0    0  501    0  0.00000000000E+00 -0.00000000000E+00 -0.71435393945E+02  0.71435393945E+02  0.00000000000E+00 0. -1.
         23    2    1    2    0    0 -0.57807583751E+02 -0.30542817241E+02  0.15561258923E+03  0.19473168190E+03  0.97111119770E+02 0.  0.
         23    2    1    2    0    0  0.57807583751E+02  0.30542817241E+02  0.85767127204E+01  0.11232840794E+03  0.90936960616E+02 0.  0.
          5    1    3    3  502    0 -0.38500206689E+02 -0.60595924454E+02  0.64011916622E+02  0.96300298261E+02  0.47000000000E+01 0. -1.
         -5    1    4    4    0  503 -0.18465693454E+02  0.27117156193E+02 -0.79191508902E+01  0.34075283499E+02  0.47000000000E+01 0.  1.
          5    1    4    4  503    0  0.76273277204E+02  0.34256610479E+01  0.16495863611E+02  0.78253124445E+02  0.47000000000E+01 0. -1.
         -5    1    3    3    0  502 -0.19307377061E+02  0.30053107212E+02  0.91600672607E+02  0.98431383634E+02  0.47000000000E+01 0.  1.
<mgrwt>
<rscale>  0 0.11578076E+03</rscale>
<asrwt>0</asrwt>
<pdfrwt beam="1">  1        2 0.10990061E-01 0.11706900E+03</pdfrwt>
<pdfrwt beam="2">  1       -2 0.36249953E-01 0.11706900E+03</pdfrwt>
<totfact> 0.38755665E+03</totfact>
</mgrwt>
</event>
<event>
 8    1  0.9456677E-004  0.9118394E+02  0.7546771E-02  0.1300778E+00
          1   -1    0    0  501    0  0.00000000000E+00  0.00000000000E+00  0.25978113139E+03  0.25978113139E+03  0.00000000000E+00 0. -1.
         -1   -1    0    0    0  501 -0.00000000000E+00 -0.00000000000E+00 -0.31618586543E+02  0.31618586543E+02  0.00000000000E+00 0.  1.
         23    2    1    2    0    0  0.20510096972E+01  0.42808845004E+01  0.12130341737E+03  0.15175318715E+03  0.91060299431E+02 0.  0.
         23    2    1    2    0    0 -0.20510096972E+01 -0.42808845004E+01  0.10685912748E+03  0.13964653078E+03  0.89776098275E+02 0.  0.
          5    1    3    3  502    0 -0.56209950777E+01 -0.24110558549E+02  0.11926772088E+03  0.12190075416E+03  0.47000000000E+01 0. -1.
         -5    1    3    3    0  502  0.76720047750E+01  0.28391443050E+02  0.20356964892E+01  0.29852432998E+02  0.47000000000E+01 0.  1.
          5    1    4    4  503    0 -0.14536896768E+01 -0.45804933334E+02  0.70684664277E+02  0.84371896360E+02  0.47000000000E+01 0. -1.
         -5    1    4    4    0  503 -0.59732002041E+00  0.41524048833E+02  0.36174463201E+02  0.55274634423E+02  0.47000000000E+01 0.  1.
<mgrwt>
<rscale>  0 0.90861625E+02</rscale>
<asrwt>0</asrwt>
<pdfrwt beam="1">  1        1 0.39966327E-01 0.91183939E+02</pdfrwt>
<pdfrwt beam="2">  1       -1 0.48643981E-02 0.91183939E+02</pdfrwt>
<totfact> 0.17341245E+04</totfact>
</mgrwt>
</event>
<event>
 8    1  0.9456677E-004  0.9633129E+02  0.7546771E-02  0.1294484E+00
         -1   -1    0    0    0  501 -0.00000000000E+00  0.00000000000E+00  0.26716302862E+03  0.26716302862E+03  0.00000000000E+00 0.  1.
          1   -1    0    0  501    0  0.00000000000E+00 -0.00000000000E+00 -0.32763230559E+02  0.32763230559E+02  0.00000000000E+00 0. -1.
         23    2    1    2    0    0  0.31354173923E+02  0.51555545925E+01  0.88914576037E+02  0.13109355471E+03  0.90939838846E+02 0.  0.
         23    2    1    2    0    0 -0.31354173923E+02 -0.51555545925E+01  0.14548522202E+03  0.16883270447E+03  0.79554184712E+02 0.  0.
          5    1    4    4  502    0 -0.30974239048E+02  0.33131504867E+02  0.62974167144E+02  0.77749185378E+02  0.47000000000E+01 0. -1.
         -5    1    3    3    0  503 -0.23754709589E+02  0.16923376420E+02  0.61551070785E+02  0.68273795939E+02  0.47000000000E+01 0.  1.
          5    1    3    3  503    0  0.55108883512E+02 -0.11767821827E+02  0.27363505252E+02  0.62819758772E+02  0.47000000000E+01 0. -1.
         -5    1    4    4    0  502 -0.37993487417E+00 -0.38287059459E+02  0.82511054879E+02  0.91083519090E+02  0.47000000000E+01 0.  1.
<mgrwt>
<rscale>  0 0.93546318E+02</rscale>
<asrwt>0</asrwt>
<pdfrwt beam="1">  1        1 0.50404972E-02 0.96331294E+02</pdfrwt>
<pdfrwt beam="2">  1       -1 0.41102003E-01 0.96331294E+02</pdfrwt>
<totfact> 0.88469288E+03</totfact>
</mgrwt>
</event>
<event>
 8    1  0.9456677E-004  0.1148579E+03  0.7546771E-02  0.1256642E+00
         -2   -1    0    0    0  501 -0.00000000000E+00  0.00000000000E+00  0.21495585825E+02  0.21495585825E+02  0.00000000000E+00 0.  1.
          2   -1    0    0  501    0  0.00000000000E+00 -0.00000000000E+00 -0.65987327907E+03  0.65987327907E+03  0.00000000000E+00 0. -1.
         23    2    1    2    0    0 -0.45302331208E+02  0.13276894280E+02 -0.17328236356E+03  0.20230102688E+03  0.93114718609E+02 0.  0.
         23    2    1    2    0    0  0.45302331208E+02 -0.13276894280E+02 -0.46509532968E+03  0.47906783801E+03  0.10470792993E+03 0.  0.
          5    1    3    3  502    0  0.93660282067E+01 -0.28650327851E+02 -0.27851876368E+02  0.41308362199E+02  0.47000000000E+01 0. -1.
         -5    1    4    4    0  503  0.20071904437E+02 -0.51210007243E+02 -0.13562431058E+03  0.14642878750E+03  0.47000000000E+01 0.  1.
          5    1    4    4  503    0  0.25230426771E+02  0.37933112964E+02 -0.32947101911E+03  0.33263905051E+03  0.47000000000E+01 0. -1.
         -5    1    3    3    0  502 -0.54668359414E+02  0.41927222130E+02 -0.14543048719E+03  0.16099266468E+03  0.47000000000E+01 0.  1.
<mgrwt>
<rscale>  0 0.11214851E+03</rscale>
<asrwt>0</asrwt>
<pdfrwt beam="1">  1        2 0.10151898E+00 0.11485786E+03</pdfrwt>
<pdfrwt beam="2">  1       -2 0.33070128E-02 0.11485786E+03</pdfrwt>
<totfact> 0.15452926E+04</totfact>
</mgrwt>
</event>
<event>
 8    1  0.9456677E-004  0.1013271E+03  0.7546771E-02  0.1280258E+00
          1   -1    0    0  501    0  0.00000000000E+00  0.00000000000E+00  0.27765136821E+02  0.27765136821E+02  0.00000000000E+00 0. -1.
         -1   -1    0    0    0  501 -0.00000000000E+00 -0.00000000000E+00 -0.37198923602E+03  0.37198923602E+03  0.00000000000E+00 0.  1.
         23    2    1    2    0    0 -0.25625159467E+02  0.18581496742E+02 -0.22347623878E+03  0.24537482039E+03  0.96256180908E+02 0.  0.
         23    2    1    2    0    0  0.25625159467E+02 -0.18581496742E+02 -0.12074786042E+03  0.15437955246E+03  0.90835453436E+02 0.  0.
          5    1    4    4  502    0  0.36498083395E+02  0.15754076647E+02 -0.15304460038E+02  0.42855775801E+02  0.47000000000E+01 0. -1.
         -5    1    3    3    0  503 -0.36831678323E+02 -0.75140323087E+00 -0.21897305072E+03  0.22210003169E+03  0.47000000000E+01 0.  1.
          5    1    3    3  503    0  0.11206518856E+02  0.19332899973E+02 -0.45031880572E+01  0.23274788697E+02  0.47000000000E+01 0. -1.
         -5    1    4    4    0  502 -0.10872923928E+02 -0.34335573389E+02 -0.10544340038E+03  0.11152377665E+03  0.47000000000E+01 0.  1.
<mgrwt>
<rscale>  0 0.10001829E+03</rscale>
<asrwt>0</asrwt>
<pdfrwt beam="1">  1        1 0.42715596E-02 0.10132706E+03</pdfrwt>
<pdfrwt beam="2">  1       -1 0.57229112E-01 0.10132706E+03</pdfrwt>
<totfact> 0.61288410E+03</totfact>
</mgrwt>
</event>
<event>
 8    1  0.9456677E-004  0.1069317E+03  0.7546771E-02  0.1267768E+00
          2   -1    0    0  501    0  0.00000000000E+00  0.00000000000E+00  0.70185068515E+03  0.70185068515E+03  0.00000000000E+00 0. -1.
         -2   -1    0    0    0  501 -0.00000000000E+00 -0.00000000000E+00 -0.16326708404E+02  0.16326708404E+02  0.00000000000E+00 0.  1.
         23    2    1    2    0    0 -0.14663605193E+02  0.51085853156E+02  0.28628932495E+03  0.30560754108E+03  0.92787961898E+02 0.  0.
         23    2    1    2    0    0  0.14663605193E+02 -0.51085853156E+02  0.39923465179E+03  0.41256985247E+03  0.89447136717E+02 0.  0.
          5    1    3    3  502    0  0.11130530870E+02  0.60587287685E+02  0.10223164669E+03  0.11944918472E+03  0.47000000000E+01 0.  1.
         -5    1    4    4    0  503 -0.30811705617E+02 -0.82686213881E+01  0.65491842613E+02  0.73000018846E+02  0.47000000000E+01 0.  1.
          5    1    4    4  503    0  0.45475310810E+02 -0.42817231768E+02  0.33374280918E+03  0.33956983362E+03  0.47000000000E+01 0. -1.
         -5    1    3    3    0  502 -0.25794136062E+02 -0.95014345288E+01  0.18405767827E+03  0.18615835636E+03  0.47000000000E+01 0. -1.
<mgrwt>
<rscale>  0 0.10620288E+03</rscale>
<asrwt>0</asrwt>
<pdfrwt beam="1">  1        2 0.10797700E+00 0.10693171E+03</pdfrwt>
<pdfrwt beam="2">  1       -2 0.25118018E-02 0.10693171E+03</pdfrwt>
<totfact> 0.21356124E+04</totfact>
</mgrwt>
</event>
